BUMPy system
67056
    1BOLB   NC1    1   0.448  21.751   9.043 -0.0348 -0.0327  0.0999
    1BOLB   PO1    2   0.419  21.942   8.684  0.0303 -0.1356 -0.0812
    1BOLB   GL1    3   0.094  21.663   8.506  0.1369  0.0562  0.0446
    1BOLB   GL2    4   0.227  21.369   8.328  0.3236  0.0600  0.0987
    1BOLB   C1A    5  -0.298  21.480   8.314 -0.0360  0.1825 -0.0143
    1BOLB   C2A    6  -0.536  21.235   8.252  0.0838  0.0590 -0.0572
    1BOLB   C3A    7  -1.056  21.155   8.310 -0.2963 -0.0640 -0.2890
    1BOLB   C4A    8  -1.305  20.839   8.394  0.0452  0.0725 -0.0608
    1BOLB   C1B    9  -0.039  21.051   8.105  0.3553  0.0373  0.2009
    1BOLB   C2B   10  -0.454  20.891   7.922  0.2449 -0.0218  0.0330
    1BOLB   C3B   11  -0.854  20.805   7.980 -0.2025 -0.0396  0.4469
    1BOLB   C4B   12  -1.277  20.610   7.879 -0.1820  0.0847  0.2248
    1BOLB   NC2   13   0.771  20.094   8.738  0.0834 -0.0369 -0.0747
    1BOLB   PO2   14   0.500  20.038   8.384  0.0416  0.0429 -0.1517
    1BOLB   GL3   15   0.152  19.975   8.170 -0.1577 -0.3194 -0.0294
    1BOLB   GL4   16   0.214  20.071   7.869  0.0260 -0.3916 -0.0175
    1BOLB   C1C   17  -0.311  19.979   8.058  0.2340  0.1228  0.3094
    1BOLB   C2C   18  -0.690  20.031   8.268 -0.0474 -0.0946  0.1296
    1BOLB   C3C   19  -1.161  20.188   8.152 -0.1045 -0.3243 -0.3706
    1BOLB   C4C   20  -1.452  20.467   8.337 -0.0533  0.0359  0.1920
    1BOLB   C1D   21  -0.196  20.432   7.935  0.0973  0.2041  0.0792
    1BOLB   C2D   22  -0.655  20.391   7.783 -0.2008  0.0898 -0.3115
    1BOLB   C3D   23  -1.033  20.247   7.659  0.2149 -0.1781 -0.0128
    1BOLB   C4D   24  -1.479  20.084   7.633 -0.2073  0.0999 -0.0467
    2BOLB   NC1   25  11.212  17.994   4.187  0.1004 -0.3289  0.4795
    2BOLB   PO1   26  11.623  17.758   4.175 -0.0744 -0.0707 -0.1711
    2BOLB   GL1   27  11.794  17.403   3.793 -0.0652 -0.1182 -0.0635
    2BOLB   GL2   28  11.979  17.669   3.608  0.0543 -0.4986  0.2645
    2BOLB   C1A   29  12.052  17.002   3.745  0.1470 -0.1575  0.2042
    2BOLB   C2A   30  12.355  16.746   3.600 -0.0442 -0.4569  0.1649
    2BOLB   C3A   31  12.749  16.622   3.392 -0.3044 -0.3221 -0.5909
    2BOLB   C4A   32  12.756  16.605   2.931 -0.1371  0.0394 -0.3245
    2BOLB   C1B   33  12.007  17.333   3.271  0.2316  0.0722  0.1495
    2BOLB   C2B   34  11.809  17.178   2.881  0.0838  0.1240  0.0754
    2BOLB   C3B   35  11.576  16.923   2.649  0.2978  0.1559 -0.1645
    2BOLB   C4B   36  11.246  16.926   2.355 -0.0057 -0.0346 -0.0299
    2BOLB   NC2   37  13.289  14.559   1.196  0.4795  0.2143  0.5307
    2BOLB   PO2   38  13.540  14.999   1.323 -0.0420 -0.1543 -0.0636
    2BOLB   GL3   39  13.219  15.225   1.661 -0.0402  0.0468 -0.2414
    2BOLB   GL4   40  12.905  14.948   1.699  0.1412 -0.1759  0.0107
    2BOLB   C1C   41  12.997  15.492   1.979  0.3417  0.3316  0.1133
    2BOLB   C2C   42  12.675  15.731   2.034 -0.3291  0.3187 -0.1702
    2BOLB   C3C   43  12.507  16.026   2.410 -0.1711 -0.1195  0.0023
    2BOLB   C4C   44  12.504  16.381   2.651  0.0637 -0.1424  0.0065
    2BOLB   C1D   45  12.561  15.207   1.923 -0.1412 -0.3582  0.2322
    2BOLB   C2D   46  12.252  15.451   2.104  0.4953 -0.1304  0.0959
    2BOLB   C3D   47  12.175  15.712   2.478  0.0301  0.0556 -0.2236
    2BOLB   C4D   48  11.992  16.014   2.742 -0.1984  0.0189 -0.1509
    3BOLB   NC1   49  37.657   7.533   5.742 -0.1893 -0.1897  0.1345
    3BOLB   PO1   50  37.479   7.911   5.494  0.0607 -0.4594  0.3153
    3BOLB   GL1   51  37.809   8.078   5.677 -0.1390  0.2433 -0.1907
    3BOLB   GL2   52  37.745   8.344   5.585 -0.3726  0.0891  0.1035
    3BOLB   C1A   53  37.812   8.216   6.067 -0.3924 -0.1794  0.3234
    3BOLB   C2A   54  38.115   8.435   6.305 -0.3329 -0.0035  0.4304
    3BOLB   C3A   55  38.454   8.659   6.343 -0.3202 -0.1840  0.0291
    3BOLB   C4A   56  38.443   9.136   6.450 -0.0539  0.1564 -0.1900
    3BOLB   C1B   57  37.854   8.737   5.823 -0.0284  0.0186 -0.3589
    3BOLB   C2B   58  38.130   8.926   6.118  0.2672 -0.0655 -0.0493
    3BOLB   C3B   59  38.250   9.364   6.087  0.0219  0.1042  0.2999
    3BOLB   C4B   60  38.507   9.668   6.128 -0.2577 -0.0969  0.1449
    3BOLB   NC2   61  36.639   8.007   4.884  0.0051 -0.1886 -0.2141
    3BOLB   PO2   62  36.762   8.258   5.257  0.0802  0.0199  0.1262
    3BOLB   GL3   63  37.200   8.337   5.360  0.1618 -0.0164  0.0461
    3BOLB   GL4   64  37.212   8.587   5.304 -0.0860 -0.2135 -0.0141
    3BOLB   C1C   65  37.385   8.468   5.894  0.2299 -0.0660  0.0326
    3BOLB   C2C   66  37.428   8.930   6.123  0.3364 -0.2559  0.0537
    3BOLB   C3C   67  37.747   9.340   6.295  0.1122  0.2295  0.5981
    3BOLB   C4C   68  38.094   9.377   6.550  0.3301  0.1680 -0.0245
    3BOLB   C1D   69  37.257   8.928   5.581  0.1098  0.4898 -0.0430
    3BOLB   C2D   70  37.142   9.325   5.811 -0.1108  0.3131 -0.3184
    3BOLB   C3D   71  37.312   9.543   6.106 -0.1264 -0.0829  0.0516
    3BOLB   C4D   72  37.654   9.953   6.213  0.0902  0.2096 -0.2188
    4BOLB   NC1   73  30.257  19.803   5.109 -0.0137  0.1161 -0.0097
    4BOLB   PO1   74  30.082  20.203   5.391  0.0021  0.2109  0.0831
    4BOLB   GL1   75  30.371  20.490   5.663  0.0402 -0.1601 -0.1056
    4BOLB   GL2   76  30.194  20.701   5.939 -0.0369 -0.1958  0.0802
    4BOLB   C1A   77  30.704  20.319   5.828  0.1281  0.0186 -0.2143
    4BOLB   C2A   78  31.171  20.356   5.855 -0.4009  0.0775 -0.2059
    4BOLB   C3A   79  31.669  20.350   6.114 -0.0845 -0.3963 -0.1727
    4BOLB   C4A   80  31.763  20.045   6.476  0.1738  0.1862  0.0643
    4BOLB   C1B   81  30.589  20.769   6.029  0.0298 -0.3127  0.0476
    4BOLB   C2B   82  30.850  20.930   6.333  0.1977  0.2570 -0.4246
    4BOLB   C3B   83  31.227  21.108   6.508 -0.1574  0.0533 -0.1368
    4BOLB   C4B   84  31.676  21.111   6.691 -0.4168  0.1591  0.0220
    4BOLB   NC2   85  29.190  20.119   6.893  0.2241  0.4074  0.4208
    4BOLB   PO2   86  29.454  20.337   6.488 -0.2082 -0.1784 -0.0536
    4BOLB   GL3   87  29.900  20.333   6.502  0.1903  0.2346  0.1006
    4BOLB   GL4   88  29.950  20.566   6.700 -0.0695  0.5856 -0.4448
    4BOLB   C1C   89  30.204  20.000   6.686  0.0422  0.2136 -0.0001
    4BOLB   C2C   90  30.532  19.829   6.592  0.0570  0.1751 -0.0324
    4BOLB   C3C   91  31.002  19.593   6.486 -0.2277  0.0529  0.2807
    4BOLB   C4C   92  31.479  19.742   6.565 -0.0966 -0.3663  0.1975
    4BOLB   C1D   93  30.256  20.401   6.967 -0.1855  0.1149 -0.1314
    4BOLB   C2D   94  30.584  20.186   6.909  0.0852 -0.1079  0.1408
    4BOLB   C3D   95  30.861  20.201   6.564  0.1454  0.0649 -0.0729
    4BOLB   C4D   96  30.968  20.460   6.302 -0.1137 -0.1794  0.1118
    5BOLB   NC1   97   0.629  26.611  10.417 -0.0739 -0.3110 -0.2207
    5BOLB   PO1   98   0.265  26.333  10.363 -0.0003  0.0628  0.1738
    5BOLB   GL1   99  -0.009  26.661  10.245 -0.1653 -0.0704  0.1978
    5BOLB   GL2  100  -0.293  26.479  10.347  0.0389  0.0655  0.0535
    5BOLB   C1A  101  -0.166  26.884   9.887  0.2419  0.0248  0.0101
    5BOLB   C2A  102  -0.446  26.857   9.591 -0.3214 -0.1373  0.2808
    5BOLB   C3A  103  -0.813  26.844   9.307 -0.1475  0.1614  0.2687
    5BOLB   C4A  104  -1.155  26.944   9.507 -0.0010  0.0876 -0.2053
    5BOLB   C1B  105  -0.576  26.782  10.203  0.0668  0.1723  0.2814
    5BOLB   C2B  106  -0.563  27.182   9.993 -0.1351 -0.3090 -0.0897
    5BOLB   C3B  107  -0.546  27.600   9.977  0.2965  0.1724  0.0954
    5BOLB   C4B  108  -0.579  27.991  10.270 -0.2077 -0.1191  0.3067
    5BOLB   NC2  109  -3.058  28.833   9.480  0.0089 -0.0347 -0.2271
    5BOLB   PO2  110  -2.709  29.023   9.226 -0.1482 -0.1435 -0.0442
    5BOLB   GL3  111  -2.358  28.793   9.281 -0.2302  0.2022 -0.0496
    5BOLB   GL4  112  -1.970  28.751   9.261  0.0795  0.1129 -0.1389
    5BOLB   C1C  113  -2.075  28.283   9.389 -0.1413 -0.2127  0.0295
    5BOLB   C2C  114  -1.687  28.033   9.394  0.0465 -0.1736  0.0649
    5BOLB   C3C  115  -1.569  27.595   9.512  0.1236  0.2596  0.0120
    5BOLB   C4C  116  -1.447  27.273   9.652 -0.2495  0.1549 -0.4929
    5BOLB   C1D  117  -1.632  28.508   9.496  0.3304  0.0342 -0.0264
    5BOLB   C2D  118  -1.286  28.557   9.619 -0.1945  0.4196  0.1008
    5BOLB   C3D  119  -0.870  28.320   9.635  0.2161  0.3902 -0.2072
    5BOLB   C4D  120  -0.687  28.009   9.777  0.1020 -0.0029 -0.2376
    6BOLB   NC1  121   8.949  19.086  17.676  0.1808  0.0705  0.0871
    6BOLB   PO1  122   8.676  19.273  18.006  0.3366 -0.0102 -0.1977
    6BOLB   GL1  123   8.780  19.160  18.387 -0.1403  0.0876 -0.1825
    6BOLB   GL2  124   9.054  18.858  18.478  0.1807 -0.4095  0.0913
    6BOLB   C1A  125   8.916  19.024  18.957  0.0129 -0.2395 -0.2761
    6BOLB   C2A  126   9.196  18.903  19.189  0.1260 -0.2052  0.1386
    6BOLB   C3A  127   9.476  18.994  19.542  0.0293  0.0214 -0.0581
    6BOLB   C4A  128   9.783  19.101  19.828 -0.0504 -0.2124  0.2211
    6BOLB   C1B  129   9.390  18.688  18.682  0.2654 -0.3445 -0.0065
    6BOLB   C2B  130   9.616  18.702  18.953  0.0170 -0.1153  0.0991
    6BOLB   C3B  131   9.781  18.275  19.105 -0.1097 -0.2110  0.2932
    6BOLB   C4B  132   9.981  17.959  19.263  0.0823  0.0036 -0.1376
    6BOLB   NC2  133  10.964  18.350  21.509  0.3615 -0.1254  0.3654
    6BOLB   PO2  134  10.636  18.459  21.779  0.0174  0.2713  0.0879
    6BOLB   GL3  135  10.487  18.546  21.383 -0.1797  0.1072 -0.3258
    6BOLB   GL4  136  10.568  18.837  21.361 -0.2820  0.0743 -0.1654
    6BOLB   C1C  137  10.031  18.723  21.141  0.0086  0.3293  0.0131
    6BOLB   C2C  138   9.957  19.101  20.951  0.1110  0.0170  0.1195
    6BOLB   C3C  139   9.896  19.149  20.567 -0.0125 -0.2289 -0.4408
    6BOLB   C4C  140   9.964  19.188  20.146 -0.1511 -0.0716 -0.0203
    6BOLB   C1D  141  10.593  18.821  20.939 -0.0105  0.0834  0.1460
    6BOLB   C2D  142  10.239  18.778  20.706 -0.0849 -0.0031 -0.3103
    6BOLB   C3D  143   9.971  18.701  20.397 -0.2232  0.2111 -0.2165
    6BOLB   C4D  144   9.957  18.700  19.987  0.1358  0.2418  0.0259
    7BOLB   NC1  145   5.314  15.099   4.247 -0.0845  0.0321 -0.2954
    7BOLB   PO1  146   5.445  14.744   4.480  0.1410 -0.1031 -0.1165
    7BOLB   GL1  147   5.312  14.494   4.115  0.2458 -0.0543 -0.0172
    7BOLB   GL2  148   5.203  14.183   3.997 -0.0456  0.4764 -0.0242
    7BOLB   C1A  149   5.494  14.319   3.677  0.1004  0.0762  0.0429
    7BOLB   C2A  150   5.698  14.200   3.298 -0.0452  0.3457  0.0178
    7BOLB   C3A  151   5.894  13.777   3.154 -0.1518 -0.1459 -0.0485
    7BOLB   C4A  152   5.695  13.408   3.044  0.1529  0.4896  0.1908
    7BOLB   C1B  153   5.262  13.878   3.730  0.0118  0.0300 -0.0846
    7BOLB   C2B  154   5.468  13.677   3.435 -0.2054 -0.1596  0.2904
    7BOLB   C3B  155   5.321  13.152   3.376 -0.2975  0.1410 -0.2059
    7BOLB   C4B  156   5.157  12.934   3.641 -0.0573  0.1076 -0.0688
    7BOLB   NC2  157   5.435  10.868   2.580  0.0836 -0.1418  0.0463
    7BOLB   PO2  158   5.170  11.182   2.803 -0.0998  0.0462 -0.0561
    7BOLB   GL3  159   5.185  11.506   2.894  0.1012  0.0345  0.1312
    7BOLB   GL4  160   5.479  11.722   2.794 -0.2503 -0.0128 -0.0482
    7BOLB   C1C  161   5.086  11.991   2.982  0.3111  0.2120 -0.2082
    7BOLB   C2C  162   5.065  12.415   3.041 -0.4065  0.1214 -0.3088
    7BOLB   C3C  163   5.253  12.819   2.960 -0.0984 -0.0116  0.0460
    7BOLB   C4C  164   5.579  13.038   2.866  0.5169 -0.0722 -0.3990
    7BOLB   C1D  165   5.559  11.951   3.127  0.1078  0.1355  0.1266
    7BOLB   C2D  166   5.621  12.363   3.178  0.0360 -0.0166  0.2557
    7BOLB   C3D  167   5.489  12.658   3.433  0.1395  0.2852  0.1079
    7BOLB   C4D  168   5.828  12.978   3.280 -0.0036  0.5101  0.5317
    8BOLB   NC1  169  30.580  21.002  17.075  0.1107 -0.1296  0.0847
    8BOLB   PO1  170  30.407  20.686  17.163  0.1715 -0.1812 -0.1213
    8BOLB   GL1  171  30.666  20.561  16.764  0.3060 -0.4028  0.0492
    8BOLB   GL2  172  30.886  20.716  16.635  0.0243  0.1801 -0.0778
    8BOLB   C1A  173  30.728  20.252  16.410  0.1395 -0.2854  0.1104
    8BOLB   C2A  174  31.105  20.128  16.190  0.1306  0.0038  0.0153
    8BOLB   C3A  175  31.004  20.027  15.719  0.0186 -0.0737  0.2367
    8BOLB   C4A  176  31.161  19.746  15.400 -0.1048  0.0208  0.2095
    8BOLB   C1B  177  31.189  20.464  16.601  0.1909 -0.4188 -0.0215
    8BOLB   C2B  178  31.597  20.227  16.390  0.0633 -0.0648  0.0628
    8BOLB   C3B  179  31.584  19.920  16.056 -0.0144 -0.0179 -0.3155
    8BOLB   C4B  180  31.739  19.886  15.751  0.1718  0.2250  0.1384
    8BOLB   NC2  181  29.531  19.216  15.030 -0.1109  0.1104 -0.0330
    8BOLB   PO2  182  29.577  19.405  15.475  0.1160  0.2126  0.2909
    8BOLB   GL3  183  30.023  19.301  15.297  0.0654  0.0661  0.1526
    8BOLB   GL4  184  30.291  19.208  15.393  0.0859 -0.1978 -0.0867
    8BOLB   C1C  185  30.138  19.060  14.926  0.1735 -0.4345 -0.1772
    8BOLB   C2C  186  30.500  19.084  14.928  0.1166 -0.2351  0.0997
    8BOLB   C3C  187  30.980  19.183  14.879  0.1166 -0.2680  0.2134
    8BOLB   C4C  188  31.145  19.532  15.030 -0.0408 -0.0269 -0.0355
    8BOLB   C1D  189  30.629  18.850  15.317 -0.1743  0.0377 -0.3263
    8BOLB   C2D  190  31.020  18.649  15.177 -0.1621  0.3589 -0.1001
    8BOLB   C3D  191  31.261  18.199  15.157 -0.3145 -0.3057  0.3101
    8BOLB   C4D  192  31.210  17.988  14.763 -0.0624  0.4078 -0.2725
    9BOLB   NC1  193  35.942   9.337   3.294  0.0678  0.0669 -0.1959
    9BOLB   PO1  194  36.124   9.354   3.761 -0.0552 -0.1437  0.2996
    9BOLB   GL1  195  36.420   9.524   3.956 -0.2389  0.2216  0.3222
    9BOLB   GL2  196  36.742   9.529   3.759 -0.0141 -0.2340  0.0917
    9BOLB   C1A  197  36.538   9.953   3.918 -0.1669 -0.1711 -0.3794
    9BOLB   C2A  198  36.573  10.388   3.914  0.1972  0.2204 -0.0323
    9BOLB   C3A  199  36.384  10.790   4.031 -0.4354 -0.2093 -0.2948
    9BOLB   C4A  200  36.245  10.964   4.449 -0.1900 -0.0955 -0.0091
    9BOLB   C1B  201  36.897   9.676   4.250 -0.1265 -0.2071 -0.0795
    9BOLB   C2B  202  37.053   9.692   4.638  0.2726  0.1057 -0.2702
    9BOLB   C3B  203  37.152   9.998   4.941  0.1085  0.0034  0.1029
    9BOLB   C4B  204  37.574  10.071   4.865 -0.1073 -0.3724  0.1728
    9BOLB   NC2  205  35.275   9.878   4.777  0.1430 -0.2150  0.1885
    9BOLB   PO2  206  35.259   9.975   5.203 -0.0550 -0.1517  0.0922
    9BOLB   GL3  207  35.620  10.109   5.559 -0.1236  0.0027 -0.0340
    9BOLB   GL4  208  35.978  10.134   5.454 -0.0567 -0.1918  0.0160
    9BOLB   C1C  209  35.875  10.503   5.739  0.2362  0.0786 -0.1481
    9BOLB   C2C  210  35.987  10.850   5.599 -0.1473  0.0203  0.0765
    9BOLB   C3C  211  36.386  10.990   5.301 -0.2286  0.1801  0.0107
    9BOLB   C4C  212  36.226  11.043   4.885  0.1416  0.1455 -0.0496
    9BOLB   C1D  213  36.163  10.097   5.801 -0.2170  0.3123  0.2130
    9BOLB   C2D  214  36.371  10.449   5.964 -0.0271  0.3102 -0.2741
    9BOLB   C3D  215  36.400  10.800   5.861 -0.0345  0.3315  0.1376
    9BOLB   C4D  216  36.177  11.148   5.966 -0.0118  0.0103  0.2862
   10BOLB   NC1  217  11.484  15.248   7.366 -0.0741 -0.4061  0.1926
   10BOLB   PO1  218  11.762  14.935   7.628  0.2336 -0.1060  0.0878
   10BOLB   GL1  219  12.079  14.605   7.769  0.0027  0.1154  0.0325
   10BOLB   GL2  220  12.421  14.787   7.896  0.1445  0.4150  0.1769
   10BOLB   C1A  221  12.303  14.260   7.664 -0.0769 -0.1861 -0.0054
   10BOLB   C2A  222  12.570  13.976   7.434  0.3433  0.3820  0.2963
   10BOLB   C3A  223  12.855  13.742   7.290  0.0944  0.1369  0.0427
   10BOLB   C4A  224  12.828  13.455   7.149  0.0696  0.2135 -0.1925
   10BOLB   C1B  225  12.761  14.531   7.832  0.0835  0.0158 -0.0001
   10BOLB   C2B  226  12.972  14.023   7.791  0.2481 -0.0956 -0.0113
   10BOLB   C3B  227  13.291  13.645   7.935 -0.0667  0.4341 -0.1393
   10BOLB   C4B  228  13.792  13.594   7.998  0.1344  0.1867 -0.1426
   10BOLB   NC2  229  14.078  11.286   5.757 -0.0404  0.1374  0.1377
   10BOLB   PO2  230  13.916  11.705   6.011 -0.0673  0.0163 -0.1057
   10BOLB   GL3  231  13.663  11.925   6.261  0.1090 -0.1011  0.0025
   10BOLB   GL4  232  13.452  12.242   6.125 -0.2154  0.0414  0.0105
   10BOLB   C1C  233  13.553  12.241   6.654  0.1537 -0.1325 -0.0987
   10BOLB   C2C  234  13.133  12.299   6.862  0.0845  0.0783  0.1273
   10BOLB   C3C  235  12.902  12.579   7.123 -0.0793 -0.0442 -0.2061
   10BOLB   C4C  236  12.771  12.988   7.176 -0.0332 -0.1009  0.1528
   10BOLB   C1D  237  13.168  12.432   6.392  0.0423 -0.2074  0.0492
   10BOLB   C2D  238  13.126  12.784   6.690 -0.1267 -0.0252  0.3379
   10BOLB   C3D  239  13.244  12.981   7.059 -0.1605  0.0881  0.1738
   10BOLB   C4D  240  13.343  13.417   7.242 -0.3432  0.6173  0.1895
   11BOLB   NC1  241  11.145  17.503  16.216 -0.1130 -0.2410  0.1458
   11BOLB   PO1  242  11.271  17.546  15.765 -0.0169  0.0434  0.0671
   11BOLB   GL1  243  11.434  17.197  15.925 -0.1619  0.1609  0.0049
   11BOLB   GL2  244  11.683  17.265  16.199 -0.2536  0.3899 -0.1076
   11BOLB   C1A  245  11.589  16.887  15.747 -0.1762 -0.0743 -0.0648
   11BOLB   C2A  246  11.721  16.514  15.909  0.0286  0.2017 -0.0104
   11BOLB   C3A  247  12.054  16.207  15.944  0.2532  0.1147  0.2880
   11BOLB   C4A  248  12.254  15.797  15.754  0.1474 -0.0225 -0.1615
   11BOLB   C1B  249  11.912  17.140  16.585  0.0386  0.2172 -0.1564
   11BOLB   C2B  250  11.839  16.792  16.871  0.1887  0.2764  0.0617
   11BOLB   C3B  251  11.950  16.386  16.760  0.2706  0.0320 -0.1921
   11BOLB   C4B  252  12.189  16.138  16.967  0.0403 -0.1449 -0.1530
   11BOLB   NC2  253  13.983  14.843  17.223  0.0649 -0.0273 -0.1504
   11BOLB   PO2  254  13.816  14.456  17.056  0.1967 -0.2158 -0.4029
   11BOLB   GL3  255  13.423  14.709  16.940  0.1509  0.0322  0.2886
   11BOLB   GL4  256  13.467  15.028  16.912  0.3652  0.0256 -0.0660
   11BOLB   C1C  257  13.173  14.802  16.463 -0.1087  0.0764 -0.2536
   11BOLB   C2C  258  12.857  15.150  16.277 -0.1173  0.3162  0.0030
   11BOLB   C3C  259  12.446  15.099  16.091  0.1966 -0.3989 -0.1559
   11BOLB   C4C  260  12.468  15.473  15.887  0.0606 -0.0732  0.2760
   11BOLB   C1D  261  13.241  15.417  16.849 -0.2635 -0.1652  0.1057
   11BOLB   C2D  262  12.932  15.663  16.566  0.2889  0.0077 -0.1584
   11BOLB   C3D  263  12.761  15.886  16.158  0.1910  0.3015 -0.0160
   11BOLB   C4D  264  12.686  16.084  15.786  0.1463  0.2485  0.0259
   12BOLB   NC1  265  36.033   8.144  13.884  0.0703 -0.0659  0.0771
   12BOLB   PO1  266  35.655   7.950  13.737  0.0256  0.2870 -0.0602
   12BOLB   GL1  267  35.782   8.299  13.516  0.0183  0.2397 -0.0986
   12BOLB   GL2  268  35.852   8.310  13.110  0.6664 -0.1544  0.0775
   12BOLB   C1A  269  36.187   8.574  13.444  0.1466 -0.0116 -0.2955
   12BOLB   C2A  270  36.528   8.898  13.546 -0.0375 -0.0842  0.1289
   12BOLB   C3A  271  36.854   9.120  13.647 -0.1624 -0.0771 -0.0152
   12BOLB   C4A  272  37.228   8.855  13.858 -0.0089  0.4141 -0.1138
   12BOLB   C1B  273  36.275   8.476  12.979 -0.1632  0.0698  0.3927
   12BOLB   C2B  274  36.650   8.520  13.187  0.2393 -0.4297  0.1035
   12BOLB   C3B  275  36.963   8.520  13.346  0.1948 -0.1093  0.2824
   12BOLB   C4B  276  37.390   8.561  13.449 -0.2124  0.1890  0.1353
   12BOLB   NC2  277  37.020   8.477  16.742  0.1177  0.2270  0.1334
   12BOLB   PO2  278  37.027   8.222  16.271 -0.1093 -0.1042 -0.2851
   12BOLB   GL3  279  37.191   8.414  15.953 -0.2101 -0.0734 -0.1264
   12BOLB   GL4  280  37.062   8.752  15.833  0.0445  0.0455 -0.3219
   12BOLB   C1C  281  37.521   8.518  15.633 -0.1077  0.0346 -0.0999
   12BOLB   C2C  282  37.476   8.509  15.107  0.0484  0.0229  0.1744
   12BOLB   C3C  283  37.318   8.690  14.695 -0.1256  0.1704 -0.1195
   12BOLB   C4C  284  37.172   8.645  14.250 -0.3233 -0.0316  0.0890
   12BOLB   C1D  285  37.429   9.039  15.717 -0.0110 -0.1477  0.0776
   12BOLB   C2D  286  37.914   9.089  15.809  0.0068 -0.1852 -0.1534
   12BOLB   C3D  287  38.187   9.171  15.572  0.4372 -0.0172 -0.0826
   12BOLB   C4D  288  38.113   9.273  15.109 -0.1953 -0.1254 -0.0150
   13BOLB   NC1  289  15.067  23.712   8.788  0.2334 -0.1054  0.4420
   13BOLB   PO1  290  15.202  23.539   8.405 -0.0105 -0.0801 -0.1085
   13BOLB   GL1  291  15.547  23.778   8.452  0.1449  0.1011  0.2691
   13BOLB   GL2  292  15.610  23.745   8.717 -0.0472  0.0410 -0.2669
   13BOLB   C1A  293  15.710  24.029   8.129 -0.1975 -0.2252 -0.0099
   13BOLB   C2A  294  16.073  24.215   7.954 -0.0276  0.0378  0.0842
   13BOLB   C3A  295  16.448  24.083   7.731  0.2726 -0.0016 -0.0819
   13BOLB   C4A  296  16.731  24.195   7.377  0.1756  0.0640 -0.1180
   13BOLB   C1B  297  16.043  24.021   8.926  0.0552 -0.1245  0.3006
   13BOLB   C2B  298  16.498  23.953   8.906 -0.0256  0.2108  0.2659
   13BOLB   C3B  299  16.979  23.793   8.812  0.2384 -0.0557 -0.1519
   13BOLB   C4B  300  17.329  23.578   8.647  0.1054 -0.0964  0.2593
   13BOLB   NC2  301  18.463  25.413   8.382 -0.0694 -0.0581  0.3877
   13BOLB   PO2  302  18.397  25.833   8.200 -0.1376 -0.1039 -0.0450
   13BOLB   GL3  303  18.045  25.579   8.154 -0.0485  0.0705 -0.3282
   13BOLB   GL4  304  17.649  25.737   8.001  0.0456 -0.1233 -0.1496
   13BOLB   C1C  305  17.867  25.198   7.954  0.0020 -0.3366 -0.0660
   13BOLB   C2C  306  17.527  25.137   7.646 -0.3956 -0.2590  0.0536
   13BOLB   C3C  307  17.260  24.796   7.434  0.1152  0.0117  0.2449
   13BOLB   C4C  308  16.950  24.545   7.408 -0.0407 -0.0167  0.3411
   13BOLB   C1D  309  17.315  25.503   7.967 -0.1854  0.0704  0.0521
   13BOLB   C2D  310  17.291  25.033   8.064  0.2032 -0.1213 -0.2966
   13BOLB   C3D  311  17.153  24.565   8.163  0.1037 -0.0827  0.2869
   13BOLB   C4D  312  16.873  24.291   8.014  0.1937 -0.2197  0.2364
   14BOLB   NC1  313  31.167  26.517  11.805  0.0743 -0.2546  0.2940
   14BOLB   PO1  314  31.260  26.124  11.932 -0.0924 -0.0939  0.1755
   14BOLB   GL1  315  31.518  25.701  11.833  0.2738  0.1165 -0.1193
   14BOLB   GL2  316  31.852  25.716  11.694 -0.0712  0.1048 -0.1657
   14BOLB   C1A  317  31.546  25.261  11.687 -0.0570 -0.0551  0.2132
   14BOLB   C2A  318  31.312  24.805  11.665 -0.2974 -0.4007  0.0666
   14BOLB   C3A  319  31.391  24.466  11.924  0.2279  0.1276 -0.0851
   14BOLB   C4A  320  31.611  24.411  12.219  0.2599 -0.0748  0.1099
   14BOLB   C1B  321  32.021  25.374  11.781  0.1946  0.2895 -0.3275
   14BOLB   C2B  322  32.198  25.182  12.183 -0.1677  0.4458 -0.0582
   14BOLB   C3B  323  32.530  25.303  12.557 -0.0642 -0.1501  0.2381
   14BOLB   C4B  324  33.043  25.273  12.708 -0.0626  0.1194 -0.4795
   14BOLB   NC2  325  31.988  25.496  13.021 -0.3372  0.3845 -0.0353
   14BOLB   PO2  326  32.340  25.778  13.278  0.0030 -0.0372  0.1134
   14BOLB   GL3  327  32.646  25.516  13.010  0.0170 -0.0974 -0.2052
   14BOLB   GL4  328  32.828  25.512  13.188 -0.3316 -0.1381  0.0111
   14BOLB   C1C  329  32.637  25.057  12.958  0.0349 -0.1016 -0.0828
   14BOLB   C2C  330  32.490  24.730  12.929  0.2097  0.0717  0.0407
   14BOLB   C3C  331  32.365  24.401  12.629 -0.1721  0.2132  0.0375
   14BOLB   C4C  332  32.024  24.561  12.319 -0.1829 -0.2472  0.0695
   14BOLB   C1D  333  33.157  25.368  13.148 -0.1618 -0.0199 -0.2503
   14BOLB   C2D  334  33.539  25.320  12.815 -0.2600  0.1350  0.1174
   14BOLB   C3D  335  33.960  25.177  12.636 -0.3705 -0.2390 -0.3974
   14BOLB   C4D  336  33.956  24.777  12.504  0.0664 -0.2513 -0.3485
   15BOLB   NC1  337   9.840  23.992  18.085 -0.0611 -0.0862 -0.1374
   15BOLB   PO1  338  10.146  23.741  17.763  0.2437 -0.2842  0.0162
   15BOLB   GL1  339  10.324  23.996  18.023  0.2991  0.1041 -0.0390
   15BOLB   GL2  340  10.285  24.265  18.001  0.1466  0.1359 -0.2178
   15BOLB   C1A  341  10.448  24.006  18.497  0.0514 -0.1205  0.1809
   15BOLB   C2A  342  10.725  24.221  18.812 -0.1258 -0.2093  0.2805
   15BOLB   C3A  343  10.926  24.233  19.193  0.0023  0.0356  0.0944
   15BOLB   C4A  344  10.983  24.399  19.456 -0.2066 -0.0552 -0.0737
   15BOLB   C1B  345  10.619  24.551  18.298 -0.0429 -0.0771  0.1675
   15BOLB   C2B  346  10.649  24.835  18.674  0.1566 -0.1015 -0.2554
   15BOLB   C3B  347  10.562  25.058  19.102  0.1485  0.2242  0.0587
   15BOLB   C4B  348  10.466  25.368  19.425  0.1839 -0.0067 -0.1361
   15BOLB   NC2  349  12.889  25.929  19.947  0.0647  0.2439  0.1304
   15BOLB   PO2  350  12.699  26.320  19.843  0.2417 -0.0795 -0.0474
   15BOLB   GL3  351  12.441  25.987  19.665  0.0221  0.1285  0.0805
   15BOLB   GL4  352  12.575  25.824  19.385  0.2152 -0.0121  0.0180
   15BOLB   C1C  353  12.159  25.616  19.677  0.2292 -0.0926 -0.2920
   15BOLB   C2C  354  11.833  25.397  19.572 -0.1725 -0.0026 -0.0382
   15BOLB   C3C  355  11.354  25.223  19.576  0.0788  0.3721  0.0728
   15BOLB   C4C  356  11.174  24.798  19.719  0.2890 -0.0352  0.2202
   15BOLB   C1D  357  12.498  25.859  18.889 -0.0170  0.1598  0.1503
   15BOLB   C2D  358  12.105  25.824  18.701  0.2675 -0.2025 -0.1101
   15BOLB   C3D  359  11.708  25.681  18.977  0.3775 -0.0093 -0.2557
   15BOLB   C4D  360  11.525  25.764  19.271  0.1771 -0.2179  0.1505
   16BOLB   NC1  361  16.682  27.340   6.947 -0.2155 -0.3544 -0.4155
   16BOLB   PO1  362  16.361  27.701   6.918  0.1383 -0.2343  0.0674
   16BOLB   GL1  363  16.168  27.320   7.017  0.0499  0.3950  0.3194
   16BOLB   GL2  364  16.119  27.009   6.771 -0.1771  0.1202 -0.0247
   16BOLB   C1A  365  16.180  27.079   7.264  0.0340 -0.0618 -0.0340
   16BOLB   C2A  366  16.141  26.655   7.637 -0.2564 -0.0916 -0.2894
   16BOLB   C3A  367  15.868  26.339   7.839  0.1159  0.1104  0.0463
   16BOLB   C4A  368  15.995  26.173   8.290 -0.1010  0.0307  0.1636
   16BOLB   C1B  369  15.924  26.763   6.951 -0.1548 -0.0461 -0.2971
   16BOLB   C2B  370  15.851  26.498   7.196  0.1307  0.0747  0.3451
   16BOLB   C3B  371  15.647  26.236   7.407 -0.1361 -0.1069 -0.0359
   16BOLB   C4B  372  15.707  25.803   7.505 -0.4003  0.0464  0.6038
   16BOLB   NC2  373  16.719  27.661   9.740 -0.0524 -0.2095 -0.0353
   16BOLB   PO2  374  16.758  27.616   9.378 -0.3698  0.1139  0.0030
   16BOLB   GL3  375  16.736  27.197   9.556  0.0629  0.4039 -0.0913
   16BOLB   GL4  376  17.023  26.850   9.584  0.0499 -0.1291 -0.2192
   16BOLB   C1C  377  16.485  26.844   9.472 -0.0521 -0.0974 -0.0791
   16BOLB   C2C  378  16.320  26.421   9.382  0.1683  0.1657  0.1342
   16BOLB   C3C  379  16.348  26.322   8.958  0.1432  0.1812  0.0952
   16BOLB   C4C  380  16.288  26.169   8.622 -0.2945  0.0539  0.2267
   16BOLB   C1D  381  16.987  26.478   9.778  0.0773 -0.0465 -0.4340
   16BOLB   C2D  382  16.773  26.103   9.847  0.0065  0.0725  0.1738
   16BOLB   C3D  383  16.456  26.032   9.665 -0.0312  0.0005 -0.0371
   16BOLB   C4D  384  16.025  26.159   9.686 -0.2905 -0.1919 -0.1761
   17BOLB   NC1  385   2.481   6.325  12.093 -0.2734  0.1746  0.2945
   17BOLB   PO1  386   2.628   6.486  12.536 -0.0307 -0.0891  0.0426
   17BOLB   GL1  387   2.767   6.844  12.557  0.1487 -0.0140  0.1191
   17BOLB   GL2  388   2.961   7.063  12.474  0.2121  0.2461 -0.0283
   17BOLB   C1A  389   2.558   7.235  12.420  0.1830 -0.0028  0.3377
   17BOLB   C2A  390   2.162   7.420  12.341  0.2498  0.3988 -0.2150
   17BOLB   C3A  391   1.849   7.530  12.276 -0.2413 -0.1924  0.0033
   17BOLB   C4A  392   1.531   7.817  12.361  0.0987  0.1430  0.2114
   17BOLB   C1B  393   3.027   7.536  12.442 -0.0121 -0.3694 -0.2674
   17BOLB   C2B  394   2.911   7.918  12.519 -0.0751 -0.4174 -0.1156
   17BOLB   C3B  395   2.522   8.252  12.468  0.0620  0.1437 -0.2653
   17BOLB   C4B  396   2.270   8.397  12.133 -0.1956  0.1784 -0.1102
   17BOLB   NC2  397   0.233   6.169  11.538  0.4533  0.3832  0.0804
   17BOLB   PO2  398   0.662   6.374  11.385  0.2412 -0.1564  0.0350
   17BOLB   GL3  399   0.775   6.737  11.291 -0.1068 -0.0571  0.1805
   17BOLB   GL4  400   1.073   6.810  11.452 -0.2771 -0.0875 -0.1103
   17BOLB   C1C  401   0.745   7.105  11.576  0.0718  0.0334 -0.0137
   17BOLB   C2C  402   0.987   7.533  11.515  0.2434  0.0520  0.2773
   17BOLB   C3C  403   1.201   7.824  11.644 -0.0318 -0.0715  0.0676
   17BOLB   C4C  404   1.217   7.911  12.025  0.0061  0.1785  0.0901
   17BOLB   C1D  405   1.242   7.065  11.145  0.1479 -0.4120  0.1659
   17BOLB   C2D  406   1.102   7.455  11.053  0.4070  0.2138  0.1186
   17BOLB   C3D  407   0.765   7.610  10.811 -0.2844  0.0191 -0.0877
   17BOLB   C4D  408   0.487   7.767  10.515  0.2944 -0.1901 -0.1023
   18BOLB   NC1  409  36.073  15.021  26.048 -0.1633  0.1177  0.2864
   18BOLB   PO1  410  36.307  15.274  26.294 -0.0008 -0.0597 -0.0723
   18BOLB   GL1  411  36.423  15.087  26.737  0.1816  0.0383  0.3599
   18BOLB   GL2  412  36.716  15.001  26.610 -0.0256 -0.0248  0.2241
   18BOLB   C1A  413  36.511  14.870  27.111 -0.0486 -0.0240  0.3761
   18BOLB   C2A  414  36.198  14.759  27.382  0.3459 -0.0152 -0.1159
   18BOLB   C3A  415  36.193  14.440  27.669  0.0434 -0.1299 -0.0630
   18BOLB   C4A  416  35.853  14.263  27.866 -0.0744 -0.1309 -0.0571
   18BOLB   C1B  417  36.990  15.025  26.982  0.2828  0.0886 -0.0491
   18BOLB   C2B  418  37.353  15.029  27.222  0.1892  0.1145  0.1427
   18BOLB   C3B  419  37.642  15.306  27.332  0.0166 -0.1536 -0.0919
   18BOLB   C4B  420  38.114  15.262  27.271  0.0362  0.0396  0.0358
   18BOLB   NC2  421  35.835  12.218  27.252  0.2357 -0.0885  0.0611
   18BOLB   PO2  422  36.224  12.446  27.141 -0.2325  0.0382  0.3724
   18BOLB   GL3  423  36.091  12.741  27.422  0.0779  0.1425 -0.2430
   18BOLB   GL4  424  35.835  12.658  27.703  0.0422  0.0710  0.0937
   18BOLB   C1C  425  36.176  12.990  27.843  0.1805 -0.2068  0.2759
   18BOLB   C2C  426  36.176  13.220  28.177 -0.1175 -0.1387  0.2222
   18BOLB   C3C  427  35.938  13.560  28.294  0.2530 -0.1678  0.0202
   18BOLB   C4C  428  35.733  13.929  28.076  0.0941 -0.0174  0.0634
   18BOLB   C1D  429  35.707  13.025  28.143  0.0818 -0.1151  0.2856
   18BOLB   C2D  430  35.592  12.815  28.540 -0.0025  0.2004 -0.4402
   18BOLB   C3D  431  35.806  12.368  28.695  0.1037 -0.2828  0.1228
   18BOLB   C4D  432  36.014  12.202  29.056 -0.2506 -0.0086  0.1890
   19BOLB   NC1  433  14.659  19.893  11.472  0.1022 -0.1820  0.0617
   19BOLB   PO1  434  14.558  19.469  11.278  0.1147  0.2392 -0.0612
   19BOLB   GL1  435  14.957  19.424  11.390  0.0725  0.2105  0.2615
   19BOLB   GL2  436  15.113  19.139  11.182 -0.0324  0.1298 -0.0714
   19BOLB   C1A  437  15.262  19.223  11.668  0.2173  0.0040 -0.6100
   19BOLB   C2A  438  15.718  19.188  11.795  0.1417 -0.0329 -0.0599
   19BOLB   C3A  439  16.047  19.075  11.648 -0.1151  0.0074  0.1010
   19BOLB   C4A  440  16.471  19.089  11.535  0.0712 -0.2674  0.1037
   19BOLB   C1B  441  15.551  18.952  11.268 -0.0081  0.1043 -0.2089
   19BOLB   C2B  442  15.980  18.871  11.192 -0.1645 -0.1326  0.0814
   19BOLB   C3B  443  16.299  18.612  11.306 -0.0407  0.2561  0.1011
   19BOLB   C4B  444  16.775  18.705  11.361  0.0226  0.1484  0.0038
   19BOLB   NC2  445  17.869  17.933  12.747 -0.2101 -0.0315  0.2115
   19BOLB   PO2  446  17.996  18.217  12.709 -0.1510 -0.0733 -0.1066
   19BOLB   GL3  447  17.715  18.542  12.678 -0.5751 -0.0114 -0.0215
   19BOLB   GL4  448  17.514  18.418  12.849  0.0567  0.1691 -0.0912
   19BOLB   C1C  449  17.305  18.697  12.470  0.1070  0.0482  0.0872
   19BOLB   C2C  450  17.186  19.103  12.468 -0.0994 -0.4485 -0.1936
   19BOLB   C3C  451  16.952  19.299  12.197 -0.1324 -0.0424 -0.0456
   19BOLB   C4C  452  16.807  19.364  11.803 -0.3478 -0.1470 -0.2192
   19BOLB   C1D  453  17.475  18.863  13.029 -0.1781  0.1158  0.2174
   19BOLB   C2D  454  17.092  19.126  12.982 -0.0691 -0.5079  0.0845
   19BOLB   C3D  455  16.741  19.305  13.205 -0.0215 -0.3338  0.2590
   19BOLB   C4D  456  16.271  19.126  13.318  0.0758  0.1262  0.1196
   20BOLB   NC1  457   9.253  17.340  16.551  0.2766  0.0402  0.1416
   20BOLB   PO1  458   9.204  17.075  16.730 -0.2243  0.2185  0.4661
   20BOLB   GL1  459   9.302  16.763  16.995 -0.1009  0.0404 -0.2939
   20BOLB   GL2  460   9.318  16.936  17.257  0.0075 -0.0901  0.2012
   20BOLB   C1A  461   9.398  16.416  17.281 -0.0499  0.3039  0.3286
   20BOLB   C2A  462   9.636  16.350  17.577 -0.0488 -0.0015  0.2426
   20BOLB   C3A  463   9.631  16.126  18.013  0.0427 -0.0838 -0.2685
   20BOLB   C4A  464   9.777  15.791  18.315 -0.0122  0.3666 -0.0246
   20BOLB   C1B  465   9.663  16.880  17.358 -0.3037 -0.1115 -0.1736
   20BOLB   C2B  466   9.803  16.745  17.776  0.2321 -0.2748  0.1648
   20BOLB   C3B  467   9.775  16.527  18.271 -0.0501 -0.0569 -0.1494
   20BOLB   C4B  468   9.562  16.582  18.728  0.1166  0.1337  0.1993
   20BOLB   NC2  469  10.282  14.685  19.934  0.1089  0.2083 -0.0138
   20BOLB   PO2  470   9.944  14.576  20.141  0.0034  0.2072  0.0353
   20BOLB   GL3  471   9.799  14.773  19.860 -0.1156  0.1131  0.1741
   20BOLB   GL4  472   9.581  14.646  19.596 -0.0128  0.1445  0.1571
   20BOLB   C1C  473   9.881  15.058  19.455 -0.0025 -0.1698 -0.0304
   20BOLB   C2C  474   9.743  15.073  19.109  0.1925 -0.1780  0.2424
   20BOLB   C3C  475   9.944  15.274  18.722  0.1485  0.0118 -0.1011
   20BOLB   C4C  476   9.999  15.533  18.450 -0.3209 -0.1062  0.0863
   20BOLB   C1D  477   9.408  14.999  19.637 -0.0324 -0.1162  0.0909
   20BOLB   C2D  478   9.298  15.221  19.906 -0.3069  0.1095 -0.2431
   20BOLB   C3D  479   8.856  15.490  19.991 -0.1757  0.0126 -0.0218
   20BOLB   C4D  480   8.596  15.679  20.243  0.0369 -0.0017  0.0699
   21BOLB   NC1  481   5.454  22.776  18.478  0.1204 -0.0962  0.0407
   21BOLB   PO1  482   4.986  22.828  18.440 -0.3105  0.2070 -0.3287
   21BOLB   GL1  483   4.757  22.953  18.798 -0.2800 -0.3545  0.2810
   21BOLB   GL2  484   4.461  22.740  18.838 -0.0303  0.0480  0.1848
   21BOLB   C1A  485   4.727  22.842  19.276  0.1839  0.4094 -0.1758
   21BOLB   C2A  486   4.504  23.062  19.554  0.0563  0.2760 -0.0049
   21BOLB   C3A  487   4.476  23.006  20.043 -0.3482 -0.0293 -0.2296
   21BOLB   C4A  488   4.681  23.275  20.453  0.1619  0.0277  0.4394
   21BOLB   C1B  489   4.294  22.552  19.172 -0.1398  0.0952  0.0135
   21BOLB   C2B  490   4.373  22.535  19.619  0.0200  0.1998  0.0870
   21BOLB   C3B  491   4.148  22.401  20.028  0.0619 -0.0471  0.1168
   21BOLB   C4B  492   3.751  22.396  20.302 -0.0716 -0.1981  0.0447
   21BOLB   NC2  493   6.426  24.135  22.644 -0.0862  0.4398 -0.2531
   21BOLB   PO2  494   6.194  23.900  22.362  0.2173 -0.1620  0.5420
   21BOLB   GL3  495   5.988  23.883  21.964 -0.3600  0.0404  0.0319
   21BOLB   GL4  496   6.053  24.196  21.825  0.1990  0.2450  0.0734
   21BOLB   C1C  497   5.666  23.697  21.680  0.1556 -0.0677  0.0875
   21BOLB   C2C  498   5.260  23.661  21.437 -0.2711 -0.1667  0.0067
   21BOLB   C3C  499   4.984  23.709  21.121  0.1326 -0.0900  0.2354
   21BOLB   C4C  500   4.946  23.559  20.733 -0.0865 -0.1969 -0.1887
   21BOLB   C1D  501   5.969  24.040  21.491  0.1112 -0.0283  0.0955
   21BOLB   C2D  502   5.914  23.743  21.200  0.2498  0.3741 -0.1059
   21BOLB   C3D  503   5.648  23.496  21.120  0.1018  0.0511  0.1258
   21BOLB   C4D  504   5.389  23.405  20.860  0.0906  0.1840 -0.1716
   22BOLB   NC1  505   0.022  26.027   1.180 -0.0157 -0.0314 -0.0097
   22BOLB   PO1  506  -0.029  25.590   1.301 -0.0401 -0.3283  0.1325
   22BOLB   GL1  507   0.106  25.233   1.416 -0.0563  0.0252  0.0383
   22BOLB   GL2  508   0.145  25.322   1.682  0.0016 -0.0565 -0.3213
   22BOLB   C1A  509   0.369  24.870   1.467 -0.1148 -0.2302  0.1730
   22BOLB   C2A  510   0.763  24.574   1.559 -0.0557  0.2691 -0.1086
   22BOLB   C3A  511   1.131  24.428   1.348  0.0200 -0.3859  0.0924
   22BOLB   C4A  512   1.427  24.118   1.371  0.2938  0.2309  0.2912
   22BOLB   C1B  513   0.334  25.363   2.052 -0.0866  0.4355 -0.0253
   22BOLB   C2B  514   0.490  25.037   2.335 -0.2626  0.1938 -0.1490
   22BOLB   C3B  515   0.413  24.693   2.494  0.3182  0.0004 -0.0444
   22BOLB   C4B  516   0.461  24.619   2.965 -0.0044 -0.1356  0.1314
   22BOLB   NC2  517   1.747  23.867  -0.581 -0.1413 -0.1836 -0.0205
   22BOLB   PO2  518   1.660  24.290  -0.566 -0.1096 -0.1357  0.0213
   22BOLB   GL3  519   1.804  24.327  -0.139  0.1733  0.1286 -0.2777
   22BOLB   GL4  520   2.076  24.571  -0.100  0.0402  0.0357  0.1310
   22BOLB   C1C  521   1.874  24.138   0.281  0.1765 -0.3128  0.2450
   22BOLB   C2C  522   1.953  23.708   0.462  0.0147  0.0046 -0.2098
   22BOLB   C3C  523   1.952  23.610   0.914  0.3101 -0.2764  0.0952
   22BOLB   C4C  524   1.560  23.685   1.144 -0.0191 -0.1103 -0.0535
   22BOLB   C1D  525   2.331  24.788   0.165 -0.0785 -0.1810  0.2496
   22BOLB   C2D  526   2.343  25.019   0.602 -0.0596 -0.1169 -0.1406
   22BOLB   C3D  527   2.404  25.165   0.984 -0.2862  0.1487  0.1240
   22BOLB   C4D  528   2.620  25.453   1.062 -0.0052 -0.3067  0.1177
   23BOLB   NC1  529   1.827  19.681   6.309  0.0937 -0.2544  0.1702
   23BOLB   PO1  530   1.331  19.919   6.481  0.1442 -0.0236 -0.0913
   23BOLB   GL1  531   0.894  19.858   6.391  0.2130  0.0998  0.1845
   23BOLB   GL2  532   0.590  20.078   6.672 -0.1412  0.0788 -0.1870
   23BOLB   C1A  533   0.798  19.415   6.371  0.2684  0.2426  0.1776
   23BOLB   C2A  534   0.796  19.107   6.029  0.1118  0.2353 -0.3729
   23BOLB   C3A  535   0.875  18.627   5.980  0.2031 -0.0886 -0.1289
   23BOLB   C4A  536   0.892  18.267   6.257  0.3912 -0.0916 -0.0954
   23BOLB   C1B  537   0.231  19.979   6.490 -0.1599  0.0667 -0.3047
   23BOLB   C2B  538  -0.087  19.515   6.429 -0.1638  0.0220  0.1591
   23BOLB   C3B  539  -0.008  18.997   6.372 -0.0111  0.0120 -0.1366
   23BOLB   C4B  540   0.039  18.534   6.214  0.2209 -0.1010  0.1498
   23BOLB   NC2  541   3.078  17.260   6.744  0.1155 -0.0198 -0.0242
   23BOLB   PO2  542   2.916  17.638   6.460  0.1607 -0.0545 -0.1168
   23BOLB   GL3  543   2.574  17.420   6.597 -0.3764  0.0841  0.1762
   23BOLB   GL4  544   2.554  17.156   6.595 -0.4121 -0.1869 -0.2802
   23BOLB   C1C  545   2.199  17.550   6.450  0.0336  0.1843 -0.1463
   23BOLB   C2C  546   1.749  17.493   6.445  0.0654  0.1938 -0.0172
   23BOLB   C3C  547   1.361  17.666   6.335  0.0498 -0.2116 -0.0289
   23BOLB   C4C  548   1.170  17.968   6.442  0.0079  0.1772 -0.0963
   23BOLB   C1D  549   2.464  16.899   6.295 -0.3258 -0.0509 -0.3102
   23BOLB   C2D  550   2.047  16.619   6.241  0.0659  0.2039  0.1513
   23BOLB   C3D  551   1.728  16.884   6.099  0.1734  0.2542  0.0545
   23BOLB   C4D  552   1.542  17.327   5.948  0.0536 -0.0711  0.0662
   24BOLB   NC1  553  33.291  26.860  10.940  0.0640  0.0509  0.1534
   24BOLB   PO1  554  33.357  26.641  11.401  0.4123 -0.1040  0.2883
   24BOLB   GL1  555  33.698  26.448  11.223 -0.3246  0.0164  0.2764
   24BOLB   GL2  556  33.679  26.501  10.906 -0.1944 -0.1996 -0.3342
   24BOLB   C1A  557  34.053  26.325  11.112 -0.0806  0.2040  0.0360
   24BOLB   C2A  558  34.328  26.044  11.091 -0.0182  0.0973  0.2555
   24BOLB   C3A  559  34.528  25.642  10.993  0.0149  0.0716 -0.0802
   24BOLB   C4A  560  34.843  25.482  10.794 -0.1977 -0.0099  0.1442
   24BOLB   C1B  561  33.924  26.190  10.661 -0.0077 -0.1316 -0.2624
   24BOLB   C2B  562  34.210  25.839  10.624  0.0015  0.1443  0.1288
   24BOLB   C3B  563  34.061  25.395  10.504 -0.1486 -0.0065  0.2789
   24BOLB   C4B  564  34.045  24.920  10.534 -0.1687  0.1173 -0.5180
   24BOLB   NC2  565  33.871  27.361   9.561 -0.0907  0.4627  0.1251
   24BOLB   PO2  566  33.813  27.224   9.959  0.0019 -0.0030 -0.1374
   24BOLB   GL3  567  33.995  26.878  10.263 -0.3609  0.2082 -0.1350
   24BOLB   GL4  568  33.818  26.670  10.305 -0.2148 -0.1370 -0.1495
   24BOLB   C1C  569  34.438  26.713  10.110 -0.2398 -0.0373 -0.2039
   24BOLB   C2C  570  34.857  26.400  10.086 -0.3199 -0.0312  0.3254
   24BOLB   C3C  571  34.979  25.906  10.183 -0.2862  0.0837 -0.3092
   24BOLB   C4C  572  34.893  25.515  10.387 -0.0923 -0.1436 -0.2183
   24BOLB   C1D  573  34.041  26.432  10.033 -0.2281 -0.0576  0.0230
   24BOLB   C2D  574  34.385  26.219  10.233  0.0225 -0.1766  0.2479
   24BOLB   C3D  575  34.456  25.725  10.123 -0.1956  0.0370 -0.0384
   24BOLB   C4D  576  34.606  25.377  10.038  0.2868  0.4122  0.1139
   25BOLB   NC1  577  10.039  25.311   4.752  0.1402  0.0869 -0.1911
   25BOLB   PO1  578  10.332  25.202   4.578 -0.1492  0.0043  0.0509
   25BOLB   GL1  579  10.257  25.690   4.483 -0.1761 -0.0766 -0.2168
   25BOLB   GL2  580  10.056  25.508   4.295  0.1692 -0.3441  0.0405
   25BOLB   C1A  581  10.250  25.962   4.196 -0.0331  0.0363 -0.0486
   25BOLB   C2A  582  10.315  26.148   3.783  0.2578  0.2801 -0.0327
   25BOLB   C3A  583  10.284  26.430   3.480  0.2399 -0.2070  0.0277
   25BOLB   C4A  584  10.044  26.596   3.101 -0.0514  0.0425 -0.3227
   25BOLB   C1B  585   9.858  25.764   3.859  0.0907 -0.1456  0.1583
   25BOLB   C2B  586   9.794  25.929   3.475  0.2549  0.4912  0.0835
   25BOLB   C3B  587   9.796  26.151   3.149 -0.0107 -0.0706  0.0232
   25BOLB   C4B  588   9.537  26.513   2.936  0.4589 -0.1701  0.3220
   25BOLB   NC2  589  10.503  28.381   1.068 -0.1186  0.5411 -0.1305
   25BOLB   PO2  590  10.336  27.939   0.780  0.0337  0.2960  0.1128
   25BOLB   GL3  591  10.354  27.656   1.120  0.0896 -0.0443  0.0006
   25BOLB   GL4  592  10.059  27.611   1.179  0.2921 -0.2576 -0.1673
   25BOLB   C1C  593  10.231  27.472   1.595 -0.1477  0.0506 -0.1115
   25BOLB   C2C  594  10.022  27.254   1.894 -0.1323 -0.0188 -0.0959
   25BOLB   C3C  595   9.887  27.046   2.327  0.1546 -0.0850 -0.1918
   25BOLB   C4C  596   9.950  26.795   2.726 -0.1728  0.0834  0.1778
   25BOLB   C1D  597   9.734  27.332   1.489  0.0407  0.1022 -0.1021
   25BOLB   C2D  598   9.446  27.076   1.550  0.1687  0.2156  0.2252
   25BOLB   C3D  599   9.460  27.045   1.860  0.1338  0.1741 -0.2777
   25BOLB   C4D  600   9.526  26.775   2.205  0.4035  0.0302 -0.1133
   26BOLB   NC1  601  33.121  10.824   9.715 -0.2228 -0.0762 -0.0917
   26BOLB   PO1  602  33.242  10.607   9.330  0.1159  0.3867 -0.1379
   26BOLB   GL1  603  33.591  10.911   9.566  0.0733 -0.1529  0.0894
   26BOLB   GL2  604  33.800  10.745   9.719  0.0539  0.2295 -0.0078
   26BOLB   C1A  605  33.888  11.179   9.455  0.1588 -0.1280 -0.0610
   26BOLB   C2A  606  34.069  11.627   9.495 -0.0263 -0.2488  0.0606
   26BOLB   C3A  607  34.430  11.845   9.248 -0.1830  0.0000 -0.0847
   26BOLB   C4A  608  34.317  12.050   8.851 -0.0527  0.1846  0.2854
   26BOLB   C1B  609  33.879  11.109   9.940  0.2412 -0.3275  0.0483
   26BOLB   C2B  610  34.128  11.465   9.955  0.1214 -0.2021 -0.0067
   26BOLB   C3B  611  34.550  11.576  10.268  0.1364 -0.0995 -0.0289
   26BOLB   C4B  612  34.814  11.299  10.528  0.2482  0.1132  0.4213
   26BOLB   NC2  613  32.784  11.449   7.210  0.1476 -0.0600 -0.1667
   26BOLB   PO2  614  33.194  11.498   7.165  0.2628 -0.1981 -0.0919
   26BOLB   GL3  615  33.543  11.695   7.187  0.0218  0.0742  0.2620
   26BOLB   GL4  616  33.437  11.863   6.868  0.3554  0.1794 -0.2046
   26BOLB   C1C  617  33.812  11.905   7.451 -0.1220 -0.1641 -0.2095
   26BOLB   C2C  618  34.161  12.003   7.573 -0.2342  0.0833  0.1091
   26BOLB   C3C  619  34.193  12.146   7.941 -0.2060  0.1425 -0.2186
   26BOLB   C4C  620  34.352  12.097   8.365  0.0986  0.2510 -0.0404
   26BOLB   C1D  621  33.571  12.305   7.155 -0.0807  0.0264 -0.2078
   26BOLB   C2D  622  33.693  12.366   7.578 -0.1884  0.2764 -0.2458
   26BOLB   C3D  623  34.184  12.570   7.651  0.0470  0.3198  0.3872
   26BOLB   C4D  624  34.389  12.991   7.565 -0.2977  0.0047  0.2336
   27BOLB   NC1  625  33.330  11.466   6.649  0.1507 -0.2065  0.2226
   27BOLB   PO1  626  33.395  11.068   6.437 -0.1376 -0.1923 -0.1591
   27BOLB   GL1  627  33.835  11.196   6.598  0.0026 -0.0786  0.4931
   27BOLB   GL2  628  33.854  11.418   6.782  0.0792 -0.0711  0.1461
   27BOLB   C1A  629  34.244  11.192   6.533 -0.0903  0.2203 -0.0950
   27BOLB   C2A  630  34.668  11.420   6.490  0.0758 -0.0017 -0.2787
   27BOLB   C3A  631  34.939  11.522   6.784 -0.0331  0.1399 -0.1704
   27BOLB   C4A  632  35.221  11.282   6.979 -0.1208 -0.2149  0.2975
   27BOLB   C1B  633  34.064  11.626   6.398 -0.4695  0.1730 -0.0075
   27BOLB   C2B  634  34.234  12.084   6.390 -0.0742 -0.1259  0.0280
   27BOLB   C3B  635  34.273  12.302   5.931  0.1342 -0.0050 -0.2144
   27BOLB   C4B  636  34.375  12.064   5.564  0.2040  0.1581 -0.0587
   27BOLB   NC2  637  35.412   9.475   5.489 -0.1971 -0.1963 -0.0079
   27BOLB   PO2  638  35.196   9.384   5.931 -0.2083  0.1563 -0.0974
   27BOLB   GL3  639  35.508   9.682   6.092  0.1321 -0.0749 -0.1101
   27BOLB   GL4  640  35.737   9.464   6.218 -0.0116  0.1709  0.1476
   27BOLB   C1C  641  35.623  10.156   6.090  0.1253 -0.0404 -0.0075
   27BOLB   C2C  642  35.617  10.552   6.290 -0.3617 -0.0782 -0.0740
   27BOLB   C3C  643  35.417  10.736   6.543  0.0715 -0.0314  0.0203
   27BOLB   C4C  644  35.316  10.987   6.902  0.2221  0.2567  0.0635
   27BOLB   C1D  645  35.937   9.811   6.367 -0.0646  0.2099  0.1967
   27BOLB   C2D  646  36.069  10.181   6.469 -0.1322 -0.1866 -0.1288
   27BOLB   C3D  647  36.334  10.435   6.566 -0.0769 -0.3199  0.0883
   27BOLB   C4D  648  36.646  10.571   6.977  0.0592 -0.1578 -0.1191
   28BOLB   NC1  649  33.691  14.171  20.596 -0.0804 -0.1060 -0.1294
   28BOLB   PO1  650  33.500  14.616  20.650 -0.1127  0.3735 -0.1434
   28BOLB   GL1  651  33.757  14.874  20.369 -0.1285  0.3366 -0.3824
   28BOLB   GL2  652  33.665  15.159  20.302 -0.1375  0.0846  0.2271
   28BOLB   C1A  653  34.234  14.838  20.050  0.0301 -0.0634 -0.4716
   28BOLB   C2A  654  34.566  14.946  19.686  0.3372 -0.1712  0.2740
   28BOLB   C3A  655  34.826  14.978  19.356  0.2033  0.1226 -0.0157
   28BOLB   C4A  656  35.019  14.710  19.107  0.1950  0.3097 -0.1650
   28BOLB   C1B  657  34.089  15.286  20.316  0.0137  0.0262  0.1333
   28BOLB   C2B  658  34.593  15.225  20.239 -0.0563 -0.3291  0.0387
   28BOLB   C3B  659  34.851  15.065  20.451  0.1777 -0.0170 -0.0575
   28BOLB   C4B  660  35.215  14.747  20.572 -0.3681 -0.1038  0.0154
   28BOLB   NC2  661  35.901  12.641  20.111  0.0557  0.0675  0.2433
   28BOLB   PO2  662  35.609  12.844  20.284  0.0828  0.1129 -0.0170
   28BOLB   GL3  663  35.666  13.181  19.897 -0.2609 -0.0850  0.1527
   28BOLB   GL4  664  36.007  13.138  19.867 -0.1964  0.0542 -0.1659
   28BOLB   C1C  665  35.615  13.627  19.776  0.0597 -0.1970  0.0503
   28BOLB   C2C  666  35.600  13.961  19.504 -0.1098  0.1540 -0.2567
   28BOLB   C3C  667  35.481  13.971  19.167  0.3431  0.3395  0.0841
   28BOLB   C4C  668  35.164  14.286  19.135 -0.0795  0.3112  0.2013
   28BOLB   C1D  669  36.126  13.549  19.581 -0.0308  0.0946 -0.0593
   28BOLB   C2D  670  35.860  13.659  19.182  0.0955  0.3408 -0.1166
   28BOLB   C3D  671  35.777  13.449  18.868 -0.0518  0.2227  0.0445
   28BOLB   C4D  672  35.911  13.132  18.555 -0.0385 -0.0020 -0.0919
   29BOLB   NC1  673   4.680  28.806  10.185  0.2488 -0.0976 -0.4164
   29BOLB   PO1  674   4.562  29.019   9.859 -0.0905 -0.2236 -0.1293
   29BOLB   GL1  675   4.310  29.313  10.013 -0.1527 -0.0234  0.0644
   29BOLB   GL2  676   4.343  29.540  10.280 -0.0633 -0.1490  0.2110
   29BOLB   C1A  677   3.987  29.543   9.857 -0.1534  0.0841 -0.0663
   29BOLB   C2A  678   3.651  29.886   9.947 -0.2360 -0.1111 -0.1661
   29BOLB   C3A  679   3.447  30.216   9.915 -0.3278  0.0361 -0.2076
   29BOLB   C4A  680   3.128  30.534   9.785 -0.0350  0.2680 -0.1320
   29BOLB   C1B  681   4.505  29.933  10.266  0.4032 -0.3775  0.0343
   29BOLB   C2B  682   4.778  30.198  10.543  0.0920  0.4347  0.1061
   29BOLB   C3B  683   5.040  30.425  10.428 -0.0281  0.2106 -0.1793
   29BOLB   C4B  684   5.237  30.649  10.076 -0.1326  0.1711 -0.3609
   29BOLB   NC2  685   1.609  32.778  10.093  0.0243  0.1963 -0.0024
   29BOLB   PO2  686   1.779  32.517   9.892  0.2777 -0.1149 -0.2144
   29BOLB   GL3  687   1.987  32.156   9.860  0.1381  0.1163 -0.6246
   29BOLB   GL4  688   2.298  32.208   9.923  0.0249 -0.1681  0.0243
   29BOLB   C1C  689   2.069  31.705   9.683 -0.2141  0.0227 -0.2101
   29BOLB   C2C  690   2.326  31.370   9.678  0.0607 -0.3380  0.0527
   29BOLB   C3C  691   2.640  31.178   9.739  0.0923 -0.0821 -0.2790
   29BOLB   C4C  692   2.820  30.861   9.830 -0.2918 -0.0247 -0.0694
   29BOLB   C1D  693   2.520  31.772   9.899 -0.2213  0.0477  0.1096
   29BOLB   C2D  694   2.727  31.411  10.161  0.1718  0.1026 -0.1377
   29BOLB   C3D  695   2.997  31.406  10.524 -0.0029  0.0697  0.1126
   29BOLB   C4D  696   3.118  31.357  10.916 -0.1653  0.0265  0.4073
   30BOLB   NC1  697  30.630  21.423   3.288 -0.1087  0.1262 -0.2209
   30BOLB   PO1  698  31.009  21.091   3.343  0.0359 -0.1748  0.2459
   30BOLB   GL1  699  31.365  20.944   3.545  0.1987 -0.0133  0.1338
   30BOLB   GL2  700  31.357  20.733   3.856  0.1493 -0.1445 -0.1174
   30BOLB   C1A  701  31.790  20.801   3.509  0.2306 -0.1339  0.0387
   30BOLB   C2A  702  32.105  20.745   3.890  0.1493 -0.3095  0.2131
   30BOLB   C3A  703  32.113  20.846   4.293  0.1340  0.2439 -0.1213
   30BOLB   C4A  704  32.083  21.234   4.428 -0.0953 -0.0590  0.0878
   30BOLB   C1B  705  31.399  20.220   3.906  0.2449 -0.0962  0.1646
   30BOLB   C2B  706  31.704  19.815   4.140 -0.0292  0.1499 -0.1657
   30BOLB   C3B  707  31.900  19.514   4.342  0.1167  0.2493 -0.2011
   30BOLB   C4B  708  31.748  19.118   4.553  0.1251 -0.0221  0.2566
   30BOLB   NC2  709  31.018  22.105   4.075  0.1158 -0.0247  0.2373
   30BOLB   PO2  710  30.632  22.119   4.389 -0.0714 -0.1733 -0.3177
   30BOLB   GL3  711  31.025  22.358   4.518  0.0551 -0.2407  0.0520
   30BOLB   GL4  712  31.107  22.601   4.227 -0.0784  0.3054  0.4665
   30BOLB   C1C  713  31.127  22.159   4.887  0.0915 -0.1464  0.0665
   30BOLB   C2C  714  31.525  21.987   5.054 -0.1449  0.0194  0.2066
   30BOLB   C3C  715  31.948  21.829   4.883  0.3433  0.0354 -0.1597
   30BOLB   C4C  716  31.858  21.421   4.720 -0.0846 -0.1855 -0.1649
   30BOLB   C1D  717  31.324  22.743   4.655  0.4766 -0.0287  0.0924
   30BOLB   C2D  718  31.337  22.945   5.028  0.1465 -0.0065  0.0208
   30BOLB   C3D  719  31.564  22.861   5.458 -0.0154 -0.0131  0.1654
   30BOLB   C4D  720  31.792  22.549   5.523  0.0239 -0.3154 -0.1854
   31BOLB   NC1  721   0.310  22.511  11.221  0.0552  0.0305  0.5159
   31BOLB   PO1  722   0.042  22.172  11.169 -0.1756  0.0346  0.0820
   31BOLB   GL1  723  -0.345  22.122  10.920 -0.2391 -0.0447 -0.0196
   31BOLB   GL2  724  -0.633  21.928  11.054  0.1099 -0.3816  0.1771
   31BOLB   C1A  725  -0.674  22.398  10.687 -0.3636 -0.0110 -0.3649
   31BOLB   C2A  726  -0.664  22.432  10.329 -0.1301  0.2086 -0.1011
   31BOLB   C3A  727  -0.862  22.599   9.945 -0.1111 -0.1835  0.1095
   31BOLB   C4A  728  -1.080  22.468   9.603  0.0339  0.1675 -0.0536
   31BOLB   C1B  729  -1.056  21.882  10.922 -0.0479  0.2419 -0.0256
   31BOLB   C2B  730  -1.539  21.956  10.875 -0.2522  0.0785 -0.4475
   31BOLB   C3B  731  -1.788  22.337  10.961 -0.0241 -0.0439  0.0449
   31BOLB   C4B  732  -2.151  22.350  11.144 -0.2805 -0.0366  0.1310
   31BOLB   NC2  733   0.690  21.338   8.782 -0.1814 -0.1901  0.1274
   31BOLB   PO2  734   0.488  21.246   9.183 -0.3880  0.1497 -0.3456
   31BOLB   GL3  735   0.153  21.307   8.837  0.0287  0.1231 -0.0667
   31BOLB   GL4  736  -0.126  21.107   8.685  0.2211  0.0665  0.1796
   31BOLB   C1C  737  -0.251  21.537   8.771  0.0498 -0.1021 -0.0224
   31BOLB   C2C  738  -0.591  21.843   8.910 -0.2238  0.0910  0.0137
   31BOLB   C3C  739  -0.924  22.032   9.100 -0.3753 -0.2215  0.2612
   31BOLB   C4C  740  -1.274  22.249   9.286 -0.1718 -0.2206  0.0760
   31BOLB   C1D  741  -0.272  20.803   8.407  0.1698  0.2219 -0.0739
   31BOLB   C2D  742  -0.560  20.545   8.309 -0.3174  0.2193 -0.0838
   31BOLB   C3D  743  -0.920  20.502   8.518  0.1925 -0.0156  0.1164
   31BOLB   C4D  744  -0.991  20.581   8.904 -0.2206  0.1175  0.3043
   32BOLB   NC1  745  36.931  30.141  10.843  0.2261  0.1234  0.0760
   32BOLB   PO1  746  37.039  30.151  11.263  0.0151 -0.0890 -0.0947
   32BOLB   GL1  747  37.433  29.933  11.011  0.1225  0.0433  0.0157
   32BOLB   GL2  748  37.527  30.087  10.654 -0.1629  0.1251 -0.0353
   32BOLB   C1A  749  37.716  29.506  10.834 -0.0923 -0.0621 -0.1112
   32BOLB   C2A  750  37.459  29.171  10.891  0.1986  0.0077 -0.0516
   32BOLB   C3A  751  37.253  28.841  11.055  0.0347  0.1558 -0.2646
   32BOLB   C4A  752  37.273  28.534  11.432 -0.1466 -0.0449  0.0512
   32BOLB   C1B  753  37.843  29.920  10.493 -0.2561 -0.1525  0.1899
   32BOLB   C2B  754  38.185  30.122  10.250  0.3881 -0.0379  0.1709
   32BOLB   C3B  755  38.477  30.223  10.023  0.2227  0.0576 -0.0562
   32BOLB   C4B  756  38.833  30.107   9.711 -0.2629  0.3449  0.1890
   32BOLB   NC2  757  36.451  29.598  12.668 -0.0113 -0.1732  0.0244
   32BOLB   PO2  758  36.382  29.259  12.927  0.1809 -0.2073  0.0378
   32BOLB   GL3  759  36.585  29.019  12.519  0.0883  0.1444  0.1164
   32BOLB   GL4  760  36.399  28.857  12.276  0.0880 -0.0688 -0.0344
   32BOLB   C1C  761  36.850  28.808  12.377  0.2649  0.0090  0.1297
   32BOLB   C2C  762  36.904  28.315  12.304  0.1125 -0.1339  0.2500
   32BOLB   C3C  763  37.121  28.037  12.028  0.0837 -0.1645  0.0517
   32BOLB   C4C  764  37.301  28.219  11.771  0.2235  0.1568 -0.3724
   32BOLB   C1D  765  36.416  28.551  12.614  0.1186 -0.1275  0.1275
   32BOLB   C2D  766  36.614  28.150  12.688  0.1877 -0.2866  0.0455
   32BOLB   C3D  767  36.773  27.748  12.630  0.0248 -0.0145 -0.1009
   32BOLB   C4D  768  37.074  27.411  12.838  0.0445 -0.0452 -0.2359
   33BOLB   NC1  769  11.713  27.859  20.019  0.5172  0.0739  0.0335
   33BOLB   PO1  770  11.899  27.412  20.198  0.2513 -0.2411 -0.2460
   33BOLB   GL1  771  11.860  27.052  20.060  0.1322  0.1092 -0.0853
   33BOLB   GL2  772  12.077  26.855  19.984  0.0867 -0.0977  0.3739
   33BOLB   C1A  773  11.455  26.952  19.896  0.0319  0.0418 -0.0976
   33BOLB   C2A  774  11.305  26.686  19.551 -0.1571 -0.0255  0.0555
   33BOLB   C3A  775  11.090  26.269  19.632  0.1359 -0.0964  0.0050
   33BOLB   C4A  776  10.722  26.076  19.564 -0.2151  0.0709 -0.2351
   33BOLB   C1B  777  11.819  26.692  19.671 -0.0871 -0.3868 -0.0007
   33BOLB   C2B  778  12.004  26.352  19.661  0.0807  0.0887  0.4282
   33BOLB   C3B  779  12.038  25.939  19.382 -0.1276 -0.1799  0.3270
   33BOLB   C4B  780  12.172  25.550  19.146 -0.3486 -0.1473  0.1164
   33BOLB   NC2  781   9.808  27.407  21.020 -0.0223  0.1161 -0.0612
   33BOLB   PO2  782  10.168  27.292  20.978  0.2179  0.0329 -0.2227
   33BOLB   GL3  783  10.182  26.999  20.696  0.0363 -0.2224 -0.1822
   33BOLB   GL4  784  10.441  26.989  20.384 -0.0786  0.1420  0.0709
   33BOLB   C1C  785   9.925  26.683  20.520  0.3330 -0.2591  0.2076
   33BOLB   C2C  786   9.910  26.308  20.254  0.1936 -0.0560  0.0856
   33BOLB   C3C  787  10.178  26.076  19.899 -0.0001  0.0851 -0.0537
   33BOLB   C4C  788  10.475  25.815  19.687  0.0789  0.2608 -0.0091
   33BOLB   C1D  789  10.433  26.604  20.068  0.3622  0.0252  0.0103
   33BOLB   C2D  790  10.674  26.307  19.974 -0.0920 -0.1448  0.1383
   33BOLB   C3D  791  10.930  25.900  20.045  0.1323 -0.2560  0.1120
   33BOLB   C4D  792  11.072  25.611  20.355 -0.2049 -0.0833  0.3494
   34BOLB   NC1  793  32.186  15.656   3.198  0.2337  0.1271 -0.1563
   34BOLB   PO1  794  32.553  15.617   3.037  0.1121 -0.2655  0.1296
   34BOLB   GL1  795  32.525  16.007   3.300 -0.2669  0.0611  0.2129
   34BOLB   GL2  796  32.640  15.780   3.555 -0.0704  0.2672  0.0791
   34BOLB   C1A  797  32.781  16.380   3.482  0.0460 -0.0146  0.0301
   34BOLB   C2A  798  33.228  16.516   3.622 -0.0658  0.0248  0.0191
   34BOLB   C3A  799  33.610  16.687   3.568  0.2872 -0.3338 -0.2805
   34BOLB   C4A  800  33.835  17.019   3.375  0.0365 -0.0473  0.4529
   34BOLB   C1B  801  32.748  16.058   3.848  0.0460 -0.0817 -0.1700
   34BOLB   C2B  802  32.960  16.379   4.042  0.0164 -0.0540 -0.1458
   34BOLB   C3B  803  33.194  16.504   4.371 -0.1290  0.0415 -0.2143
   34BOLB   C4B  804  33.657  16.399   4.417  0.4383  0.0503 -0.0725
   34BOLB   NC2  805  32.827  18.408   1.249  0.1047  0.1838 -0.0370
   34BOLB   PO2  806  32.627  18.259   1.499 -0.1393 -0.1513 -0.1553
   34BOLB   GL3  807  33.035  18.003   1.658  0.0106  0.1324  0.1459
   34BOLB   GL4  808  32.973  17.667   1.648 -0.0680 -0.3096  0.2382
   34BOLB   C1C  809  33.497  17.864   1.897 -0.0785 -0.0712  0.1506
   34BOLB   C2C  810  33.580  17.610   2.153  0.2253 -0.3089 -0.1250
   34BOLB   C3C  811  33.749  17.312   2.548 -0.0184 -0.0051  0.2416
   34BOLB   C4C  812  33.884  17.326   2.969  0.0885 -0.3221 -0.0091
   34BOLB   C1D  813  33.094  17.649   2.049  0.0907 -0.0176  0.1965
   34BOLB   C2D  814  33.161  17.462   2.377  0.0947 -0.0160 -0.1724
   34BOLB   C3D  815  33.420  17.643   2.744 -0.4068 -0.0497 -0.0083
   34BOLB   C4D  816  33.676  17.707   3.123  0.0145  0.1175 -0.1297
   35BOLB   NC1  817  32.621  15.008  19.397  0.3263 -0.0119 -0.0266
   35BOLB   PO1  818  32.580  15.426  19.301  0.0946  0.1113 -0.0346
   35BOLB   GL1  819  32.828  15.697  19.128 -0.0929 -0.2136 -0.2109
   35BOLB   GL2  820  32.924  15.738  18.835  0.0624  0.1083 -0.0676
   35BOLB   C1A  821  33.280  15.762  19.233  0.3257 -0.2732 -0.0915
   35BOLB   C2A  822  33.592  15.690  19.526  0.1446  0.3295  0.1713
   35BOLB   C3A  823  33.933  15.585  19.445 -0.1582 -0.0974 -0.1354
   35BOLB   C4A  824  34.321  15.722  19.496 -0.0688  0.3691 -0.0287
   35BOLB   C1B  825  32.623  15.521  18.639  0.0384 -0.1694 -0.3616
   35BOLB   C2B  826  32.435  15.685  18.203 -0.2840 -0.0507 -0.1132
   35BOLB   C3B  827  32.676  15.801  17.801  0.0225  0.1622 -0.1035
   35BOLB   C4B  828  33.082  15.601  17.485  0.0253 -0.0341 -0.2097
   35BOLB   NC2  829  35.168  17.375  21.091 -0.1198  0.1550 -0.0206
   35BOLB   PO2  830  34.988  17.386  20.667 -0.0026 -0.0032 -0.0468
   35BOLB   GL3  831  34.739  17.091  20.554 -0.0675 -0.1557 -0.1032
   35BOLB   GL4  832  34.443  17.291  20.492 -0.3365  0.0125 -0.3335
   35BOLB   C1C  833  34.848  16.729  20.270 -0.0333  0.1790 -0.1260
   35BOLB   C2C  834  34.715  16.382  20.099 -0.2476 -0.0499  0.1885
   35BOLB   C3C  835  34.564  16.286  19.723 -0.0939  0.3136 -0.0676
   35BOLB   C4C  836  34.556  15.932  19.528  0.1913  0.0206 -0.0903
   35BOLB   C1D  837  34.687  17.283  20.089  0.1149  0.2065 -0.0936
   35BOLB   C2D  838  34.685  16.970  19.862 -0.0092  0.1802  0.1838
   35BOLB   C3D  839  34.789  16.752  19.613 -0.0649  0.0503 -0.0391
   35BOLB   C4D  840  34.803  16.823  19.101  0.2607  0.1913 -0.5112
   36BOLB   NC1  841   9.363  15.317  13.422  0.0776  0.1052  0.0532
   36BOLB   PO1  842   9.699  15.002  13.660  0.1376  0.2508  0.2949
   36BOLB   GL1  843   9.894  14.676  13.832  0.3190  0.2894  0.0720
   36BOLB   GL2  844  10.035  14.472  13.663  0.2120 -0.0549 -0.0682
   36BOLB   C1A  845  10.075  14.389  14.205 -0.0783  0.1093 -0.2793
   36BOLB   C2A  846  10.191  14.113  14.548  0.1092  0.1941  0.3602
   36BOLB   C3A  847   9.954  13.941  14.852 -0.1160  0.1506 -0.4948
   36BOLB   C4A  848   9.883  13.920  15.365  0.2125 -0.0062  0.2656
   36BOLB   C1B  849  10.102  13.979  13.725 -0.0024  0.3045 -0.0822
   36BOLB   C2B  850  10.168  13.777  14.106  0.1420  0.1609 -0.2395
   36BOLB   C3B  851  10.333  13.399  14.186  0.2679  0.0565 -0.3993
   36BOLB   C4B  852  10.880  13.375  14.190  0.2329 -0.0288 -0.3546
   36BOLB   NC2  853  10.183  12.687  17.635 -0.3266  0.0860  0.3898
   36BOLB   PO2  854  10.650  12.583  17.445 -0.3206 -0.3205 -0.2148
   36BOLB   GL3  855  10.409  12.931  17.188 -0.0746  0.3332 -0.2208
   36BOLB   GL4  856  10.525  13.258  17.090 -0.0911  0.0968 -0.0778
   36BOLB   C1C  857  10.232  12.954  16.785  0.1283 -0.0023 -0.1089
   36BOLB   C2C  858  10.249  13.301  16.480 -0.0113 -0.1640  0.1248
   36BOLB   C3C  859  10.127  13.721  16.195  0.0008  0.3251  0.2518
   36BOLB   C4C  860  10.070  13.748  15.773 -0.0492  0.3685  0.0995
   36BOLB   C1D  861  10.765  13.378  16.677  0.0694  0.1434  0.0719
   36BOLB   C2D  862  11.077  13.726  16.710  0.0002  0.1370 -0.0900
   36BOLB   C3D  863  11.194  14.009  16.396 -0.2392  0.0046 -0.2176
   36BOLB   C4D  864  10.941  14.336  16.146  0.1279  0.0663  0.1711
   37BOLB   NC1  865   6.009  27.981  20.794  0.2630  0.1054  0.1082
   37BOLB   PO1  866   5.936  28.208  20.516  0.0664  0.1516 -0.2602
   37BOLB   GL1  867   6.231  27.937  20.375 -0.3998 -0.0726  0.2760
   37BOLB   GL2  868   6.069  27.587  20.472  0.1658  0.1463 -0.0889
   37BOLB   C1A  869   6.515  27.649  20.215  0.0885  0.0535  0.0759
   37BOLB   C2A  870   6.685  27.673  19.811 -0.0542  0.1122  0.2226
   37BOLB   C3A  871   7.090  27.578  19.624 -0.2572 -0.1465 -0.0296
   37BOLB   C4A  872   7.508  27.856  19.403  0.1236 -0.2679  0.1929
   37BOLB   C1B  873   5.975  27.415  20.113  0.0597  0.0325 -0.3546
   37BOLB   C2B  874   6.134  27.522  19.803  0.0582 -0.0771  0.2908
   37BOLB   C3B  875   6.412  27.372  19.542  0.0976  0.2931 -0.1921
   37BOLB   C4B  876   6.683  27.447  19.186 -0.0857 -0.1375 -0.3919
   37BOLB   NC2  877   9.079  28.320  21.101 -0.0756 -0.2416  0.1163
   37BOLB   PO2  878   8.899  28.465  20.676  0.1980  0.0294  0.1714
   37BOLB   GL3  879   8.957  28.007  20.454  0.0522 -0.1789 -0.2704
   37BOLB   GL4  880   9.052  27.672  20.511 -0.0480  0.0570  0.2676
   37BOLB   C1C  881   8.992  27.940  20.027 -0.1410 -0.1928 -0.2006
   37BOLB   C2C  882   8.740  28.080  19.768 -0.6648 -0.2170 -0.0571
   37BOLB   C3C  883   8.422  27.879  19.625 -0.2075 -0.3224  0.0986
   37BOLB   C4C  884   7.924  27.905  19.685 -0.0957  0.1738  0.0248
   37BOLB   C1D  885   9.012  27.436  20.148  0.2903 -0.5665  0.0084
   37BOLB   C2D  886   9.163  27.336  19.696  0.2956  0.3811 -0.3221
   37BOLB   C3D  887   8.975  27.147  19.280 -0.0516 -0.0948 -0.1765
   37BOLB   C4D  888   8.605  27.223  19.075 -0.0981 -0.1093 -0.1424
   38BOLB   NC1  889  32.887  18.925   0.815  0.0330 -0.1797 -0.0106
   38BOLB   PO1  890  33.212  19.167   0.784  0.1001 -0.1423  0.0587
   38BOLB   GL1  891  33.209  19.173   1.186 -0.1528  0.2291  0.1478
   38BOLB   GL2  892  33.107  18.864   1.314 -0.0526  0.0283 -0.1943
   38BOLB   C1A  893  33.406  19.413   1.550 -0.1148  0.2352  0.0863
   38BOLB   C2A  894  33.620  19.657   1.817  0.2795  0.2852 -0.1180
   38BOLB   C3A  895  33.668  19.520   2.146 -0.0683 -0.1070 -0.3404
   38BOLB   C4A  896  33.427  19.216   2.555 -0.0811  0.1706 -0.1025
   38BOLB   C1B  897  33.246  18.967   1.717 -0.1901 -0.2251 -0.0095
   38BOLB   C2B  898  33.481  18.875   2.164  0.0141  0.1985  0.1097
   38BOLB   C3B  899  33.620  18.448   2.421 -0.1375 -0.2499 -0.2199
   38BOLB   C4B  900  33.531  18.073   2.387 -0.1452 -0.1832 -0.1449
   38BOLB   NC2  901  31.248  17.752   3.302 -0.2455 -0.2843 -0.0024
   38BOLB   PO2  902  31.411  17.980   3.007  0.2185  0.0274  0.2253
   38BOLB   GL3  903  31.591  18.312   2.913  0.2500 -0.0005 -0.5034
   38BOLB   GL4  904  31.631  18.450   3.158  0.2255  0.2988 -0.0698
   38BOLB   C1C  905  32.117  18.493   3.065  0.4009  0.3306  0.3793
   38BOLB   C2C  906  32.407  18.652   2.884  0.1483 -0.1217  0.2153
   38BOLB   C3C  907  32.770  18.713   2.723  0.1113 -0.0458 -0.1198
   38BOLB   C4C  908  33.171  18.785   2.637 -0.0388  0.2073  0.2554
   38BOLB   C1D  909  31.934  18.264   3.579  0.0080  0.1480  0.1682
   38BOLB   C2D  910  32.294  18.045   3.855 -0.1640 -0.3503 -0.0400
   38BOLB   C3D  911  32.761  18.213   3.951 -0.1222  0.1949  0.3701
   38BOLB   C4D  912  33.206  18.378   3.992 -0.2163  0.0642  0.0548
   39BOLB   NC1  913   1.250  25.143  15.163  0.0826  0.2231  0.0107
   39BOLB   PO1  914   1.123  24.712  15.250 -0.0925 -0.2211 -0.1503
   39BOLB   GL1  915   0.702  24.943  15.436 -0.1030  0.0374  0.2429
   39BOLB   GL2  916   0.603  24.962  15.128 -0.3626 -0.3463  0.0109
   39BOLB   C1A  917   0.443  25.084  15.791 -0.2190 -0.1565 -0.1531
   39BOLB   C2A  918   0.308  25.347  15.989  0.1371 -0.2501 -0.0509
   39BOLB   C3A  919   0.286  25.523  16.251  0.2597 -0.0785 -0.0197
   39BOLB   C4A  920   0.208  25.721  16.587  0.2586 -0.0477 -0.0943
   39BOLB   C1B  921   0.345  25.298  15.044 -0.1521 -0.0368 -0.3266
   39BOLB   C2B  922  -0.057  25.390  14.973 -0.0280 -0.0026  0.1187
   39BOLB   C3B  923  -0.395  25.700  15.069  0.1267 -0.2922  0.4331
   39BOLB   C4B  924  -0.685  25.968  15.132 -0.1465  0.0818 -0.0524
   39BOLB   NC2  925  -0.170  27.670  18.612  0.3183 -0.1198 -0.1435
   39BOLB   PO2  926   0.022  27.767  18.153  0.1464  0.4213 -0.5407
   39BOLB   GL3  927   0.087  27.350  17.990  0.0481  0.2227  0.0165
   39BOLB   GL4  928   0.315  27.338  17.873 -0.2827 -0.0406 -0.2165
   39BOLB   C1C  929   0.006  27.184  17.531  0.1875  0.0458  0.3674
   39BOLB   C2C  930   0.003  26.699  17.278  0.1471 -0.1402 -0.0083
   39BOLB   C3C  931   0.017  26.389  16.989 -0.1277  0.0136 -0.2075
   39BOLB   C4C  932   0.125  25.937  17.023 -0.3462  0.0942  0.2920
   39BOLB   C1D  933   0.811  27.155  17.752  0.1405 -0.1792 -0.4033
   39BOLB   C2D  934   1.199  26.986  17.766  0.1153 -0.2681  0.1841
   39BOLB   C3D  935   1.524  26.732  17.709 -0.0737  0.0214 -0.0712
   39BOLB   C4D  936   1.687  26.488  17.939 -0.2377  0.0218  0.1882
   40BOLB   NC1  937  18.830  19.148  13.413  0.1936 -0.0652  0.1219
   40BOLB   PO1  938  18.726  19.559  13.065  0.0396  0.0518  0.0621
   40BOLB   GL1  939  18.402  19.705  12.966 -0.3090  0.0842  0.2115
   40BOLB   GL2  940  18.332  19.792  12.625  0.0011 -0.0804  0.2468
   40BOLB   C1A  941  17.874  19.811  12.906 -0.1436  0.1663  0.2405
   40BOLB   C2A  942  17.470  20.006  12.878 -0.1759 -0.0329  0.1390
   40BOLB   C3A  943  17.107  20.162  12.779 -0.1566  0.0863 -0.1018
   40BOLB   C4A  944  16.790  20.402  12.832 -0.0160  0.1186 -0.0552
   40BOLB   C1B  945  17.942  19.931  12.405  0.0672 -0.1483  0.0588
   40BOLB   C2B  946  17.590  20.106  12.350 -0.2473 -0.1367 -0.0983
   40BOLB   C3B  947  17.397  20.416  12.415  0.2662 -0.3520 -0.2291
   40BOLB   C4B  948  17.114  20.666  12.544 -0.6741  0.3870  0.0570
   40BOLB   NC2  949  18.400  20.207  14.186  0.2558 -0.3793  0.0149
   40BOLB   PO2  950  18.382  20.600  13.951 -0.4347 -0.2131 -0.4136
   40BOLB   GL3  951  18.013  20.522  14.129 -0.2541 -0.2286  0.0373
   40BOLB   GL4  952  17.766  20.520  14.387  0.2352 -0.0904  0.0139
   40BOLB   C1C  953  17.657  20.491  13.897  0.1294  0.0307  0.2375
   40BOLB   C2C  954  17.209  20.580  13.784 -0.1613  0.0826  0.1303
   40BOLB   C3C  955  16.900  20.682  13.565  0.1119 -0.0893  0.0561
   40BOLB   C4C  956  16.688  20.796  13.117 -0.3070 -0.1490 -0.0937
   40BOLB   C1D  957  17.391  20.631  14.379 -0.0084  0.2586 -0.1038
   40BOLB   C2D  958  17.032  20.821  14.274  0.3573 -0.3227 -0.0340
   40BOLB   C3D  959  16.670  21.029  14.232 -0.0497 -0.0760 -0.1584
   40BOLB   C4D  960  16.385  21.036  13.915  0.3156  0.4129  0.0434
   41BOLB   NC1  961  29.070  18.935  12.825  0.1609  0.6606 -0.1591
   41BOLB   PO1  962  29.082  18.489  12.592 -0.3946 -0.1213  0.0858
   41BOLB   GL1  963  29.503  18.420  12.656  0.0209 -0.3516 -0.1046
   41BOLB   GL2  964  29.637  18.681  12.887 -0.0253 -0.1418  0.2211
   41BOLB   C1A  965  29.757  18.216  12.547 -0.0193  0.0450  0.1633
   41BOLB   C2A  966  30.100  17.945  12.492 -0.2142  0.0249  0.1581
   41BOLB   C3A  967  30.594  17.886  12.731 -0.2680 -0.0253  0.1247
   41BOLB   C4A  968  31.070  17.772  12.851  0.1190  0.0129 -0.3430
   41BOLB   C1B  969  29.929  18.750  12.633 -0.2038  0.0116 -0.0188
   41BOLB   C2B  970  30.338  18.988  12.579 -0.0724  0.3176 -0.2591
   41BOLB   C3B  971  30.679  19.016  12.852 -0.0555 -0.0849 -0.2307
   41BOLB   C4B  972  30.998  18.729  13.056  0.1765 -0.2795 -0.0171
   41BOLB   NC2  973  29.492  16.881  14.090 -0.1292 -0.0068  0.0336
   41BOLB   PO2  974  29.643  17.062  13.692  0.1619 -0.0927  0.0369
   41BOLB   GL3  975  29.966  17.209  13.692 -0.2048 -0.0633 -0.2100
   41BOLB   GL4  976  29.953  17.473  13.457 -0.1432 -0.0098 -0.1484
   41BOLB   C1C  977  30.381  17.250  13.748  0.0107  0.1472 -0.0592
   41BOLB   C2C  978  30.804  17.218  13.581 -0.0557 -0.0245  0.0753
   41BOLB   C3C  979  31.197  17.189  13.356 -0.0111  0.0755  0.1623
   41BOLB   C4C  980  31.285  17.534  13.121 -0.4053  0.1675 -0.0287
   41BOLB   C1D  981  30.246  17.743  13.182  0.2486  0.5105  0.0727
   41BOLB   C2D  982  30.327  18.238  13.254 -0.1161 -0.0771 -0.1764
   41BOLB   C3D  983  30.284  18.441  13.654 -0.2138 -0.2141  0.2235
   41BOLB   C4D  984  30.025  18.775  13.896  0.1155 -0.1888 -0.0152
   42BOLB   NC1  985   6.635  21.292  18.212 -0.4657 -0.3431 -0.1409
   42BOLB   PO1  986   6.805  21.374  18.581 -0.2611  0.3796 -0.1785
   42BOLB   GL1  987   6.857  21.741  18.907 -0.1058 -0.1636  0.3882
   42BOLB   GL2  988   6.545  21.936  18.956 -0.1583 -0.2814 -0.1883
   42BOLB   C1A  989   6.933  21.950  19.319 -0.0597  0.3546 -0.2242
   42BOLB   C2A  990   6.720  21.974  19.735 -0.3109  0.1505  0.1208
   42BOLB   C3A  991   6.905  22.005  20.011  0.2392 -0.0786 -0.2355
   42BOLB   C4A  992   7.084  22.270  20.313  0.2361 -0.0889 -0.0874
   42BOLB   C1B  993   6.439  22.286  19.289  0.3699 -0.0135 -0.3372
   42BOLB   C2B  994   6.613  22.496  19.516  0.2811 -0.0189  0.1132
   42BOLB   C3B  995   6.625  22.480  19.982 -0.1944  0.2696  0.1366
   42BOLB   C4B  996   6.324  22.257  20.188  0.3404  0.1273 -0.1180
   42BOLB   NC2  997   7.034  22.458  22.700  0.2534  0.0788 -0.2948
   42BOLB   PO2  998   7.010  22.836  22.505  0.1346  0.1649 -0.0197
   42BOLB   GL3  999   7.071  22.641  22.145 -0.0932  0.1510  0.0593
   42BOLB   GL4 1000   7.214  22.380  22.108  0.2420 -0.2990 -0.2594
   42BOLB   C1C 1001   7.188  22.717  21.736  0.1798  0.1230  0.1929
   42BOLB   C2C 1002   6.936  22.817  21.343  0.0833 -0.0425 -0.4195
   42BOLB   C3C 1003   6.801  22.802  20.916 -0.4053  0.5241  0.0998
   42BOLB   C4C 1004   6.825  22.577  20.587  0.0443  0.0783 -0.1604
   42BOLB   C1D 1005   7.200  22.244  21.780 -0.1946  0.1523  0.1871
   42BOLB   C2D 1006   7.282  22.095  21.419 -0.1366  0.1851 -0.1114
   42BOLB   C3D 1007   7.646  22.123  21.173 -0.1222  0.1390 -0.1217
   42BOLB   C4D 1008   7.944  21.879  20.981 -0.3099 -0.2081 -0.0816
   43BOLB   NC1 1009  37.777  10.043   2.423 -0.3521  0.0309  0.0926
   43BOLB   PO1 1010  37.989  10.241   1.987  0.0881 -0.2903 -0.2865
   43BOLB   GL1 1011  38.225  10.649   1.996 -0.0671  0.0882  0.0909
   43BOLB   GL2 1012  38.428  10.638   1.638 -0.0456  0.4970 -0.1392
   43BOLB   C1A 1013  38.552  10.897   2.033  0.2975  0.0279  0.0001
   43BOLB   C2A 1014  38.713  11.197   2.154 -0.2012 -0.0624  0.1249
   43BOLB   C3A 1015  38.865  11.650   2.192  0.2775 -0.2398  0.2001
   43BOLB   C4A 1016  39.208  11.767   2.484  0.0502  0.1564 -0.0959
   43BOLB   C1B 1017  38.833  10.537   1.705  0.1110 -0.0935 -0.0166
   43BOLB   C2B 1018  39.352  10.668   1.561 -0.0176  0.0961 -0.2496
   43BOLB   C3B 1019  39.603  10.771   1.841 -0.4256  0.2341  0.1772
   43BOLB   C4B 1020  39.902  10.620   2.261  0.1329 -0.0234 -0.0575
   43BOLB   NC2 1021  41.030  11.102   1.212  0.1754  0.1209 -0.1647
   43BOLB   PO2 1022  41.088  11.468   0.973 -0.0854 -0.4465 -0.0335
   43BOLB   GL3 1023  40.748  11.661   1.141  0.4518 -0.0619 -0.2159
   43BOLB   GL4 1024  40.614  11.349   1.212  0.4500 -0.4260 -0.1546
   43BOLB   C1C 1025  40.383  11.851   1.339 -0.3142  0.0541  0.2220
   43BOLB   C2C 1026  40.224  11.822   1.717  0.2080  0.2036 -0.2422
   43BOLB   C3C 1027  39.959  11.758   2.059  0.3917  0.2014 -0.1093
   43BOLB   C4C 1028  39.655  11.722   2.376 -0.0720 -0.1303  0.0665
   43BOLB   C1D 1029  40.253  11.373   1.450  0.2298 -0.1425 -0.2979
   43BOLB   C2D 1030  40.002  11.364   1.779 -0.1014  0.0289  0.1386
   43BOLB   C3D 1031  39.619  11.332   1.872 -0.0751  0.0680 -0.0255
   43BOLB   C4D 1032  39.331  11.330   2.173 -0.0701 -0.1053 -0.1108
   44BOLB   NC1 1033  36.977  11.046   0.973 -0.1048 -0.0538  0.1633
   44BOLB   PO1 1034  37.327  11.318   1.197 -0.0547 -0.0701 -0.2992
   44BOLB   GL1 1035  37.157  11.515   1.528  0.0525 -0.1507  0.0452
   44BOLB   GL2 1036  37.408  11.564   1.779  0.0922  0.0094  0.3387
   44BOLB   C1A 1037  37.041  11.916   1.747  0.2371  0.2274 -0.1263
   44BOLB   C2A 1038  36.984  12.252   2.035  0.0428  0.3860 -0.0394
   44BOLB   C3A 1039  37.158  12.636   2.232 -0.2274 -0.2971 -0.1558
   44BOLB   C4A 1040  37.498  12.897   2.034  0.0072  0.2542 -0.1332
   44BOLB   C1B 1041  37.453  11.944   2.100 -0.0929  0.2513  0.0866
   44BOLB   C2B 1042  37.408  12.194   2.402  0.2092 -0.2766 -0.1420
   44BOLB   C3B 1043  37.265  12.502   2.766 -0.2235 -0.1291 -0.0542
   44BOLB   C4B 1044  37.310  12.770   3.154  0.1794 -0.1505  0.2984
   44BOLB   NC2 1045  38.570  12.354   0.187 -0.1135 -0.0304 -0.0375
   44BOLB   PO2 1046  38.232  12.055   0.317 -0.1812 -0.1521 -0.3236
   44BOLB   GL3 1047  37.996  12.331   0.618  0.1875 -0.0541 -0.0301
   44BOLB   GL4 1048  37.684  12.230   0.816 -0.1109  0.0881 -0.0816
   44BOLB   C1C 1049  38.163  12.673   0.887  0.1326 -0.0089 -0.0598
   44BOLB   C2C 1050  38.315  12.844   1.229 -0.0193  0.2854 -0.1159
   44BOLB   C3C 1051  38.309  12.932   1.643 -0.1402  0.3099 -0.1813
   44BOLB   C4C 1052  37.926  12.848   1.890  0.0009 -0.2909  0.1107
   44BOLB   C1D 1053  37.587  12.135   1.295  0.2024 -0.3995  0.0718
   44BOLB   C2D 1054  37.580  11.985   1.619  0.4486 -0.3245 -0.3579
   44BOLB   C3D 1055  37.926  11.957   1.978 -0.2802  0.2377 -0.1690
   44BOLB   C4D 1056  37.952  11.974   2.441  0.0274  0.2717 -0.2265
   45BOLB   NC1 1057  37.584  24.621  12.250 -0.1048 -0.0027  0.2155
   45BOLB   PO1 1058  37.125  24.460  12.446  0.2224  0.0621  0.3594
   45BOLB   GL1 1059  36.876  24.751  12.339 -0.0384  0.0450 -0.0409
   45BOLB   GL2 1060  36.619  24.719  12.113 -0.2945  0.0015 -0.0518
   45BOLB   C1A 1061  36.831  25.118  12.491  0.0308 -0.3067  0.1412
   45BOLB   C2A 1062  36.708  25.499  12.545  0.0650 -0.1130  0.1296
   45BOLB   C3A 1063  36.380  25.788  12.615 -0.2077 -0.1274  0.4874
   45BOLB   C4A 1064  36.442  26.225  12.677 -0.0690 -0.1352 -0.1069
   45BOLB   C1B 1065  36.369  24.936  12.463 -0.0508 -0.1255 -0.2235
   45BOLB   C2B 1066  36.010  24.893  12.716 -0.0811  0.1649 -0.2261
   45BOLB   C3B 1067  35.733  25.030  13.083  0.1090  0.0896  0.0337
   45BOLB   C4B 1068  35.330  25.066  13.059 -0.2073 -0.2829  0.1787
   45BOLB   NC2 1069  34.757  27.193  14.005  0.1373 -0.1025  0.0548
   45BOLB   PO2 1070  35.149  27.465  14.190 -0.0448 -0.0247  0.0905
   45BOLB   GL3 1071  35.239  27.396  13.781 -0.0924  0.1737 -0.2188
   45BOLB   GL4 1072  35.105  27.170  13.658 -0.3561 -0.0961  0.1364
   45BOLB   C1C 1073  35.393  27.417  13.338 -0.0760  0.3376  0.0707
   45BOLB   C2C 1074  35.717  27.205  13.313 -0.1735 -0.2326 -0.0024
   45BOLB   C3C 1075  36.066  26.924  13.102 -0.1111 -0.0893  0.2189
   45BOLB   C4C 1076  36.365  26.588  12.931 -0.1790  0.0342  0.2506
   45BOLB   C1D 1077  35.511  26.966  13.703 -0.2454  0.2691  0.0059
   45BOLB   C2D 1078  35.808  26.736  13.454  0.1163 -0.0573 -0.0144
   45BOLB   C3D 1079  36.090  27.027  13.608  0.0722 -0.0594 -0.2090
   45BOLB   C4D 1080  36.442  27.140  13.385  0.2835  0.1041  0.1145
   46BOLB   NC1 1081   0.447  25.252  13.162 -0.1950 -0.0141 -0.0875
   46BOLB   PO1 1082   0.528  25.266  13.675  0.1003  0.1664  0.0414
   46BOLB   GL1 1083   0.119  25.517  13.629  0.2569  0.1415  0.1145
   46BOLB   GL2 1084   0.277  25.768  13.776 -0.2607  0.1634 -0.1612
   46BOLB   C1A 1085  -0.277  25.713  13.524 -0.2405  0.1690 -0.1213
   46BOLB   C2A 1086  -0.648  25.893  13.544  0.0923  0.1699  0.3210
   46BOLB   C3A 1087  -0.894  26.211  13.755 -0.0605 -0.0219  0.0774
   46BOLB   C4A 1088  -1.159  26.086  13.850  0.2322 -0.3041  0.3660
   46BOLB   C1B 1089   0.148  26.146  13.889 -0.0392  0.0273  0.4532
   46BOLB   C2B 1090   0.067  26.504  14.051 -0.0612 -0.0943  0.1841
   46BOLB   C3B 1091  -0.047  26.893  14.092 -0.0020  0.1390 -0.2117
   46BOLB   C4B 1092  -0.348  27.202  13.990 -0.0013  0.3028  0.0808
   46BOLB   NC2 1093  -2.136  28.074  15.084  0.0709  0.0126  0.0323
   46BOLB   PO2 1094  -2.166  27.588  15.138  0.0123 -0.1029 -0.3367
   46BOLB   GL3 1095  -2.081  27.231  15.025 -0.0317  0.0662 -0.0791
   46BOLB   GL4 1096  -2.211  27.013  15.382 -0.2588 -0.2544  0.1550
   46BOLB   C1C 1097  -2.085  26.932  14.638 -0.2348 -0.1475 -0.1031
   46BOLB   C2C 1098  -1.836  26.634  14.518 -0.2446 -0.4457 -0.1126
   46BOLB   C3C 1099  -1.760  26.458  14.043  0.3638 -0.4414 -0.3284
   46BOLB   C4C 1100  -1.472  26.368  14.034  0.0086  0.1116  0.0388
   46BOLB   C1D 1101  -1.920  26.785  15.116  0.1051  0.1121 -0.1343
   46BOLB   C2D 1102  -1.673  26.365  15.021  0.0472  0.1297  0.0054
   46BOLB   C3D 1103  -1.501  26.024  14.861  0.2365 -0.0935 -0.1986
   46BOLB   C4D 1104  -1.190  25.742  15.031 -0.0685  0.4098  0.3102
   47BOLB   NC1 1105   3.195  17.487  14.792 -0.1292  0.2036 -0.2230
   47BOLB   PO1 1106   2.801  17.172  14.701 -0.0747 -0.0356 -0.1350
   47BOLB   GL1 1107   2.417  17.110  14.598 -0.1591 -0.2376  0.1161
   47BOLB   GL2 1108   2.328  16.783  14.647  0.2105  0.2582 -0.2202
   47BOLB   C1A 1109   1.986  17.198  14.581  0.0595 -0.4545 -0.1149
   47BOLB   C2A 1110   1.606  17.033  14.609  0.0393 -0.2163  0.1721
   47BOLB   C3A 1111   1.412  16.663  14.451  0.0807  0.0135  0.2175
   47BOLB   C4A 1112   1.573  16.195  14.456  0.0036 -0.1025 -0.2549
   47BOLB   C1B 1113   2.367  16.315  14.824 -0.0023 -0.0039  0.2372
   47BOLB   C2B 1114   2.308  16.020  14.620  0.0852  0.0192 -0.3007
   47BOLB   C3B 1115   2.264  15.800  14.230 -0.1364 -0.3661  0.0887
   47BOLB   C4B 1116   2.302  16.034  13.914 -0.4723 -0.2813 -0.2828
   47BOLB   NC2 1117   3.272  16.175  14.374  0.0446 -0.2564 -0.2670
   47BOLB   PO2 1118   3.295  16.235  14.812 -0.2640 -0.2550 -0.0306
   47BOLB   GL3 1119   3.011  16.175  15.162 -0.0029  0.1393 -0.2479
   47BOLB   GL4 1120   3.035  15.999  15.540  0.1581  0.3755 -0.1373
   47BOLB   C1C 1121   2.644  15.939  15.051 -0.0468 -0.1461  0.0347
   47BOLB   C2C 1122   2.418  15.621  14.988  0.2184  0.2055  0.1220
   47BOLB   C3C 1123   2.037  15.552  14.699 -0.1424 -0.1712 -0.0088
   47BOLB   C4C 1124   1.843  15.821  14.537 -0.0452 -0.2187 -0.0953
   47BOLB   C1D 1125   2.686  15.816  15.643 -0.0803 -0.2338 -0.0016
   47BOLB   C2D 1126   2.580  15.405  15.436  0.1241 -0.2270  0.1738
   47BOLB   C3D 1127   2.305  15.052  15.528  0.1368  0.1071 -0.1438
   47BOLB   C4D 1128   1.887  14.997  15.600  0.0246 -0.0512  0.2612
   48BOLB   NC1 1129   0.279   8.260   3.526  0.1390  0.1399  0.2861
   48BOLB   PO1 1130   0.398   8.293   3.085 -0.2602 -0.0856 -0.1728
   48BOLB   GL1 1131   0.763   8.405   3.474 -0.1637 -0.2042 -0.1354
   48BOLB   GL2 1132   1.102   8.659   3.574 -0.0500 -0.0593 -0.0661
   48BOLB   C1A 1133   0.845   8.494   3.929 -0.1540 -0.2395 -0.0427
   48BOLB   C2A 1134   0.795   8.894   4.013  0.1607 -0.0675  0.1003
   48BOLB   C3A 1135   0.989   9.234   4.112  0.0247  0.0783 -0.0079
   48BOLB   C4A 1136   0.733   9.583   4.313 -0.1151  0.3562 -0.2037
   48BOLB   C1B 1137   1.361   9.007   3.680 -0.1072 -0.0053  0.0742
   48BOLB   C2B 1138   1.565   9.176   3.928  0.3772  0.1107  0.3475
   48BOLB   C3B 1139   1.644   9.534   4.115 -0.2592  0.2465  0.1471
   48BOLB   C4B 1140   1.240   9.684   4.232  0.1979  0.1002  0.1206
   48BOLB   NC2 1141  -1.373   9.106   3.448  0.1217 -0.0979  0.2506
   48BOLB   PO2 1142  -1.568   9.370   3.046  0.2624  0.3465  0.2350
   48BOLB   GL3 1143  -1.209   9.539   3.283  0.0582  0.2589  0.0500
   48BOLB   GL4 1144  -1.004   9.827   3.270 -0.1491 -0.1446 -0.1293
   48BOLB   C1C 1145  -0.781   9.500   3.584 -0.2504 -0.5289  0.0953
   48BOLB   C2C 1146  -0.357   9.583   3.889  0.0852  0.0528 -0.0213
   48BOLB   C3C 1147  -0.048   9.797   4.198 -0.0472 -0.0405 -0.2620
   48BOLB   C4C 1148   0.369   9.900   4.353  0.0605  0.0741 -0.0092
   48BOLB   C1D 1149  -1.361   9.895   3.625 -0.1695  0.1131 -0.3060
   48BOLB   C2D 1150  -1.275  10.114   4.024 -0.1138  0.2946  0.4028
   48BOLB   C3D 1151  -1.139  10.085   4.416  0.0259  0.1447 -0.2776
   48BOLB   C4D 1152  -1.144  10.444   4.721 -0.0937 -0.2413  0.0245
   49BOLB   NC1 1153  33.475  26.961   9.541  0.1291  0.3110  0.0642
   49BOLB   PO1 1154  33.184  26.632   9.565  0.4171  0.0475  0.1113
   49BOLB   GL1 1155  33.594  26.469   9.738  0.2664 -0.0367  0.0931
   49BOLB   GL2 1156  33.833  26.512   9.574  0.1985  0.1168 -0.0472
   49BOLB   C1A 1157  33.886  26.075   9.761  0.1024 -0.1095  0.2047
   49BOLB   C2A 1158  34.167  25.791   9.657 -0.5414  0.0229 -0.0433
   49BOLB   C3A 1159  34.389  25.455   9.587 -0.2034 -0.1627 -0.2897
   49BOLB   C4A 1160  34.603  25.126   9.173  0.0608 -0.2011 -0.0073
   49BOLB   C1B 1161  34.327  26.382   9.604  0.0753  0.0348 -0.2649
   49BOLB   C2B 1162  34.598  26.145   9.764  0.2025 -0.2023  0.3178
   49BOLB   C3B 1163  34.804  25.739   9.722  0.0076  0.1119  0.0543
   49BOLB   C4B 1164  34.984  25.353   9.746 -0.0536  0.1133 -0.1704
   49BOLB   NC2 1165  33.260  26.938   7.877  0.0724 -0.3896  0.0603
   49BOLB   PO2 1166  33.498  26.587   7.985 -0.3374  0.1303  0.1441
   49BOLB   GL3 1167  33.964  26.537   8.242 -0.0887  0.3989  0.1159
   49BOLB   GL4 1168  34.211  26.614   8.226 -0.2111 -0.0508  0.3215
   49BOLB   C1C 1169  33.944  26.140   8.347 -0.1309 -0.1039 -0.1437
   49BOLB   C2C 1170  34.015  25.742   8.611 -0.4594 -0.1437 -0.1682
   49BOLB   C3C 1171  34.260  25.466   8.533  0.1567 -0.2040 -0.0971
   49BOLB   C4C 1172  34.541  25.289   8.757 -0.2066  0.1020 -0.1205
   49BOLB   C1D 1173  34.408  26.276   7.987  0.1185 -0.1464  0.0944
   49BOLB   C2D 1174  34.815  26.035   7.907  0.1236 -0.2985  0.1819
   49BOLB   C3D 1175  35.040  25.674   7.891 -0.0048  0.0833  0.1631
   49BOLB   C4D 1176  35.082  25.271   7.498 -0.3552  0.0835 -0.1716
   50BOLB   NC1 1177   0.344  10.689  19.782 -0.0320  0.0111 -0.1842
   50BOLB   PO1 1178   0.406  10.404  19.437  0.0097  0.0091  0.1599
   50BOLB   GL1 1179   0.455  10.732  19.161 -0.0476  0.0704  0.3645
   50BOLB   GL2 1180   0.131  10.869  18.946 -0.0736 -0.0030  0.0508
   50BOLB   C1A 1181   0.596  10.931  18.758  0.5809 -0.0696 -0.0407
   50BOLB   C2A 1182   0.509  11.128  18.391  0.1918  0.1415  0.2868
   50BOLB   C3A 1183   0.396  11.446  18.178 -0.3461 -0.1367 -0.1350
   50BOLB   C4A 1184   0.541  11.919  18.163  0.1826  0.4787  0.1605
   50BOLB   C1B 1185  -0.039  10.880  18.598 -0.0442 -0.2766  0.0915
   50BOLB   C2B 1186  -0.024  11.021  18.238  0.5767  0.0800 -0.1185
   50BOLB   C3B 1187   0.088  11.281  17.844  0.0667 -0.1260 -0.1821
   50BOLB   C4B 1188  -0.111  11.584  17.545 -0.0533 -0.2201  0.3271
   50BOLB   NC2 1189   1.863  11.435  19.719  0.3428  0.1199 -0.6563
   50BOLB   PO2 1190   1.406  11.498  19.695 -0.0409 -0.1324  0.2655
   50BOLB   GL3 1191   1.483  11.878  19.402  0.2684  0.0616 -0.3462
   50BOLB   GL4 1192   1.586  12.260  19.482 -0.1486 -0.0790 -0.0877
   50BOLB   C1C 1193   1.272  12.201  19.113  0.0372 -0.2799  0.0959
   50BOLB   C2C 1194   1.087  12.419  18.849 -0.2454 -0.1963  0.1094
   50BOLB   C3C 1195   0.783  12.411  18.621 -0.0760 -0.1659 -0.2303
   50BOLB   C4C 1196   0.784  12.144  18.385 -0.3519 -0.2383  0.1700
   50BOLB   C1D 1197   1.507  12.644  19.479  0.0061  0.0816 -0.0283
   50BOLB   C2D 1198   1.341  13.013  19.548  0.3272  0.1147  0.3180
   50BOLB   C3D 1199   1.321  13.393  19.579  0.1026  0.0759  0.3406
   50BOLB   C4D 1200   1.363  13.844  19.657  0.0595 -0.0160 -0.2755
   51BOLB   NC1 1201  35.441  14.217   0.283  0.3229 -0.4493 -0.2321
   51BOLB   PO1 1202  35.721  14.519   0.241 -0.0875  0.0355  0.2054
   51BOLB   GL1 1203  35.677  14.690   0.556  0.0112 -0.1120  0.0878
   51BOLB   GL2 1204  35.351  14.734   0.708 -0.0564  0.2204  0.2447
   51BOLB   C1A 1205  35.815  15.048   0.711  0.0131 -0.0199 -0.0447
   51BOLB   C2A 1206  36.108  15.193   0.710 -0.1951 -0.0067 -0.1467
   51BOLB   C3A 1207  36.276  15.287   1.117  0.1518 -0.0219 -0.3661
   51BOLB   C4A 1208  36.457  14.953   1.336 -0.0617 -0.1767  0.2672
   51BOLB   C1B 1209  35.753  14.675   1.037  0.4380  0.0275  0.1983
   51BOLB   C2B 1210  35.943  14.852   1.415 -0.0497 -0.0164 -0.0479
   51BOLB   C3B 1211  35.942  14.603   1.749 -0.0848 -0.1261  0.0046
   51BOLB   C4B 1212  35.778  14.435   2.120  0.0996 -0.0699  0.2553
   51BOLB   NC2 1213  36.173  14.203  -0.035 -0.1359 -0.3875  0.0119
   51BOLB   PO2 1214  36.563  14.084   0.009 -0.1357 -0.1932  0.2384
   51BOLB   GL3 1215  36.763  14.142   0.348  0.0994 -0.0856 -0.2055
   51BOLB   GL4 1216  36.675  14.481   0.223 -0.3773 -0.2154 -0.0818
   51BOLB   C1C 1217  36.727  13.958   0.802 -0.2831  0.4320  0.0869
   51BOLB   C2C 1218  36.668  13.999   1.255  0.0824 -0.0564  0.1438
   51BOLB   C3C 1219  36.674  14.280   1.567  0.1267  0.1785  0.4282
   51BOLB   C4C 1220  36.465  14.652   1.589 -0.0750 -0.2129  0.2584
   51BOLB   C1D 1221  36.965  14.554   0.589  0.1630  0.1088 -0.2309
   51BOLB   C2D 1222  37.254  14.576   0.847 -0.1059  0.0218 -0.4203
   51BOLB   C3D 1223  37.445  14.702   1.170  0.0084  0.2388 -0.2232
   51BOLB   C4D 1224  37.912  14.570   1.292  0.1114 -0.2175 -0.4218
   52BOLB   NC1 1225  33.173  23.716  17.035 -0.2020 -0.3334  0.3995
   52BOLB   PO1 1226  33.567  23.508  17.193  0.0639  0.0917 -0.1063
   52BOLB   GL1 1227  33.577  23.479  16.769  0.2914  0.3085 -0.1447
   52BOLB   GL2 1228  33.908  23.376  16.552 -0.2329 -0.1908  0.2867
   52BOLB   C1A 1229  33.408  23.296  16.463  0.0928  0.3939 -0.2053
   52BOLB   C2A 1230  33.256  23.460  16.199  0.1463 -0.2235 -0.1572
   52BOLB   C3A 1231  33.477  23.311  15.769 -0.0788  0.2720 -0.0641
   52BOLB   C4A 1232  33.524  23.317  15.451  0.1234 -0.0940  0.1811
   52BOLB   C1B 1233  33.958  22.906  16.506 -0.1218  0.1065 -0.2100
   52BOLB   C2B 1234  34.057  22.599  16.144  0.0867  0.0015 -0.2522
   52BOLB   C3B 1235  33.858  22.184  16.108 -0.0992  0.2710  0.0260
   52BOLB   C4B 1236  33.782  21.735  16.288  0.0284 -0.2368 -0.1582
   52BOLB   NC2 1237  32.949  25.181  15.767  0.0006  0.1847 -0.0958
   52BOLB   PO2 1238  33.417  25.338  15.579  0.1205  0.0636  0.0519
   52BOLB   GL3 1239  33.363  24.969  15.437 -0.1360  0.2173  0.0047
   52BOLB   GL4 1240  33.176  24.758  15.653  0.0361  0.0128 -0.0940
   52BOLB   C1C 1241  33.644  24.618  15.233  0.0391  0.1036 -0.1042
   52BOLB   C2C 1242  33.671  24.400  14.886 -0.1017  0.1964 -0.3215
   52BOLB   C3C 1243  33.494  23.882  14.820 -0.2526  0.1037 -0.0763
   52BOLB   C4C 1244  33.550  23.519  15.101 -0.0761 -0.0382  0.0556
   52BOLB   C1D 1245  33.189  24.459  15.421 -0.2164 -0.0030 -0.1575
   52BOLB   C2D 1246  33.480  24.124  15.274 -0.2548 -0.0551 -0.0136
   52BOLB   C3D 1247  33.637  23.822  15.496  0.0671  0.1001 -0.1042
   52BOLB   C4D 1248  33.711  23.666  16.106  0.1120 -0.0452  0.1731
   53BOLB   NC1 1249   1.124   6.288   8.608  0.5178 -0.2677 -0.3391
   53BOLB   PO1 1250   1.160   6.220   9.161  0.1733  0.1063 -0.1920
   53BOLB   GL1 1251   1.388   6.569   9.021 -0.1541  0.1430 -0.0684
   53BOLB   GL2 1252   1.365   6.780   9.246 -0.3240  0.1092  0.1043
   53BOLB   C1A 1253   1.641   6.947   8.800 -0.1590  0.1110  0.1917
   53BOLB   C2A 1254   1.703   7.363   8.720 -0.1138  0.1543 -0.0490
   53BOLB   C3A 1255   1.645   7.792   8.639  0.1052 -0.5099  0.1641
   53BOLB   C4A 1256   1.428   8.098   8.804 -0.2334  0.1991  0.1578
   53BOLB   C1B 1257   1.250   7.140   9.148 -0.2618 -0.2602  0.1505
   53BOLB   C2B 1258   1.112   7.358   8.914  0.1356 -0.0318  0.0676
   53BOLB   C3B 1259   1.112   7.636   8.654  0.3533 -0.1799  0.2806
   53BOLB   C4B 1260   1.071   7.504   8.250 -0.0199 -0.1092 -0.0525
   53BOLB   NC2 1261   0.518   6.078   8.955 -0.1285 -0.0186 -0.1390
   53BOLB   PO2 1262   0.239   6.375   9.163 -0.2737  0.1517 -0.0171
   53BOLB   GL3 1263   0.253   6.813   9.175 -0.2218  0.0981  0.2467
   53BOLB   GL4 1264   0.287   6.855   9.518 -0.2864  0.0070  0.0908
   53BOLB   C1C 1265   0.255   7.253   9.153 -0.0323  0.2607  0.0287
   53BOLB   C2C 1266   0.659   7.457   9.112 -0.0241 -0.1004 -0.0032
   53BOLB   C3C 1267   0.818   7.860   9.306 -0.0640 -0.2557  0.0901
   53BOLB   C4C 1268   1.116   8.190   9.031  0.0342 -0.1029 -0.0105
   53BOLB   C1D 1269   0.511   7.111   9.776  0.3095  0.1306  0.0330
   53BOLB   C2D 1270   0.735   7.504   9.965  0.1250 -0.1669  0.3946
   53BOLB   C3D 1271   0.729   7.907   9.789  0.0028 -0.2518  0.0356
   53BOLB   C4D 1272   0.441   8.083   9.592 -0.3783  0.0611 -0.0294
   54BOLB   NC1 1273  14.562  23.863   9.673  0.2475  0.0829 -0.1894
   54BOLB   PO1 1274  14.396  24.238   9.924 -0.0379  0.0437 -0.0202
   54BOLB   GL1 1275  14.623  24.637  10.009 -0.0050  0.2029  0.2513
   54BOLB   GL2 1276  14.391  24.690  10.196  0.1585 -0.2381 -0.2556
   54BOLB   C1A 1277  14.897  25.001  10.079 -0.2503  0.0286 -0.5018
   54BOLB   C2A 1278  15.175  25.290   9.891  0.2758  0.1676 -0.3646
   54BOLB   C3A 1279  15.506  25.394   9.976 -0.1915  0.3946  0.4027
   54BOLB   C4A 1280  15.606  25.780  10.233 -0.2692  0.0818 -0.3022
   54BOLB   C1B 1281  14.474  25.111  10.407 -0.1799 -0.1624 -0.0150
   54BOLB   C2B 1282  14.710  25.416  10.605  0.1588 -0.1192  0.1672
   54BOLB   C3B 1283  14.927  25.632  10.873  0.0392  0.1002  0.1444
   54BOLB   C4B 1284  15.324  25.886  11.125 -0.0181 -0.2526  0.1683
   54BOLB   NC2 1285  18.014  26.574  10.509 -0.3856 -0.0549  0.1883
   54BOLB   PO2 1286  17.877  27.029  10.493  0.3703  0.1352 -0.0239
   54BOLB   GL3 1287  17.596  26.767  10.286 -0.3732 -0.3752 -0.0227
   54BOLB   GL4 1288  17.677  26.388  10.206 -0.0054  0.2145 -0.1093
   54BOLB   C1C 1289  17.204  26.630  10.276  0.2523 -0.0394 -0.1066
   54BOLB   C2C 1290  16.772  26.376  10.284  0.0166 -0.0196  0.1823
   54BOLB   C3C 1291  16.362  26.193  10.337 -0.0414 -0.0738 -0.1354
   54BOLB   C4C 1292  16.035  25.938  10.196 -0.0165 -0.3974  0.0328
   54BOLB   C1D 1293  17.208  26.064  10.125  0.1444 -0.0670  0.0923
   54BOLB   C2D 1294  16.841  25.865  10.286  0.2802 -0.0824 -0.1539
   54BOLB   C3D 1295  16.401  25.651  10.210  0.3049 -0.1743  0.2656
   54BOLB   C4D 1296  16.027  25.349  10.139 -0.0430 -0.0143  0.1358
   55BOLB   NC1 1297   1.544   9.639  18.234  0.1756 -0.0050 -0.0240
   55BOLB   PO1 1298   1.214   9.460  18.367  0.0620 -0.0593  0.0084
   55BOLB   GL1 1299   1.012   9.735  18.253  0.0058  0.0813 -0.0372
   55BOLB   GL2 1300   1.142  10.034  18.228 -0.1349 -0.1385  0.2914
   55BOLB   C1A 1301   0.657   9.960  17.976  0.1861 -0.1205 -0.1470
   55BOLB   C2A 1302   0.457  10.362  18.106 -0.0332 -0.0843  0.0256
   55BOLB   C3A 1303   0.334  10.733  17.994 -0.0718  0.3620  0.3101
   55BOLB   C4A 1304   0.256  10.892  17.568  0.2949  0.1273  0.2716
   55BOLB   C1B 1305   0.970  10.370  17.892 -0.1675  0.1671  0.0649
   55BOLB   C2B 1306   0.659  10.568  17.632 -0.0369 -0.1423 -0.2112
   55BOLB   C3B 1307   0.193  10.303  17.670  0.1761  0.1146  0.0730
   55BOLB   C4B 1308  -0.106  10.204  17.944  0.0615  0.0181  0.3784
   55BOLB   NC2 1309  -1.189   9.988  17.982  0.1422 -0.2590  0.0768
   55BOLB   PO2 1310  -1.723   9.841  17.976 -0.1127 -0.3101  0.2078
   55BOLB   GL3 1311  -1.567  10.084  17.569 -0.2972  0.3297  0.1749
   55BOLB   GL4 1312  -1.664  10.303  17.272  0.0597 -0.1308  0.3368
   55BOLB   C1C 1313  -1.199  10.323  17.396 -0.0677  0.2676  0.1436
   55BOLB   C2C 1314  -0.845  10.458  17.217  0.4381 -0.2558 -0.0142
   55BOLB   C3C 1315  -0.458  10.766  17.266 -0.1819 -0.3909 -0.4445
   55BOLB   C4C 1316  -0.050  11.070  17.342 -0.0202 -0.0883  0.0775
   55BOLB   C1D 1317  -1.464  10.492  16.981 -0.1698 -0.0220  0.5164
   55BOLB   C2D 1318  -1.181  10.590  16.733  0.1614 -0.1634 -0.2102
   55BOLB   C3D 1319  -0.964  10.698  16.435  0.4234  0.2638  0.0887
   55BOLB   C4D 1320  -0.836  10.536  16.055  0.3985 -0.0471  0.2038
   56BOLB   NC1 1321   0.370  15.506  25.575  0.1165  0.2612  0.0684
   56BOLB   PO1 1322   0.744  15.676  25.743  0.0748  0.0682 -0.2878
   56BOLB   GL1 1323   0.500  15.627  26.056 -0.1399  0.0165  0.3614
   56BOLB   GL2 1324   0.664  15.622  26.373  0.0981 -0.0417  0.1396
   56BOLB   C1A 1325   0.360  15.186  26.326 -0.0167 -0.0192 -0.2538
   56BOLB   C2A 1326   0.545  14.904  26.692  0.0468 -0.1031  0.0537
   56BOLB   C3A 1327   0.360  14.586  26.934 -0.4557  0.0978  0.0038
   56BOLB   C4A 1328   0.039  14.357  26.745 -0.1750 -0.0566  0.2868
   56BOLB   C1B 1329   0.900  15.746  26.693  0.0621 -0.2188 -0.0592
   56BOLB   C2B 1330   1.126  15.910  26.960 -0.0022  0.3041  0.1297
   56BOLB   C3B 1331   1.175  16.250  27.270  0.1172 -0.1967  0.0557
   56BOLB   C4B 1332   1.421  16.367  27.592 -0.1296  0.2554 -0.0665
   56BOLB   NC2 1333  -1.379  15.041  25.167 -0.0289 -0.0953 -0.3201
   56BOLB   PO2 1334  -1.622  15.258  25.470  0.2405 -0.0649  0.1400
   56BOLB   GL3 1335  -1.412  15.218  25.813  0.0064 -0.0929 -0.3117
   56BOLB   GL4 1336  -1.586  15.343  26.180 -0.1751  0.2063 -0.1342
   56BOLB   C1C 1337  -1.328  14.916  26.196  0.2438  0.2310  0.2403
   56BOLB   C2C 1338  -1.069  14.849  26.629  0.0951  0.1722 -0.2442
   56BOLB   C3C 1339  -0.836  14.571  26.863  0.0744 -0.2932 -0.1363
   56BOLB   C4C 1340  -0.411  14.456  26.849  0.1782 -0.0791  0.1081
   56BOLB   C1D 1341  -1.271  15.326  26.555 -0.1983  0.0684 -0.1804
   56BOLB   C2D 1342  -0.904  15.460  26.866 -0.3394  0.0495  0.0531
   56BOLB   C3D 1343  -0.452  15.625  26.875  0.4322  0.2616  0.0253
   56BOLB   C4D 1344  -0.325  15.997  27.065  0.0916  0.1049 -0.5803
   57BOLB   NC1 1345   5.547  22.589   2.619  0.3456  0.1174  0.0059
   57BOLB   PO1 1346   5.229  22.855   2.809  0.1303  0.0371  0.1812
   57BOLB   GL1 1347   5.075  22.888   2.379  0.0548  0.3454 -0.0773
   57BOLB   GL2 1348   5.073  23.247   2.326 -0.1469  0.0194  0.1454
   57BOLB   C1A 1349   5.103  22.819   1.972 -0.3225 -0.1335  0.4394
   57BOLB   C2A 1350   4.999  22.862   1.610 -0.2272  0.3243 -0.0900
   57BOLB   C3A 1351   4.776  23.163   1.519  0.0241  0.0251 -0.0305
   57BOLB   C4A 1352   4.612  23.339   1.124  0.0258 -0.1393 -0.3072
   57BOLB   C1B 1353   5.077  23.310   1.963 -0.1958  0.0824 -0.1852
   57BOLB   C2B 1354   5.179  23.486   1.557  0.2706  0.0696 -0.4113
   57BOLB   C3B 1355   5.111  23.512   1.151 -0.1375 -0.2711  0.0291
   57BOLB   C4B 1356   5.221  23.511   0.734  0.0053 -0.1684  0.0345
   57BOLB   NC2 1357   4.304  23.808  -1.657 -0.2916  0.2147  0.3151
   57BOLB   PO2 1358   4.306  23.486  -1.393 -0.0625 -0.1919  0.1262
   57BOLB   GL3 1359   4.399  23.353  -0.998 -0.2373  0.2492 -0.0626
   57BOLB   GL4 1360   4.757  23.254  -1.068  0.1317 -0.2311 -0.1952
   57BOLB   C1C 1361   4.455  23.342  -0.526  0.1282  0.0192 -0.1366
   57BOLB   C2C 1362   4.524  23.334  -0.039  0.1117 -0.1555  0.1833
   57BOLB   C3C 1363   4.324  23.343   0.354  0.2171  0.1115 -0.2643
   57BOLB   C4C 1364   4.257  23.388   0.885 -0.1147 -0.0880  0.1026
   57BOLB   C1D 1365   5.019  23.127  -0.738 -0.1583 -0.1605  0.0353
   57BOLB   C2D 1366   5.004  23.014  -0.245 -0.4190 -0.1501 -0.1811
   57BOLB   C3D 1367   4.870  23.117   0.212 -0.2543 -0.2583 -0.0556
   57BOLB   C4D 1368   4.799  23.317   0.588 -0.1914  0.0242 -0.2546
   58BOLB   NC1 1369   4.288  20.640   2.485 -0.1507 -0.1063  0.0660
   58BOLB   PO1 1370   4.683  20.566   2.649 -0.0546  0.1235  0.0772
   58BOLB   GL1 1371   4.683  20.542   2.234  0.0551 -0.0154 -0.0378
   58BOLB   GL2 1372   5.002  20.528   2.095 -0.0993 -0.0287  0.1882
   58BOLB   C1A 1373   4.416  20.438   1.897 -0.2090  0.1156 -0.1107
   58BOLB   C2A 1374   4.268  20.357   1.492 -0.0285  0.1005 -0.0819
   58BOLB   C3A 1375   4.006  20.243   1.261 -0.3290  0.1030 -0.1203
   58BOLB   C4A 1376   3.625  20.061   1.148 -0.0897 -0.1193 -0.0348
   58BOLB   C1B 1377   4.935  20.411   1.707 -0.3888  0.2322 -0.0867
   58BOLB   C2B 1378   4.760  20.413   1.318 -0.0630  0.0297 -0.1066
   58BOLB   C3B 1379   4.632  20.566   0.893  0.2486  0.0527  0.3221
   58BOLB   C4B 1380   4.290  20.286   0.650  0.1441  0.2757 -0.1135
   58BOLB   NC2 1381   2.198  20.837  -0.981  0.1702  0.0934 -0.1316
   58BOLB   PO2 1382   2.065  20.406  -0.740 -0.0362 -0.0756  0.0708
   58BOLB   GL3 1383   2.448  20.337  -0.431 -0.2772 -0.0908 -0.2877
   58BOLB   GL4 1384   2.346  20.088  -0.111 -0.0605  0.5114  0.1105
   58BOLB   C1C 1385   2.801  20.426  -0.313  0.1072 -0.1005  0.0315
   58BOLB   C2C 1386   3.151  20.285   0.026  0.1602 -0.3144 -0.1613
   58BOLB   C3C 1387   3.185  20.290   0.461 -0.1718 -0.2858  0.4747
   58BOLB   C4C 1388   3.360  20.139   0.838 -0.2223  0.0642 -0.0362
   58BOLB   C1D 1389   2.044  20.117   0.170  0.2880 -0.4515  0.0438
   58BOLB   C2D 1390   1.564  20.161   0.323 -0.0217 -0.1572  0.1084
   58BOLB   C3D 1391   1.369  19.997   0.706  0.0520 -0.0410 -0.0353
   58BOLB   C4D 1392   1.385  19.691   1.154  0.2129  0.0498 -0.0416
   59BOLB   NC1 1393  36.430  12.958   0.730 -0.0676 -0.1409  0.3427
   59BOLB   PO1 1394  36.338  13.361   0.546  0.3239 -0.0266  0.0236
   59BOLB   GL1 1395  36.648  13.452   0.788 -0.0673 -0.1771 -0.0406
   59BOLB   GL2 1396  36.871  13.162   0.689 -0.5668  0.0735 -0.3346
   59BOLB   C1A 1397  36.657  13.369   1.219  0.2078  0.0706  0.0653
   59BOLB   C2A 1398  36.650  13.320   1.718 -0.2777  0.2206 -0.0805
   59BOLB   C3A 1399  36.436  13.531   2.115  0.0495  0.0963  0.0094
   59BOLB   C4A 1400  36.160  13.880   2.255 -0.1882 -0.0154  0.5355
   59BOLB   C1B 1401  37.293  13.133   0.569 -0.3931  0.1226  0.1411
   59BOLB   C2B 1402  37.612  13.358   0.772  0.2128 -0.0438  0.0026
   59BOLB   C3B 1403  37.712  13.848   0.725 -0.1288 -0.1757 -0.0157
   59BOLB   C4B 1404  37.965  14.295   0.870  0.1968 -0.0817 -0.0449
   59BOLB   NC2 1405  33.893  13.263   1.894 -0.0635  0.3211 -0.1927
   59BOLB   PO2 1406  34.101  13.078   1.606  0.0410  0.1602  0.1440
   59BOLB   GL3 1407  34.420  13.359   1.816 -0.4793 -0.4865  0.1101
   59BOLB   GL4 1408  34.527  13.454   1.488  0.1828 -0.3664 -0.3638
   59BOLB   C1C 1409  34.796  13.424   1.928 -0.1831 -0.0312 -0.3277
   59BOLB   C2C 1410  35.124  13.692   1.841  0.0008  0.2953  0.4513
   59BOLB   C3C 1411  35.418  13.848   2.118  0.0673 -0.3963 -0.2986
   59BOLB   C4C 1412  35.804  13.964   2.193 -0.1248 -0.2227  0.0140
   59BOLB   C1D 1413  34.911  13.721   1.401  0.1636 -0.2325  0.0386
   59BOLB   C2D 1414  35.252  13.898   1.318  0.0558  0.0869  0.0863
   59BOLB   C3D 1415  35.652  13.987   1.131  0.0772 -0.2238  0.0460
   59BOLB   C4D 1416  35.977  13.885   1.002 -0.0757  0.0988 -0.2243
   60BOLB   NC1 1417  34.357  11.293   2.206 -0.3412  0.3402 -0.1455
   60BOLB   PO1 1418  34.573  11.659   2.384  0.3174 -0.2621 -0.2640
   60BOLB   GL1 1419  34.857  12.000   2.635 -0.0486  0.0579  0.0301
   60BOLB   GL2 1420  34.582  12.313   2.641 -0.1602 -0.1955 -0.3379
   60BOLB   C1A 1421  35.026  12.407   2.777 -0.0765  0.1758 -0.4147
   60BOLB   C2A 1422  35.241  12.715   2.977 -0.2503  0.1733 -0.0385
   60BOLB   C3A 1423  35.503  12.935   3.104  0.2019  0.1365  0.2483
   60BOLB   C4A 1424  35.820  12.858   3.130  0.0361  0.0924  0.0329
   60BOLB   C1B 1425  34.773  12.833   2.729  0.2414 -0.0797 -0.0812
   60BOLB   C2B 1426  35.062  13.190   2.843  0.0467 -0.0256 -0.2975
   60BOLB   C3B 1427  35.170  13.613   2.814 -0.3064 -0.3189 -0.0829
   60BOLB   C4B 1428  35.343  13.942   3.035  0.2130 -0.1521  0.2501
   60BOLB   NC2 1429  36.729  11.651   0.957  0.0410 -0.1326 -0.1652
   60BOLB   PO2 1430  36.682  11.390   1.313  0.0310  0.7781 -0.2507
   60BOLB   GL3 1431  36.507  11.751   1.553 -0.0093 -0.0992  0.2000
   60BOLB   GL4 1432  36.587  12.121   1.552  0.2282  0.0613  0.1345
   60BOLB   C1C 1433  36.593  11.958   2.019  0.1106  0.2135  0.0731
   60BOLB   C2C 1434  36.509  11.915   2.532 -0.1684  0.0238  0.3329
   60BOLB   C3C 1435  36.465  12.288   2.793 -0.1521  0.1034  0.0050
   60BOLB   C4C 1436  36.223  12.602   2.930  0.0491  0.1257  0.0452
   60BOLB   C1D 1437  36.704  12.486   1.728  0.0374  0.0638 -0.0274
   60BOLB   C2D 1438  36.869  12.875   1.902  0.1339  0.0936  0.2690
   60BOLB   C3D 1439  36.933  13.125   2.229  0.1102 -0.2013  0.3361
   60BOLB   C4D 1440  37.237  13.381   2.426 -0.0799  0.2401 -0.0165
   61BOLB   NC1 1441  19.096  18.443   9.318  0.2834  0.0923 -0.1751
   61BOLB   PO1 1442  18.945  18.756   9.389 -0.1736  0.2230  0.2452
   61BOLB   GL1 1443  18.462  18.967   9.301 -0.2436 -0.3703  0.2973
   61BOLB   GL2 1444  18.305  18.759   9.341  0.0299 -0.1810 -0.1991
   61BOLB   C1A 1445  18.233  19.356   9.221  0.2442  0.2339  0.1850
   61BOLB   C2A 1446  17.921  19.622   9.225  0.1697 -0.0230  0.1476
   61BOLB   C3A 1447  17.600  19.568   9.027 -0.2346 -0.0170  0.2400
   61BOLB   C4A 1448  17.327  19.330   9.092  0.1462 -0.0445  0.0912
   61BOLB   C1B 1449  18.158  18.567   9.674  0.0968  0.1511  0.1334
   61BOLB   C2B 1450  17.730  18.472   9.794 -0.1391 -0.2684  0.0332
   61BOLB   C3B 1451  17.384  18.619   9.900  0.0227 -0.2946 -0.2211
   61BOLB   C4B 1452  17.613  18.942   9.765  0.0987  0.1988 -0.1222
   61BOLB   NC2 1453  18.611  18.197   8.633  0.0821 -0.1328 -0.0138
   61BOLB   PO2 1454  18.336  17.910   8.426 -0.0716 -0.1683  0.0959
   61BOLB   GL3 1455  17.900  18.013   8.450 -0.0597  0.1585 -0.0586
   61BOLB   GL4 1456  17.703  17.990   8.146 -0.3109 -0.2536 -0.1885
   61BOLB   C1C 1457  17.567  17.892   8.812  0.1168  0.2419  0.2410
   61BOLB   C2C 1458  17.387  18.118   9.132 -0.0220 -0.2549 -0.4366
   61BOLB   C3C 1459  17.410  18.538   9.407 -0.0016  0.2595  0.1504
   61BOLB   C4C 1460  17.304  18.971   9.385 -0.4268  0.3018  0.0945
   61BOLB   C1D 1461  17.288  18.074   8.444  0.0632  0.3459  0.0301
   61BOLB   C2D 1462  17.215  18.359   8.752 -0.0078  0.6222  0.2564
   61BOLB   C3D 1463  16.962  18.565   9.161 -0.0307 -0.2663 -0.0475
   61BOLB   C4D 1464  16.523  18.642   9.287  0.1639 -0.0138  0.1036
   62BOLB   NC1 1465  14.956  15.416   2.678 -0.0788  0.1692  0.1532
   62BOLB   PO1 1466  15.074  15.081   2.864  0.0235 -0.3403 -0.1307
   62BOLB   GL1 1467  14.698  15.181   3.119 -0.1550  0.0501 -0.2338
   62BOLB   GL2 1468  14.558  15.012   3.430 -0.1511 -0.1463  0.3325
   62BOLB   C1A 1469  14.359  15.465   3.328  0.3096 -0.1603  0.1519
   62BOLB   C2A 1470  14.046  15.872   3.155  0.0756  0.0793  0.1719
   62BOLB   C3A 1471  13.621  15.742   3.059 -0.1050 -0.0977  0.0491
   62BOLB   C4A 1472  13.313  15.810   2.716  0.1182  0.0980 -0.0221
   62BOLB   C1B 1473  14.282  14.645   3.554  0.0523  0.0277  0.0654
   62BOLB   C2B 1474  13.974  14.291   3.612  0.1303 -0.0520 -0.2060
   62BOLB   C3B 1475  13.648  14.160   3.506 -0.0007 -0.1769 -0.1192
   62BOLB   C4B 1476  13.392  14.362   3.277 -0.0132  0.1832 -0.5349
   62BOLB   NC2 1477  13.559  13.707   1.698 -0.3599 -0.0918  0.1101
   62BOLB   PO2 1478  13.036  13.697   1.725  0.2515 -0.1273 -0.0572
   62BOLB   GL3 1479  12.721  14.110   1.876 -0.1066  0.0280  0.3261
   62BOLB   GL4 1480  12.352  14.186   2.005  0.3170 -0.0229 -0.4799
   62BOLB   C1C 1481  12.762  14.468   2.050 -0.1281 -0.1683 -0.1146
   62BOLB   C2C 1482  12.741  14.893   2.302 -0.1279  0.0652 -0.0210
   62BOLB   C3C 1483  12.651  15.361   2.414 -0.2675  0.0020 -0.0215
   62BOLB   C4C 1484  12.951  15.658   2.541 -0.1705 -0.1133  0.0791
   62BOLB   C1D 1485  12.339  14.456   2.421 -0.1362 -0.1300  0.0122
   62BOLB   C2D 1486  12.296  14.833   2.648  0.0726 -0.1238  0.0959
   62BOLB   C3D 1487  12.321  15.080   2.917 -0.3060  0.0479  0.2962
   62BOLB   C4D 1488  12.286  15.412   3.254  0.1824  0.0562  0.3440
   63BOLB   NC1 1489   8.826   9.911   5.059 -0.2431  0.0931  0.1674
   63BOLB   PO1 1490   8.652   9.944   4.579  0.2632  0.0063 -0.0158
   63BOLB   GL1 1491   8.963  10.299   4.824 -0.0636 -0.0405 -0.1259
   63BOLB   GL2 1492   9.245  10.402   4.765 -0.2223 -0.1333  0.0194
   63BOLB   C1A 1493   8.802  10.650   5.042 -0.0118  0.1147  0.1604
   63BOLB   C2A 1494   8.778  10.948   5.401  0.0749  0.4063  0.1362
   63BOLB   C3A 1495   8.568  11.204   5.599 -0.3920 -0.0327 -0.1283
   63BOLB   C4A 1496   8.504  11.329   6.092 -0.3624 -0.0544 -0.2238
   63BOLB   C1B 1497   9.128  10.874   4.722  0.0783  0.0892 -0.0986
   63BOLB   C2B 1498   9.116  11.168   5.053 -0.1121 -0.3227  0.1178
   63BOLB   C3B 1499   8.927  11.448   5.394 -0.2915 -0.0134  0.2224
   63BOLB   C4B 1500   8.600  11.696   5.663 -0.1583 -0.0126 -0.0572
   63BOLB   NC2 1501   9.816   9.286   6.264  0.0284 -0.0844 -0.0054
   63BOLB   PO2 1502   9.942   9.568   6.601 -0.0660 -0.0775 -0.0539
   63BOLB   GL3 1503   9.576   9.855   6.757  0.2109 -0.3824 -0.1481
   63BOLB   GL4 1504   9.461   9.997   6.526 -0.1509  0.1431  0.0604
   63BOLB   C1C 1505   9.028   9.878   6.749 -0.1164  0.2880 -0.0530
   63BOLB   C2C 1506   8.817  10.241   6.699  0.1541  0.2601 -0.0587
   63BOLB   C3C 1507   8.831  10.646   6.517 -0.2938 -0.2563 -0.3536
   63BOLB   C4C 1508   8.598  11.046   6.468 -0.0230  0.1112 -0.1960
   63BOLB   C1D 1509   9.276  10.323   6.443 -0.2099 -0.2519 -0.0225
   63BOLB   C2D 1510   9.080  10.460   6.077 -0.1125 -0.0168  0.0451
   63BOLB   C3D 1511   8.759  10.667   5.973  0.0449  0.1978  0.0374
   63BOLB   C4D 1512   8.415  10.791   5.846  0.1590 -0.1064  0.2465
   64BOLB   NC1 1513  11.017  15.159  10.559  0.0539  0.0855  0.1358
   64BOLB   PO1 1514  11.335  14.847  10.766 -0.2265  0.2507  0.3066
   64BOLB   GL1 1515  11.253  14.432  11.020  0.1675 -0.2111 -0.1481
   64BOLB   GL2 1516  11.439  14.393  11.309 -0.2686  0.1134  0.1343
   64BOLB   C1A 1517  11.368  14.020  10.989 -0.2177 -0.0879  0.2811
   64BOLB   C2A 1518  11.622  13.664  11.107  0.0125 -0.1579 -0.2494
   64BOLB   C3A 1519  11.786  13.218  11.230  0.1342  0.1976 -0.0458
   64BOLB   C4A 1520  11.735  12.711  11.105  0.1300  0.2784  0.0446
   64BOLB   C1B 1521  11.731  14.037  11.388  0.0587  0.0908  0.0080
   64BOLB   C2B 1522  11.951  13.648  11.528  0.3082 -0.3355  0.1612
   64BOLB   C3B 1523  12.110  13.214  11.727 -0.2379  0.0930 -0.0018
   64BOLB   C4B 1524  12.224  12.921  12.002  0.3042 -0.2547 -0.1791
   64BOLB   NC2 1525  12.140  10.356  10.490  0.0450 -0.1041  0.2994
   64BOLB   PO2 1526  12.016  10.521  10.053 -0.1760  0.1585  0.0008
   64BOLB   GL3 1527  11.668  10.813  10.079  0.2611  0.0170 -0.0936
   64BOLB   GL4 1528  11.652  10.834   9.830  0.1262 -0.1508  0.0372
   64BOLB   C1C 1529  11.494  11.266  10.156  0.1657  0.1320 -0.0360
   64BOLB   C2C 1530  11.468  11.667  10.268 -0.1036 -0.0811 -0.2507
   64BOLB   C3C 1531  11.374  12.073  10.444  0.2113  0.1058  0.4552
   64BOLB   C4C 1532  11.577  12.399  10.805 -0.2946  0.2775  0.0832
   64BOLB   C1D 1533  11.187  10.945   9.846  0.0267  0.0698 -0.1040
   64BOLB   C2D 1534  10.870  11.082   9.970 -0.0431  0.1462 -0.0111
   64BOLB   C3D 1535  10.565  11.011   9.629 -0.1987 -0.3352  0.0548
   64BOLB   C4D 1536  10.516  11.051   9.221  0.0259 -0.1244 -0.0100
   65BOLB   NC1 1537  11.552  27.534  10.100 -0.0886 -0.0539  0.0872
   65BOLB   PO1 1538  11.582  27.707  10.524 -0.0938  0.3032  0.0834
   65BOLB   GL1 1539  11.753  27.936  10.299  0.1473 -0.0828 -0.1690
   65BOLB   GL2 1540  11.844  28.196  10.490  0.0405  0.3074 -0.0443
   65BOLB   C1A 1541  12.172  28.045  10.060  0.1105  0.2654 -0.0373
   65BOLB   C2A 1542  12.543  28.186  10.219 -0.1611  0.1569 -0.4521
   65BOLB   C3A 1543  12.882  28.412  10.136 -0.1428  0.2703 -0.0249
   65BOLB   C4A 1544  13.102  28.690   9.911 -0.0873  0.0813 -0.2842
   65BOLB   C1B 1545  12.207  28.465  10.401 -0.2277 -0.2950  0.2260
   65BOLB   C2B 1546  12.519  28.709  10.321  0.0235 -0.1730 -0.1448
   65BOLB   C3B 1547  12.597  29.056  10.269 -0.2199 -0.3577  0.3838
   65BOLB   C4B 1548  12.879  29.321  10.475 -0.1698  0.0340  0.0111
   65BOLB   NC2 1549  13.927  31.290  10.249 -0.4041  0.3038  0.2175
   65BOLB   PO2 1550  13.882  30.938   9.885  0.0286  0.0357  0.0582
   65BOLB   GL3 1551  13.514  30.637  10.147 -0.0656  0.0254  0.0265
   65BOLB   GL4 1552  13.531  30.282  10.265  0.1807 -0.4111 -0.1314
   65BOLB   C1C 1553  13.141  30.396   9.911 -0.0939  0.0338  0.1594
   65BOLB   C2C 1554  12.986  29.958   9.891 -0.1609 -0.0010 -0.0883
   65BOLB   C3C 1555  13.061  29.537   9.946  0.0307  0.1425  0.3304
   65BOLB   C4C 1556  12.987  29.053   9.934 -0.0391 -0.2614  0.0153
   65BOLB   C1D 1557  13.095  30.405  10.396  0.0821 -0.1908 -0.0422
   65BOLB   C2D 1558  12.796  30.165  10.351 -0.1597 -0.2514 -0.2152
   65BOLB   C3D 1559  12.359  29.980  10.516 -0.3408 -0.0816 -0.1113
   65BOLB   C4D 1560  12.269  29.708  10.890  0.3371  0.0459 -0.1438
   66BOLB   NC1 1561  11.459  19.033  21.689 -0.0424 -0.2145  0.3223
   66BOLB   PO1 1562  11.383  18.474  21.749  0.1754 -0.1152  0.0446
   66BOLB   GL1 1563  11.356  18.684  21.314 -0.2097  0.3370  0.2802
   66BOLB   GL2 1564  11.117  18.805  21.287  0.1496  0.1280  0.1376
   66BOLB   C1A 1565  11.400  18.936  20.844 -0.1103 -0.0038  0.1393
   66BOLB   C2A 1566  11.186  18.886  20.540 -0.1671  0.0615 -0.4117
   66BOLB   C3A 1567  11.159  18.520  20.288 -0.2545 -0.2773  0.0472
   66BOLB   C4A 1568  11.017  18.120  20.242  0.0571  0.0066 -0.3026
   66BOLB   C1B 1569  10.979  19.148  21.016  0.2512  0.2818  0.1252
   66BOLB   C2B 1570  11.070  19.369  20.636  0.2156  0.2635  0.2043
   66BOLB   C3B 1571  10.935  19.335  20.295  0.0457  0.0993 -0.1604
   66BOLB   C4B 1572  10.897  19.546  19.935 -0.1252  0.0494  0.2981
   66BOLB   NC2 1573  11.706  15.985  19.698  0.0147  0.0400 -0.1508
   66BOLB   PO2 1574  11.548  16.339  19.934  0.1979 -0.1421  0.1483
   66BOLB   GL3 1575  11.516  16.455  19.520  0.3054  0.0984 -0.3692
   66BOLB   GL4 1576  11.282  16.182  19.433 -0.0931  0.3203  0.1555
   66BOLB   C1C 1577  11.331  16.828  19.277 -0.1959 -0.1535  0.3286
   66BOLB   C2C 1578  11.083  17.232  19.446 -0.0254 -0.2957  0.0227
   66BOLB   C3C 1579  10.971  17.534  19.626 -0.1920 -0.0110 -0.0615
   66BOLB   C4C 1580  10.996  17.766  19.977  0.0645 -0.1423 -0.3434
   66BOLB   C1D 1581  11.254  16.142  19.046 -0.3346  0.2904  0.3479
   66BOLB   C2D 1582  11.096  16.332  18.711  0.1288 -0.1021  0.2037
   66BOLB   C3D 1583  11.043  16.069  18.352  0.1792 -0.2660  0.0764
   66BOLB   C4D 1584  10.805  16.039  17.941  0.1472  0.4490 -0.2170
   67BOLB   NC1 1585   8.056  13.432  11.691  0.1233 -0.0550 -0.2510
   67BOLB   PO1 1586   8.192  13.613  12.022  0.0222 -0.1180 -0.3266
   67BOLB   GL1 1587   8.390  13.118  11.915  0.2015 -0.0784 -0.1322
   67BOLB   GL2 1588   8.156  12.891  11.848  0.1165  0.0969  0.2728
   67BOLB   C1A 1589   8.662  12.794  12.076  0.4586 -0.1374  0.3062
   67BOLB   C2A 1590   8.691  12.507  12.279 -0.3528  0.3252 -0.3436
   67BOLB   C3A 1591   8.440  12.268  12.504  0.1688  0.0657 -0.0322
   67BOLB   C4A 1592   8.110  12.002  12.535 -0.2900 -0.3505  0.1799
   67BOLB   C1B 1593   8.208  12.681  12.224  0.1857  0.0582  0.0514
   67BOLB   C2B 1594   8.374  12.790  12.615 -0.4350  0.1992 -0.0009
   67BOLB   C3B 1595   8.733  12.522  12.840 -0.1295 -0.0791  0.0589
   67BOLB   C4B 1596   8.886  12.279  13.105 -0.1229 -0.1239  0.1836
   67BOLB   NC2 1597   8.303   9.833  12.018  0.0534 -0.0329 -0.2902
   67BOLB   PO2 1598   8.048   9.862  12.293 -0.0444 -0.4213 -0.1983
   67BOLB   GL3 1599   7.896  10.208  12.112  0.0854  0.1578 -0.0574
   67BOLB   GL4 1600   8.125  10.354  11.993  0.0132  0.0530 -0.1773
   67BOLB   C1C 1601   7.534  10.583  12.054 -0.0508 -0.0304 -0.2054
   67BOLB   C2C 1602   7.425  11.081  12.139 -0.0760 -0.2800  0.1021
   67BOLB   C3C 1603   7.613  11.484  12.199  0.0972  0.4447  0.0645
   67BOLB   C4C 1604   7.924  11.722  12.399 -0.2051  0.0062  0.0122
   67BOLB   C1D 1605   8.109  10.737  12.218  0.1045 -0.2592 -0.0474
   67BOLB   C2D 1606   7.881  11.039  12.014  0.0457 -0.1770 -0.1039
   67BOLB   C3D 1607   7.707  11.095  11.637  0.0143 -0.0014 -0.1045
   67BOLB   C4D 1608   7.545  11.124  11.282 -0.0208 -0.0648 -0.0531
   68BOLB   NC1 1609   0.709  10.806   0.319 -0.0282 -0.0378  0.0020
   68BOLB   PO1 1610   0.786  11.115   0.647 -0.0157  0.2436  0.1304
   68BOLB   GL1 1611   0.663  11.283   0.992  0.2022  0.0607 -0.0631
   68BOLB   GL2 1612   0.895  11.481   1.182  0.2339 -0.1853  0.3569
   68BOLB   C1A 1613   0.394  11.318   1.279 -0.1299 -0.1568  0.2908
   68BOLB   C2A 1614   0.369  11.047   1.613  0.3704  0.0524  0.1261
   68BOLB   C3A 1615   0.688  10.934   1.930 -0.0931 -0.2126  0.0617
   68BOLB   C4A 1616   0.872  10.507   2.077 -0.0587  0.2027 -0.2477
   68BOLB   C1B 1617   0.783  11.873   1.396  0.1080 -0.0854  0.2162
   68BOLB   C2B 1618   0.879  12.209   1.531 -0.1007 -0.0449 -0.3828
   68BOLB   C3B 1619   1.253  12.625   1.663  0.1658 -0.0558  0.0239
   68BOLB   C4B 1620   1.127  12.958   1.968 -0.0335 -0.1462 -0.0914
   68BOLB   NC2 1621   3.017   9.787   1.499  0.2960 -0.0608 -0.1672
   68BOLB   PO2 1622   3.014  10.147   1.779 -0.0143 -0.3123 -0.0261
   68BOLB   GL3 1623   2.657  10.298   1.932  0.2602  0.3132 -0.2660
   68BOLB   GL4 1624   2.498  10.205   2.123 -0.1937  0.0115  0.0348
   68BOLB   C1C 1625   2.299  10.442   1.740  0.0032 -0.0576  0.0051
   68BOLB   C2C 1626   1.911  10.278   1.997 -0.0949  0.3272 -0.2230
   68BOLB   C3C 1627   1.497  10.188   2.025  0.0615  0.1929  0.0206
   68BOLB   C4C 1628   1.043  10.183   2.122  0.2315  0.1085  0.1848
   68BOLB   C1D 1629   2.138  10.176   2.459  0.1029 -0.2134 -0.0281
   68BOLB   C2D 1630   1.728  10.329   2.556 -0.1908 -0.1658 -0.0423
   68BOLB   C3D 1631   1.537  10.573   2.787  0.2832  0.0088 -0.3340
   68BOLB   C4D 1632   1.196  10.539   3.043  0.2189 -0.2194 -0.0312
   69BOLB   NC1 1633   0.571  13.138  26.336  0.1053  0.5179  0.0986
   69BOLB   PO1 1634   0.243  12.870  26.604  0.2087  0.0948  0.0280
   69BOLB   GL1 1635   0.272  12.797  27.087  0.1930 -0.0367  0.0636
   69BOLB   GL2 1636   0.182  12.490  27.089 -0.0535 -0.3853  0.0829
   69BOLB   C1A 1637   0.406  12.701  27.508  0.2717 -0.3393 -0.0073
   69BOLB   C2A 1638   0.398  12.888  27.864  0.0367 -0.0776 -0.0328
   69BOLB   C3A 1639   0.584  13.275  28.095  0.0516  0.2867  0.1111
   69BOLB   C4A 1640   0.636  13.669  28.118  0.1832 -0.0712 -0.0269
   69BOLB   C1B 1641   0.086  12.361  27.485 -0.1620  0.1087  0.0817
   69BOLB   C2B 1642   0.443  12.240  27.684  0.0216 -0.1183 -0.0468
   69BOLB   C3B 1643   0.781  12.199  27.469 -0.0225 -0.1050 -0.0509
   69BOLB   C4B 1644   1.150  11.875  27.446  0.1273  0.0381  0.1745
   69BOLB   NC2 1645   2.626  13.214  26.968  0.0878 -0.3460 -0.0318
   69BOLB   PO2 1646   2.563  13.618  26.667 -0.1613  0.3351  0.0422
   69BOLB   GL3 1647   2.178  13.627  26.969  0.0463 -0.0038  0.0763
   69BOLB   GL4 1648   2.204  13.304  27.223  0.2895 -0.2054 -0.0616
   69BOLB   C1C 1649   1.888  13.910  27.218 -0.0420  0.1502 -0.1668
   69BOLB   C2C 1650   1.412  13.970  27.305  0.0464 -0.0094 -0.1124
   69BOLB   C3C 1651   1.279  14.046  27.666  0.0278  0.1434 -0.3841
   69BOLB   C4C 1652   0.921  13.931  27.862  0.1346  0.0846  0.2573
   69BOLB   C1D 1653   1.990  13.491  27.493 -0.3484  0.1755 -0.1245
   69BOLB   C2D 1654   1.820  13.845  27.772 -0.0622 -0.1136 -0.1493
   69BOLB   C3D 1655   1.958  13.685  28.170 -0.0624 -0.1589  0.0839
   69BOLB   C4D 1656   2.067  13.265  28.222 -0.0318  0.3102  0.4359
   70BOLB   NC1 1657   2.635  23.286  24.803 -0.0970  0.0052 -0.0344
   70BOLB   PO1 1658   2.723  23.327  25.236 -0.0323  0.0407 -0.0651
   70BOLB   GL1 1659   2.984  23.266  25.657  0.0431  0.0095  0.0820
   70BOLB   GL2 1660   3.002  23.511  25.860 -0.1417  0.1191 -0.1502
   70BOLB   C1A 1661   3.024  23.015  26.046  0.0556 -0.0329 -0.1410
   70BOLB   C2A 1662   3.000  23.079  26.430  0.4024  0.1649 -0.2227
   70BOLB   C3A 1663   2.835  22.836  26.748  0.0121  0.1332  0.2430
   70BOLB   C4A 1664   2.615  22.705  27.132  0.0076  0.3151 -0.2559
   70BOLB   C1B 1665   3.294  23.517  26.226 -0.2094  0.1620 -0.2341
   70BOLB   C2B 1666   3.415  23.456  26.619 -0.1813 -0.1141  0.1268
   70BOLB   C3B 1667   3.369  23.093  26.888  0.0151  0.0374  0.1812
   70BOLB   C4B 1668   3.651  22.859  27.097 -0.0598  0.0382 -0.1330
   70BOLB   NC2 1669   1.201  22.454  25.439 -0.0245 -0.0627  0.2239
   70BOLB   PO2 1670   1.298  22.265  25.715 -0.0515  0.0987 -0.0165
   70BOLB   GL3 1671   1.509  22.303  26.079  0.2057 -0.1569  0.0505
   70BOLB   GL4 1672   1.863  22.197  26.066 -0.3439  0.3045  0.1027
   70BOLB   C1C 1673   1.757  22.540  26.422  0.0968 -0.0815  0.0447
   70BOLB   C2C 1674   1.689  22.883  26.728 -0.2366  0.0456  0.2076
   70BOLB   C3C 1675   1.928  23.072  27.030 -0.1230  0.0390  0.0439
   70BOLB   C4C 1676   2.225  22.782  27.216  0.2084 -0.2364 -0.0032
   70BOLB   C1D 1677   2.126  22.223  26.380 -0.1842  0.2157  0.3188
   70BOLB   C2D 1678   2.393  22.124  26.767 -0.1735  0.1322  0.0502
   70BOLB   C3D 1679   2.314  22.283  27.125 -0.0795 -0.0526 -0.0426
   70BOLB   C4D 1680   2.103  22.124  27.515 -0.0361 -0.3068 -0.2273
   71BOLB   NC1 1681   7.605  21.144  24.741 -0.1664 -0.2092  0.1716
   71BOLB   PO1 1682   7.119  21.141  24.784  0.2641  0.2572  0.0442
   71BOLB   GL1 1683   7.196  20.987  25.092 -0.0317 -0.2623 -0.0484
   71BOLB   GL2 1684   7.101  21.068  25.407 -0.0986 -0.1768  0.2554
   71BOLB   C1A 1685   7.277  20.551  25.277 -0.0122  0.0739 -0.0181
   71BOLB   C2A 1686   7.589  20.428  25.545  0.0172  0.4190  0.0173
   71BOLB   C3A 1687   7.805  20.003  25.420  0.1041 -0.0188 -0.2529
   71BOLB   C4A 1688   7.672  19.627  25.276 -0.1580  0.1214  0.1275
   71BOLB   C1B 1689   7.085  21.227  25.802 -0.0351  0.1869  0.2840
   71BOLB   C2B 1690   6.991  21.137  26.142  0.0733 -0.1344  0.1466
   71BOLB   C3B 1691   7.092  20.942  26.454 -0.1340 -0.2392 -0.3314
   71BOLB   C4B 1692   6.974  20.544  26.652  0.0801 -0.1021 -0.1116
   71BOLB   NC2 1693   8.102  17.299  24.564 -0.0052 -0.0400 -0.0691
   71BOLB   PO2 1694   8.270  17.748  24.638  0.4786  0.0302 -0.1823
   71BOLB   GL3 1695   8.031  17.850  25.108 -0.3434 -0.1058 -0.2244
   71BOLB   GL4 1696   8.065  17.476  25.148  0.2356  0.0327  0.0171
   71BOLB   C1C 1697   7.982  18.108  25.465 -0.1364  0.1484  0.2351
   71BOLB   C2C 1698   7.766  18.493  25.465  0.1760  0.1598  0.0842
   71BOLB   C3C 1699   7.548  18.792  25.188  0.2066  0.2486 -0.3408
   71BOLB   C4C 1700   7.447  19.245  25.260 -0.1051  0.0081  0.1065
   71BOLB   C1D 1701   8.252  17.606  25.467 -0.0746  0.2806  0.0393
   71BOLB   C2D 1702   8.378  17.859  25.785 -0.0479 -0.1817  0.2903
   71BOLB   C3D 1703   8.588  18.137  26.035  0.1891 -0.0561  0.1135
   71BOLB   C4D 1704   8.817  18.476  26.027 -0.1347 -0.0519  0.0705
   72BOLB   NC1 1705  30.184  15.080  10.694  0.2276 -0.0998  0.1154
   72BOLB   PO1 1706  30.555  14.956  10.888 -0.2494 -0.1949 -0.1036
   72BOLB   GL1 1707  30.661  15.425  11.072  0.0716 -0.2675  0.2292
   72BOLB   GL2 1708  30.957  15.491  11.037  0.2827 -0.1558  0.0340
   72BOLB   C1A 1709  30.678  15.907  11.027 -0.4069 -0.1819 -0.2498
   72BOLB   C2A 1710  30.963  16.229  10.837 -0.1274 -0.1947  0.0868
   72BOLB   C3A 1711  30.887  16.646  10.612 -0.2092 -0.0761  0.2077
   72BOLB   C4A 1712  30.744  16.759  10.215 -0.3070  0.0312 -0.1668
   72BOLB   C1B 1713  31.430  15.675  11.094  0.0486  0.0623 -0.1211
   72BOLB   C2B 1714  31.729  15.896  11.223  0.1045 -0.1147 -0.0108
   72BOLB   C3B 1715  31.873  16.211  11.124  0.0870 -0.0337 -0.0083
   72BOLB   C4B 1716  32.208  16.496  11.098  0.2232 -0.0315  0.0895
   72BOLB   NC2 1717  29.236  17.228   8.572  0.1800 -0.0286  0.0096
   72BOLB   PO2 1718  29.592  17.324   8.523  0.0097  0.1121 -0.3961
   72BOLB   GL3 1719  29.854  17.420   8.836 -0.0869 -0.1082  0.1042
   72BOLB   GL4 1720  29.845  17.741   9.168  0.1792  0.4255 -0.1579
   72BOLB   C1C 1721  30.197  17.177   9.093  0.3322  0.4391 -0.0611
   72BOLB   C2C 1722  30.522  16.956   9.166 -0.0710 -0.0710  0.3032
   72BOLB   C3C 1723  30.792  16.936   9.411  0.4063  0.0785 -0.3448
   72BOLB   C4C 1724  30.684  16.796   9.793  0.0872  0.2639 -0.0715
   72BOLB   C1D 1725  29.980  18.038   8.975  0.2380  0.3172  0.3156
   72BOLB   C2D 1726  29.949  18.348   8.587  0.5038 -0.0173 -0.0811
   72BOLB   C3D 1727  29.940  18.795   8.620 -0.0284 -0.0877 -0.2370
   72BOLB   C4D 1728  29.840  19.103   8.759  0.1218 -0.1945  0.0883
   73BOLB   NC1 1729  37.062  10.150   1.865  0.2454  0.1552  0.1088
   73BOLB   PO1 1730  37.425  10.228   2.111  0.2600 -0.1828  0.1206
   73BOLB   GL1 1731  37.523  10.531   2.332  0.1636  0.4420  0.2409
   73BOLB   GL2 1732  37.300  10.540   2.512  0.3200 -0.0241  0.1326
   73BOLB   C1A 1733  37.897  10.759   2.409  0.2901  0.1461  0.1008
   73BOLB   C2A 1734  37.979  10.821   2.784  0.0833 -0.0036  0.0294
   73BOLB   C3A 1735  37.851  10.724   3.174 -0.0175 -0.0985 -0.0104
   73BOLB   C4A 1736  37.860  10.701   3.614  0.0975 -0.2498  0.2026
   73BOLB   C1B 1737  37.417  10.765   2.810 -0.1175  0.1584  0.0672
   73BOLB   C2B 1738  37.292  11.169   2.860 -0.0850 -0.0470 -0.0139
   73BOLB   C3B 1739  37.019  11.534   2.704  0.2134 -0.0677 -0.1771
   73BOLB   C4B 1740  36.787  11.856   2.907 -0.3285  0.1471  0.3604
   73BOLB   NC2 1741  36.516   8.871   3.774 -0.1160 -0.2277  0.1513
   73BOLB   PO2 1742  36.890   8.859   3.951 -0.1000 -0.0021  0.1104
   73BOLB   GL3 1743  37.134   9.192   3.966  0.0273  0.1231 -0.1485
   73BOLB   GL4 1744  37.494   9.148   4.095 -0.3569  0.0407 -0.0476
   73BOLB   C1C 1745  37.345   9.569   4.111 -0.2331  0.3060  0.3022
   73BOLB   C2C 1746  37.656   9.841   4.259 -0.0727  0.0836 -0.0078
   73BOLB   C3C 1747  37.876  10.209   4.402  0.5342  0.1769  0.2160
   73BOLB   C4C 1748  38.032  10.482   3.922  0.1645 -0.2212 -0.1643
   73BOLB   C1D 1749  37.663   9.207   4.435 -0.1402 -0.3935 -0.2505
   73BOLB   C2D 1750  37.762   9.143   4.901 -0.2082  0.0732 -0.2247
   73BOLB   C3D 1751  37.720   9.078   5.369  0.1213 -0.4173  0.2728
   73BOLB   C4D 1752  37.739   9.229   5.778 -0.1371  0.1546 -0.2340
   74BOLB   NC1 1753  34.633  13.662  20.542 -0.0538 -0.0030 -0.0982
   74BOLB   PO1 1754  34.514  13.604  19.987  0.1784 -0.0875  0.3611
   74BOLB   GL1 1755  34.548  13.906  19.663 -0.0023 -0.0850  0.1761
   74BOLB   GL2 1756  34.585  13.671  19.388 -0.0026 -0.0685 -0.2261
   74BOLB   C1A 1757  34.787  14.289  19.485  0.0022  0.0233 -0.1867
   74BOLB   C2A 1758  35.175  14.479  19.593 -0.0128  0.1186 -0.2559
   74BOLB   C3A 1759  35.365  14.889  19.657  0.0626 -0.1373 -0.0465
   74BOLB   C4A 1760  35.155  15.413  19.640  0.0580 -0.3064 -0.1344
   74BOLB   C1B 1761  34.877  13.851  19.137 -0.4031 -0.0757  0.0630
   74BOLB   C2B 1762  35.134  13.878  18.753  0.1088  0.0624  0.0181
   74BOLB   C3B 1763  35.415  14.332  18.747 -0.1228  0.2787  0.3616
   74BOLB   C4B 1764  35.379  14.745  18.793 -0.2186  0.0027 -0.2585
   74BOLB   NC2 1765  33.038  14.493  20.466 -0.0575  0.2378  0.0550
   74BOLB   PO2 1766  33.083  14.277  20.003 -0.2483  0.1159 -0.3844
   74BOLB   GL3 1767  33.324  14.403  19.705 -0.1378 -0.0036  0.0782
   74BOLB   GL4 1768  33.548  14.202  19.751  0.0860  0.1911  0.0134
   74BOLB   C1C 1769  33.742  14.667  19.789  0.4488  0.0468  0.0755
   74BOLB   C2C 1770  33.955  15.082  19.735 -0.0059 -0.2393  0.0100
   74BOLB   C3C 1771  34.306  15.346  19.819 -0.0956  0.2620  0.2531
   74BOLB   C4C 1772  34.695  15.508  19.725 -0.1816 -0.1933  0.0645
   74BOLB   C1D 1773  33.763  14.306  19.404 -0.3522  0.3652 -0.0545
   74BOLB   C2D 1774  34.192  14.298  19.206 -0.0330 -0.1856  0.0477
   74BOLB   C3D 1775  34.548  14.276  18.986  0.0270 -0.2213  0.1395
   74BOLB   C4D 1776  34.682  14.021  18.709  0.0942  0.1692  0.0405
   75BOLB   NC1 1777  32.037  11.589  12.702 -0.1941 -0.1690 -0.0327
   75BOLB   PO1 1778  32.455  11.659  12.559 -0.1336  0.1618 -0.0548
   75BOLB   GL1 1779  32.956  11.840  12.472  0.1596 -0.1981  0.1726
   75BOLB   GL2 1780  32.937  11.838  12.195  0.3321  0.0744 -0.2457
   75BOLB   C1A 1781  33.136  12.242  12.344  0.0881  0.0755  0.1122
   75BOLB   C2A 1782  33.469  12.320  12.116 -0.0629 -0.0034  0.0053
   75BOLB   C3A 1783  33.700  12.707  12.088 -0.0253 -0.1071 -0.3200
   75BOLB   C4A 1784  33.652  13.076  11.926  0.0868 -0.1156 -0.2944
   75BOLB   C1B 1785  33.390  11.863  12.166  0.3248  0.1014  0.0003
   75BOLB   C2B 1786  33.857  12.044  12.156 -0.0029  0.0954  0.0200
   75BOLB   C3B 1787  34.039  12.351  11.964 -0.0926 -0.0517 -0.0934
   75BOLB   C4B 1788  33.919  12.592  11.567  0.2695 -0.1319  0.1133
   75BOLB   NC2 1789  31.298  13.118  12.206 -0.0558 -0.0012 -0.5147
   75BOLB   PO2 1790  31.410  13.175  11.819 -0.0345 -0.0283 -0.0072
   75BOLB   GL3 1791  31.697  13.116  11.545 -0.1495 -0.2403 -0.3157
   75BOLB   GL4 1792  31.679  13.321  11.288 -0.0430 -0.0322  0.3629
   75BOLB   C1C 1793  32.122  13.207  11.402  0.1111  0.1417 -0.1829
   75BOLB   C2C 1794  32.562  13.402  11.530 -0.1148 -0.0544  0.0635
   75BOLB   C3C 1795  32.921  13.584  11.728 -0.0871  0.1358 -0.3542
   75BOLB   C4C 1796  33.325  13.471  11.859 -0.2995 -0.0047  0.0917
   75BOLB   C1D 1797  31.947  13.637  11.148  0.0850  0.3180 -0.2415
   75BOLB   C2D 1798  32.431  13.787  11.083  0.0997  0.1161  0.0110
   75BOLB   C3D 1799  32.750  13.759  10.709  0.1797 -0.3699  0.4828
   75BOLB   C4D 1800  33.112  13.573  10.441  0.1393  0.2700  0.1182
   76BOLB   NC1 1801  10.983  20.178  16.780  0.0391  0.0131 -0.3058
   76BOLB   PO1 1802  11.111  19.981  17.079  0.0189 -0.1860 -0.0961
   76BOLB   GL1 1803  11.440  19.882  17.380  0.4082 -0.2279  0.0583
   76BOLB   GL2 1804  11.531  19.586  17.336  0.2935  0.1163 -0.1491
   76BOLB   C1A 1805  11.698  19.849  17.681  0.1355 -0.1556 -0.3436
   76BOLB   C2A 1806  11.955  19.724  17.983 -0.2295  0.2323  0.1780
   76BOLB   C3A 1807  12.157  19.842  18.290  0.2465 -0.0918 -0.0247
   76BOLB   C4A 1808  12.330  19.648  18.620  0.1946 -0.1805 -0.1634
   76BOLB   C1B 1809  11.876  19.411  17.375 -0.0743 -0.0267  0.0302
   76BOLB   C2B 1810  12.251  19.425  17.577 -0.2802  0.1115 -0.0639
   76BOLB   C3B 1811  12.656  19.210  17.798  0.0191  0.1080 -0.0119
   76BOLB   C4B 1812  12.805  18.965  18.115  0.2364 -0.1779  0.3331
   76BOLB   NC2 1813  13.523  18.811  20.823 -0.0205  0.0516 -0.0441
   76BOLB   PO2 1814  13.285  19.068  20.558  0.0359 -0.0137 -0.3698
   76BOLB   GL3 1815  13.221  19.342  20.228 -0.0252 -0.0743  0.0359
   76BOLB   GL4 1816  13.073  19.645  20.343 -0.1924  0.0366  0.2798
   76BOLB   C1C 1817  13.140  19.664  19.893 -0.0088  0.0449 -0.2629
   76BOLB   C2C 1818  13.124  19.569  19.488  0.0103 -0.0775  0.2134
   76BOLB   C3C 1819  12.770  19.447  19.279 -0.0485 -0.0313  0.1985
   76BOLB   C4C 1820  12.428  19.404  19.023 -0.0607  0.2388  0.4069
   76BOLB   C1D 1821  12.706  19.403  20.265  0.2505 -0.1233  0.0765
   76BOLB   C2D 1822  12.523  19.105  20.032  0.1564 -0.1776 -0.2559
   76BOLB   C3D 1823  12.087  19.045  20.001 -0.3045 -0.0167 -0.0501
   76BOLB   C4D 1824  11.738  19.262  19.825 -0.0880 -0.3094 -0.0298
   77BOLB   NC1 1825   5.037  14.099  12.656 -0.1046  0.1366 -0.0870
   77BOLB   PO1 1826   5.082  13.773  12.441  0.1247 -0.0790  0.1082
   77BOLB   GL1 1827   4.926  13.577  12.849 -0.1448  0.1574  0.1282
   77BOLB   GL2 1828   5.118  13.295  13.021  0.0940 -0.2614 -0.5432
   77BOLB   C1A 1829   4.661  13.317  13.150  0.3656 -0.0566 -0.2765
   77BOLB   C2A 1830   4.566  12.892  13.428  0.0497 -0.1995 -0.1104
   77BOLB   C3A 1831   4.524  12.526  13.797  0.1793  0.1041  0.1037
   77BOLB   C4A 1832   4.724  12.215  14.176 -0.2394  0.2596 -0.0357
   77BOLB   C1B 1833   4.864  12.808  13.073 -0.2106  0.2561  0.1649
   77BOLB   C2B 1834   4.642  12.425  13.054 -0.1270 -0.1528  0.0268
   77BOLB   C3B 1835   4.451  12.167  13.460  0.1948 -0.0948 -0.0838
   77BOLB   C4B 1836   4.436  11.994  13.841  0.1191 -0.1540 -0.0862
   77BOLB   NC2 1837   5.229  10.151  16.189 -0.0370 -0.2022  0.0631
   77BOLB   PO2 1838   5.346  10.661  16.001 -0.5695  0.2906  0.0641
   77BOLB   GL3 1839   5.099  10.823  15.670 -0.2708  0.3262  0.0568
   77BOLB   GL4 1840   5.414  10.811  15.465 -0.2487 -0.0776 -0.0788
   77BOLB   C1C 1841   4.883  11.016  15.244  0.1756 -0.2858 -0.0514
   77BOLB   C2C 1842   4.582  11.254  14.945  0.2999 -0.1254 -0.3136
   77BOLB   C3C 1843   4.468  11.747  14.787  0.0946 -0.1053 -0.0808
   77BOLB   C4C 1844   4.632  11.970  14.446  0.0721  0.0323  0.0178
   77BOLB   C1D 1845   5.391  11.162  15.218  0.0594  0.1503  0.0549
   77BOLB   C2D 1846   5.085  11.492  15.189 -0.0312  0.1191  0.0380
   77BOLB   C3D 1847   4.714  11.698  15.199 -0.0426 -0.2120 -0.1361
   77BOLB   C4D 1848   4.471  12.134  15.230 -0.2226 -0.1074  0.0148
   78BOLB   NC1 1849  10.215  16.866  25.827 -0.0692 -0.1613 -0.4189
   78BOLB   PO1 1850  10.338  16.899  25.523  0.0459 -0.0804 -0.3026
   78BOLB   GL1 1851  10.171  17.320  25.622  0.0316 -0.0422 -0.0905
   78BOLB   GL2 1852  10.447  17.387  25.707 -0.1212 -0.1400  0.0716
   78BOLB   C1A 1853   9.717  17.487  25.822 -0.1800  0.0710 -0.3725
   78BOLB   C2A 1854   9.423  17.772  26.125  0.2138 -0.0052  0.1207
   78BOLB   C3A 1855   9.318  18.125  26.481 -0.0317  0.0225  0.1663
   78BOLB   C4A 1856   8.911  18.199  26.496 -0.1617 -0.0640  0.2856
   78BOLB   C1B 1857  10.368  17.714  25.942  0.1749 -0.1349  0.0377
   78BOLB   C2B 1858  10.337  17.961  26.286 -0.0513  0.0851 -0.0707
   78BOLB   C3B 1859  10.171  18.096  26.720  0.1674 -0.4070 -0.0067
   78BOLB   C4B 1860   9.792  18.134  26.900  0.1831 -0.0926  0.0447
   78BOLB   NC2 1861   7.359  18.283  24.481  0.2807 -0.1662  0.0436
   78BOLB   PO2 1862   7.216  17.983  24.861 -0.1644 -0.0812 -0.1584
   78BOLB   GL3 1863   7.339  17.811  25.255 -0.1834 -0.0571  0.0632
   78BOLB   GL4 1864   7.392  18.096  25.476 -0.1306 -0.1998  0.1634
   78BOLB   C1C 1865   7.690  17.712  25.563  0.0391 -0.0585 -0.3145
   78BOLB   C2C 1866   7.926  17.730  25.924  0.3214  0.0326 -0.2810
   78BOLB   C3C 1867   8.097  17.914  26.235 -0.0431  0.3528 -0.0977
   78BOLB   C4C 1868   8.460  18.059  26.513  0.0476 -0.2868 -0.2105
   78BOLB   C1D 1869   7.559  18.230  25.879  0.0755 -0.1527  0.1442
   78BOLB   C2D 1870   7.817  18.373  26.299  0.2501  0.1919  0.1535
   78BOLB   C3D 1871   8.124  18.566  26.485  0.2863 -0.0205  0.0244
   78BOLB   C4D 1872   8.563  18.575  26.510  0.0687 -0.2074 -0.2174
   79BOLB   NC1 1873  12.335  18.655  15.460 -0.1305  0.7271 -0.0626
   79BOLB   PO1 1874  12.351  18.337  15.161  0.1256  0.0022  0.0713
   79BOLB   GL1 1875  12.590  18.114  15.414  0.3223 -0.1844 -0.2607
   79BOLB   GL2 1876  12.830  18.274  15.473  0.1638  0.2268 -0.0109
   79BOLB   C1A 1877  12.815  17.665  15.639 -0.0787  0.0164 -0.2757
   79BOLB   C2A 1878  13.042  17.287  15.491 -0.1611  0.0798 -0.0441
   79BOLB   C3A 1879  12.925  16.905  15.492 -0.2746 -0.0540  0.0466
   79BOLB   C4A 1880  12.828  16.583  15.796  0.0057  0.3464  0.2085
   79BOLB   C1B 1881  13.212  18.460  15.243  0.0187 -0.0827 -0.0148
   79BOLB   C2B 1882  13.527  18.595  15.393  0.5686  0.0453 -0.0536
   79BOLB   C3B 1883  13.752  18.392  15.621 -0.1318 -0.1875 -0.2288
   79BOLB   C4B 1884  14.018  18.219  15.874  0.0707  0.0301 -0.0535
   79BOLB   NC2 1885  14.631  15.918  17.321 -0.1553 -0.1547  0.0987
   79BOLB   PO2 1886  14.475  15.849  17.520  0.1505 -0.0953 -0.1407
   79BOLB   GL3 1887  14.163  16.036  17.349 -0.0372  0.1732  0.1540
   79BOLB   GL4 1888  14.326  16.295  17.064  0.3076 -0.0790  0.1948
   79BOLB   C1C 1889  13.981  15.919  17.027  0.2347 -0.0994 -0.1611
   79BOLB   C2C 1890  13.577  15.870  16.778 -0.0283 -0.0547  0.3350
   79BOLB   C3C 1891  13.380  16.015  16.306 -0.2960  0.0829 -0.1949
   79BOLB   C4C 1892  13.089  16.236  16.076 -0.2691  0.0787 -0.3604
   79BOLB   C1D 1893  14.070  16.620  16.777  0.2009  0.0584  0.0536
   79BOLB   C2D 1894  14.140  16.597  16.412  0.0048  0.3200  0.1113
   79BOLB   C3D 1895  14.343  16.374  16.073 -0.1413 -0.1743 -0.3192
   79BOLB   C4D 1896  14.548  16.009  15.935 -0.2380  0.0431 -0.2389
   80BOLB   NC1 1897  12.680  16.633   6.523  0.1065  0.0180  0.2017
   80BOLB   PO1 1898  12.494  16.139   6.435  0.6028 -0.2713  0.1235
   80BOLB   GL1 1899  12.527  15.824   6.484 -0.0713 -0.2900  0.1355
   80BOLB   GL2 1900  12.428  15.668   6.282  0.1859 -0.1044  0.1844
   80BOLB   C1A 1901  12.815  15.514   6.720 -0.3836  0.1344  0.1917
   80BOLB   C2A 1902  12.996  15.122   6.744 -0.1003  0.1030  0.3534
   80BOLB   C3A 1903  13.264  14.764   6.586  0.1089  0.2511  0.0358
   80BOLB   C4A 1904  13.494  14.735   6.325  0.0717  0.0889 -0.1327
   80BOLB   C1B 1905  12.618  15.601   5.889 -0.3201 -0.0386  0.0313
   80BOLB   C2B 1906  12.732  15.420   5.478 -0.2144 -0.2634  0.1473
   80BOLB   C3B 1907  12.807  15.191   5.160  0.1940  0.3050 -0.1496
   80BOLB   C4B 1908  13.127  15.034   4.941 -0.0133  0.0119 -0.2695
   80BOLB   NC2 1909  15.498  13.766   5.434 -0.0044 -0.2923 -0.2134
   80BOLB   PO2 1910  15.656  14.108   5.133  0.3675  0.0596 -0.2258
   80BOLB   GL3 1911  15.387  14.241   5.456  0.0163  0.2804 -0.3435
   80BOLB   GL4 1912  15.198  14.238   5.257  0.2525 -0.4386 -0.0694
   80BOLB   C1C 1913  14.973  14.212   5.751  0.0791 -0.0484 -0.2338
   80BOLB   C2C 1914  14.859  14.518   6.036  0.3287  0.0427 -0.1769
   80BOLB   C3C 1915  14.383  14.549   6.231  0.3057 -0.4208 -0.2596
   80BOLB   C4C 1916  13.905  14.692   6.319  0.1416  0.0936 -0.2334
   80BOLB   C1D 1917  14.764  14.365   5.083 -0.1566 -0.0103 -0.1489
   80BOLB   C2D 1918  14.311  14.527   4.959  0.2055 -0.1449 -0.3034
   80BOLB   C3D 1919  13.903  14.493   4.955 -0.2047  0.1736 -0.3417
   80BOLB   C4D 1920  13.450  14.660   4.619  0.1385  0.0948 -0.2012
   81BOLB   NC1 1921   7.127  15.790  14.491  0.1658 -0.1744  0.2743
   81BOLB   PO1 1922   7.498  15.457  14.577  0.1346 -0.2442  0.0809
   81BOLB   GL1 1923   7.452  15.246  14.992 -0.1278 -0.4955 -0.1680
   81BOLB   GL2 1924   7.412  15.291  15.249 -0.0479 -0.0772  0.2077
   81BOLB   C1A 1925   7.691  14.879  15.159  0.3031 -0.0018  0.1477
   81BOLB   C2A 1926   7.717  14.594  15.513  0.1127  0.0919 -0.2578
   81BOLB   C3A 1927   7.759  14.136  15.768  0.2181 -0.2355  0.2745
   81BOLB   C4A 1928   7.779  13.657  15.776  0.0238  0.1415 -0.2367
   81BOLB   C1B 1929   7.378  15.034  15.635  0.3043  0.0519 -0.2977
   81BOLB   C2B 1930   7.250  14.591  15.664  0.3140  0.0263  0.1986
   81BOLB   C3B 1931   7.227  14.205  15.944  0.2131 -0.1469 -0.0924
   81BOLB   C4B 1932   7.262  13.757  15.968 -0.2220 -0.1973  0.0185
   81BOLB   NC2 1933   8.020  11.210  16.889 -0.3321 -0.2395 -0.0383
   81BOLB   PO2 1934   8.466  11.484  16.836 -0.1231  0.3147 -0.3449
   81BOLB   GL3 1935   8.433  11.947  16.741  0.2279  0.3087 -0.2991
   81BOLB   GL4 1936   8.220  12.128  16.940  0.0948 -0.1731  0.3258
   81BOLB   C1C 1937   8.590  12.358  16.386  0.0316  0.1254  0.1012
   81BOLB   C2C 1938   8.596  12.655  16.080 -0.1700  0.1477 -0.0715
   81BOLB   C3C 1939   8.423  13.008  15.811 -0.1449  0.0873  0.4565
   81BOLB   C4C 1940   7.907  13.113  15.819 -0.1913 -0.0047 -0.0324
   81BOLB   C1D 1941   8.055  12.405  17.193 -0.1912 -0.1923  0.0458
   81BOLB   C2D 1942   7.652  12.615  17.126 -0.2634  0.0122 -0.0870
   81BOLB   C3D 1943   7.313  12.636  16.778 -0.2486  0.2293  0.1545
   81BOLB   C4D 1944   7.193  12.795  16.346  0.1924  0.2304 -0.1886
   82BOLB   NC1 1945   1.867  10.704  19.297 -0.2598  0.0087  0.1203
   82BOLB   PO1 1946   2.096  11.142  19.416  0.1053 -0.1482  0.1377
   82BOLB   GL1 1947   1.936  11.391  18.975 -0.1220  0.0206 -0.1562
   82BOLB   GL2 1948   1.687  11.663  18.955 -0.1038  0.3092 -0.0402
   82BOLB   C1A 1949   1.867  11.429  18.542  0.3375 -0.1766 -0.0186
   82BOLB   C2A 1950   1.607  11.529  18.236 -0.0376  0.1665 -0.1283
   82BOLB   C3A 1951   1.528  11.191  17.849 -0.2341 -0.1153  0.0084
   82BOLB   C4A 1952   1.800  11.153  17.487 -0.2272  0.0138 -0.0357
   82BOLB   C1B 1953   2.115  11.836  18.863 -0.0550 -0.1120 -0.1462
   82BOLB   C2B 1954   2.218  12.002  18.405 -0.2752  0.1084  0.3106
   82BOLB   C3B 1955   2.248  11.741  18.137  0.0582  0.4054 -0.0522
   82BOLB   C4B 1956   2.068  11.238  18.130 -0.0703  0.0214  0.0457
   82BOLB   NC2 1957   3.876  10.662  17.435 -0.0633 -0.2868 -0.4608
   82BOLB   PO2 1958   4.081  11.053  17.417  0.1316 -0.3967  0.2655
   82BOLB   GL3 1959   3.645  11.162  17.285  0.1593  0.1133 -0.0435
   82BOLB   GL4 1960   3.455  10.943  17.498 -0.1237 -0.0897  0.0099
   82BOLB   C1C 1961   3.378  11.210  16.939 -0.1277  0.0483  0.0489
   82BOLB   C2C 1962   2.945  11.384  16.838 -0.2383  0.0167 -0.0067
   82BOLB   C3C 1963   2.484  11.364  16.819 -0.1080  0.4717 -0.0599
   82BOLB   C4C 1964   2.127  11.416  17.170  0.3009 -0.1755 -0.0473
   82BOLB   C1D 1965   3.069  11.143  17.400  0.0169 -0.2581  0.1336
   82BOLB   C2D 1966   2.868  11.547  17.279  0.1909 -0.0923  0.0452
   82BOLB   C3D 1967   2.949  12.000  17.076 -0.0038 -0.4413  0.2069
   82BOLB   C4D 1968   2.903  12.409  17.188 -0.3908 -0.0987 -0.2958
   83BOLB   NC1 1969  34.353  10.004  15.585 -0.0873 -0.0496 -0.2012
   83BOLB   PO1 1970  34.565  10.344  15.407  0.0899 -0.3135 -0.0356
   83BOLB   GL1 1971  34.982  10.423  15.367 -0.2197 -0.3882 -0.1168
   83BOLB   GL2 1972  35.078  10.122  15.344 -0.0636  0.3161 -0.1866
   83BOLB   C1A 1973  35.138  10.959  15.320  0.4594 -0.1451  0.0454
   83BOLB   C2A 1974  35.607  11.117  15.371  0.0651  0.3823  0.1009
   83BOLB   C3A 1975  35.904  10.914  15.122  0.1563 -0.1158  0.1807
   83BOLB   C4A 1976  36.185  10.720  15.263  0.0734 -0.2544 -0.0105
   83BOLB   C1B 1977  35.479  10.472  15.298  0.2192 -0.1416  0.2567
   83BOLB   C2B 1978  35.411  10.823  14.957  0.0163 -0.1799  0.1584
   83BOLB   C3B 1979  35.407  11.324  14.946 -0.2731  0.1889 -0.1206
   83BOLB   C4B 1980  35.483  11.507  14.508 -0.3272 -0.0971  0.0582
   83BOLB   NC2 1981  35.885   8.886  15.723  0.3123 -0.0630 -0.2838
   83BOLB   PO2 1982  36.057   9.159  16.173  0.1332 -0.0635 -0.1843
   83BOLB   GL3 1983  36.350   9.440  16.202  0.1078 -0.1574 -0.1208
   83BOLB   GL4 1984  36.621   9.285  16.313  0.0546  0.1455  0.0891
   83BOLB   C1C 1985  36.352   9.744  15.900 -0.2823  0.1955 -0.1111
   83BOLB   C2C 1986  36.658  10.140  15.931 -0.1511  0.2906 -0.0285
   83BOLB   C3C 1987  36.855  10.375  15.628  0.0785 -0.1063 -0.2756
   83BOLB   C4C 1988  36.585  10.425  15.262  0.1721  0.1660 -0.1766
   83BOLB   C1D 1989  36.842   9.656  16.092 -0.1974 -0.1145 -0.3826
   83BOLB   C2D 1990  37.143   9.965  15.844  0.0830  0.3521  0.0877
   83BOLB   C3D 1991  37.354  10.322  15.611 -0.3162  0.0249  0.1515
   83BOLB   C4D 1992  37.564  10.793  15.574 -0.1199  0.2381 -0.2701
   84BOLB   NC1 1993  36.387  10.242   3.031  0.0935  0.0887 -0.0730
   84BOLB   PO1 1994  36.376  10.336   3.319 -0.0085  0.2439 -0.0956
   84BOLB   GL1 1995  36.495  10.724   3.244 -0.1118 -0.5645  0.1080
   84BOLB   GL2 1996  36.452  10.795   2.955 -0.0625  0.1145  0.4464
   84BOLB   C1A 1997  36.718  10.957   3.500 -0.0605  0.1656 -0.0873
   84BOLB   C2A 1998  36.763  11.341   3.617  0.1499  0.1746 -0.1418
   84BOLB   C3A 1999  36.839  11.679   3.509 -0.0027 -0.1847 -0.2503
   84BOLB   C4A 2000  37.194  11.791   3.223  0.0411 -0.2631 -0.2627
   84BOLB   C1B 2001  36.639  11.162   2.891 -0.0749 -0.1099 -0.0270
   84BOLB   C2B 2002  36.958  11.355   3.154  0.2564 -0.1742  0.0657
   84BOLB   C3B 2003  37.263  11.379   3.510  0.2290  0.2468  0.0510
   84BOLB   C4B 2004  37.638  11.235   3.612 -0.0489  0.0284 -0.0124
   84BOLB   NC2 2005  37.667  10.554   1.739 -0.0046 -0.1495  0.0191
   84BOLB   PO2 2006  37.146  10.623   1.738 -0.1557  0.0931 -0.5599
   84BOLB   GL3 2007  37.289  10.848   1.995 -0.0200  0.1989  0.0789
   84BOLB   GL4 2008  37.096  11.043   2.077 -0.0407 -0.1587 -0.2200
   84BOLB   C1C 2009  37.463  11.062   2.409 -0.2123 -0.0582 -0.2973
   84BOLB   C2C 2010  37.757  11.291   2.648 -0.0317  0.0578  0.1028
   84BOLB   C3C 2011  37.746  11.318   3.038  0.1338  0.2753  0.0862
   84BOLB   C4C 2012  37.511  11.674   3.078  0.3601 -0.2851 -0.0441
   84BOLB   C1D 2013  37.222  11.536   2.242  0.0314  0.0152 -0.0761
   84BOLB   C2D 2014  37.006  11.864   2.337 -0.2628 -0.3852  0.1714
   84BOLB   C3D 2015  36.879  12.281   2.509  0.0123 -0.0619  0.3586
   84BOLB   C4D 2016  36.727  12.713   2.615 -0.1302  0.1330  0.2462
   85BOLB   NC1 2017  12.867  26.284  10.386 -0.3348 -0.0864 -0.2837
   85BOLB   PO1 2018  13.172  26.399   9.961 -0.0233  0.1077  0.3245
   85BOLB   GL1 2019  13.417  26.690   9.674  0.2258 -0.0975  0.0485
   85BOLB   GL2 2020  13.521  26.515   9.373 -0.2745  0.0942  0.1339
   85BOLB   C1A 2021  13.733  27.028   9.836 -0.4274  0.3027  0.0195
   85BOLB   C2A 2022  13.854  27.264   9.656 -0.3082  0.2651  0.0463
   85BOLB   C3A 2023  13.970  27.665   9.761  0.0557 -0.1879 -0.1743
   85BOLB   C4A 2024  14.270  27.897  10.005 -0.1130 -0.0246  0.0618
   85BOLB   C1B 2025  13.834  26.763   9.325 -0.2796  0.2083 -0.1309
   85BOLB   C2B 2026  14.224  26.910   9.532 -0.0428 -0.2990  0.1785
   85BOLB   C3B 2027  14.664  26.890   9.812  0.3276 -0.1960  0.1129
   85BOLB   C4B 2028  14.771  26.561  10.077  0.0003 -0.1884  0.0549
   85BOLB   NC2 2029  16.342  28.966  10.717  0.4176 -0.2032  0.1546
   85BOLB   PO2 2030  16.071  29.144  10.396 -0.4571  0.1291 -0.1055
   85BOLB   GL3 2031  15.697  29.044  10.228  0.1465  0.1329  0.0802
   85BOLB   GL4 2032  15.650  28.857   9.987 -0.1245 -0.2185  0.0361
   85BOLB   C1C 2033  15.244  28.899  10.242 -0.2295  0.0266 -0.0612
   85BOLB   C2C 2034  14.871  28.785  10.191 -0.2382 -0.0355 -0.0720
   85BOLB   C3C 2035  14.607  28.526  10.190 -0.3200  0.1022 -0.1883
   85BOLB   C4C 2036  14.408  28.192  10.134 -0.0844  0.0482  0.2105
   85BOLB   C1D 2037  15.451  28.559   9.888  0.0108 -0.3588  0.0717
   85BOLB   C2D 2038  15.342  28.154   9.842 -0.2307 -0.2091  0.0732
   85BOLB   C3D 2039  15.146  27.730   9.915 -0.3809 -0.0513  0.3463
   85BOLB   C4D 2040  14.907  27.305  10.014  0.0719  0.1304  0.0577
   86BOLB   NC1 2041   0.868  21.229  15.627 -0.3087  0.3440  0.0099
   86BOLB   PO1 2042   0.521  21.243  15.932  0.1813 -0.0638  0.1887
   86BOLB   GL1 2043   0.249  21.275  16.285  0.3049 -0.1540 -0.0105
   86BOLB   GL2 2044   0.391  21.498  16.558  0.0120  0.2354  0.1536
   86BOLB   C1A 2045  -0.098  21.259  16.656 -0.0316 -0.1755 -0.0745
   86BOLB   C2A 2046  -0.273  21.535  16.975  0.2220 -0.0249 -0.2471
   86BOLB   C3A 2047  -0.630  21.743  17.010 -0.0114 -0.0385 -0.1711
   86BOLB   C4A 2048  -0.956  21.586  17.052 -0.0360  0.3546 -0.0675
   86BOLB   C1B 2049   0.038  21.761  16.656  0.0606 -0.0853  0.0230
   86BOLB   C2B 2050  -0.168  22.014  16.932  0.1837 -0.0288  0.0548
   86BOLB   C3B 2051  -0.488  22.246  17.261 -0.1765  0.0350  0.0286
   86BOLB   C4B 2052  -0.594  22.023  17.687  0.0301  0.2372 -0.1341
   86BOLB   NC2 2053  -2.587  23.083  18.281  0.2323 -0.3138  0.1816
   86BOLB   PO2 2054  -2.515  22.843  18.579 -0.0793  0.4259 -0.0685
   86BOLB   GL3 2055  -2.306  22.753  18.043  0.1664 -0.2431  0.2769
   86BOLB   GL4 2056  -2.253  23.161  17.920  0.1815 -0.0905 -0.0356
   86BOLB   C1C 2057  -2.204  22.406  17.808 -0.3221  0.0017 -0.0670
   86BOLB   C2C 2058  -1.979  22.133  17.627  0.2127  0.0519 -0.2941
   86BOLB   C3C 2059  -1.711  21.929  17.296 -0.2195 -0.1034  0.4272
   86BOLB   C4C 2060  -1.390  21.706  17.075  0.0586 -0.3403 -0.0453
   86BOLB   C1D 2061  -2.003  23.487  17.689 -0.2580  0.2347  0.1645
   86BOLB   C2D 2062  -1.824  23.608  17.332 -0.2128  0.2411  0.2132
   86BOLB   C3D 2063  -1.396  23.547  17.183 -0.1480  0.1183 -0.4143
   86BOLB   C4D 2064  -1.104  23.921  16.939  0.0197  0.1841  0.0724
   87BOLB   NC1 2065  30.108  22.040   5.899 -0.0236  0.1993  0.2089
   87BOLB   PO1 2066  29.954  21.750   5.534  0.1430  0.1082 -0.2577
   87BOLB   GL1 2067  30.386  21.591   5.797 -0.1136 -0.1004 -0.0684
   87BOLB   GL2 2068  30.606  21.541   5.539  0.1397 -0.0612  0.0235
   87BOLB   C1A 2069  30.712  21.231   5.940  0.3316  0.3024  0.3250
   87BOLB   C2A 2070  31.081  20.955   5.899  0.0897 -0.1958 -0.0548
   87BOLB   C3A 2071  31.456  20.697   5.714  0.1894 -0.1551 -0.1529
   87BOLB   C4A 2072  31.611  20.396   5.415  0.1099 -0.3986  0.1346
   87BOLB   C1B 2073  30.915  21.590   5.213  0.0434 -0.0976  0.2604
   87BOLB   C2B 2074  31.057  21.714   4.781  0.0025  0.1308  0.0572
   87BOLB   C3B 2075  31.480  21.703   4.661 -0.1958 -0.2694 -0.0165
   87BOLB   C4B 2076  31.615  21.982   4.451  0.0314 -0.1561 -0.2271
   87BOLB   NC2 2077  30.337  19.412   4.071 -0.1773  0.0543 -0.0635
   87BOLB   PO2 2078  30.302  19.536   4.447  0.2875  0.1122 -0.0714
   87BOLB   GL3 2079  30.673  19.514   4.801 -0.0523 -0.3272  0.0991
   87BOLB   GL4 2080  30.817  19.736   5.153  0.0237  0.2027  0.1484
   87BOLB   C1C 2081  31.117  19.341   4.730  0.1411  0.3457  0.0844
   87BOLB   C2C 2082  31.481  19.546   4.719 -0.1468  0.0356 -0.3120
   87BOLB   C3C 2083  31.644  19.938   4.901 -0.2027  0.1902  0.1543
   87BOLB   C4C 2084  31.737  20.107   5.222 -0.1445  0.0049  0.1336
   87BOLB   C1D 2085  31.081  19.404   5.216 -0.0042  0.0504  0.0306
   87BOLB   C2D 2086  31.551  19.247   5.138 -0.0658  0.0690 -0.3420
   87BOLB   C3D 2087  31.886  19.395   5.339 -0.0206 -0.2415 -0.1994
   87BOLB   C4D 2088  32.013  19.658   5.669  0.2984  0.1626 -0.1457
   88BOLB   NC1 2089   6.801  13.850  13.863 -0.1403  0.0891 -0.1725
   88BOLB   PO1 2090   7.217  13.921  13.615 -0.4025 -0.1710  0.0652
   88BOLB   GL1 2091   7.208  13.552  13.675  0.1100 -0.1223 -0.2159
   88BOLB   GL2 2092   7.249  13.262  13.494  0.2153 -0.2086  0.1846
   88BOLB   C1A 2093   7.332  13.352  13.951  0.1917  0.0466  0.0226
   88BOLB   C2A 2094   7.486  12.912  13.961 -0.1406  0.0203  0.0393
   88BOLB   C3A 2095   7.596  12.580  14.146 -0.2335  0.0442 -0.1376
   88BOLB   C4A 2096   7.762  12.136  14.039 -0.3144 -0.2080 -0.1194
   88BOLB   C1B 2097   7.491  12.891  13.460  0.0087  0.0527 -0.1425
   88BOLB   C2B 2098   7.873  12.816  13.673 -0.1499  0.0247 -0.1629
   88BOLB   C3B 2099   8.203  12.552  13.519  0.0827  0.1328 -0.0882
   88BOLB   C4B 2100   8.322  12.537  13.135 -0.0833 -0.2785  0.0672
   88BOLB   NC2 2101   8.417  11.061  15.886 -0.0043 -0.1504 -0.1858
   88BOLB   PO2 2102   7.996  10.817  15.973  0.0357  0.0234  0.1010
   88BOLB   GL3 2103   7.913  11.141  15.712 -0.0587  0.0896  0.1517
   88BOLB   GL4 2104   7.691  11.267  15.820  0.0202  0.1631  0.0208
   88BOLB   C1C 2105   7.939  11.258  15.246  0.3180 -0.2413  0.0411
   88BOLB   C2C 2106   7.729  11.351  14.898  0.0753  0.1363 -0.0019
   88BOLB   C3C 2107   7.830  11.579  14.592 -0.0196 -0.1381  0.2637
   88BOLB   C4C 2108   7.899  11.793  14.152  0.0016 -0.3509 -0.1112
   88BOLB   C1D 2109   7.483  11.639  15.653  0.0608  0.1057 -0.0335
   88BOLB   C2D 2110   7.508  12.041  15.400 -0.2808 -0.0441  0.0173
   88BOLB   C3D 2111   7.452  12.404  15.201  0.0416 -0.2381  0.0205
   88BOLB   C4D 2112   7.455  12.436  14.693  0.2377  0.0075  0.0729
   89BOLB   NC1 2113   1.228   6.298  10.707 -0.2378 -0.0835 -0.3167
   89BOLB   PO1 2114   1.097   6.331  10.185 -0.1128  0.1608  0.1484
   89BOLB   GL1 2115   1.221   6.707  10.197  0.3107 -0.0993 -0.2655
   89BOLB   GL2 2116   0.922   6.874  10.056 -0.2284  0.3401 -0.1006
   89BOLB   C1A 2117   1.428   7.065  10.224 -0.3104  0.0291  0.2684
   89BOLB   C2A 2118   1.251   7.491   9.969 -0.0507 -0.0448 -0.0050
   89BOLB   C3A 2119   1.283   7.996   9.834  0.2274  0.0999  0.0972
   89BOLB   C4A 2120   1.461   8.063   9.447 -0.0838 -0.0110  0.0586
   89BOLB   C1B 2121   0.814   7.230  10.353 -0.0661 -0.0761  0.1585
   89BOLB   C2B 2122   0.927   7.704  10.325 -0.0492  0.1063 -0.0054
   89BOLB   C3B 2123   1.022   7.945  10.626  0.2906  0.0222 -0.0231
   89BOLB   C4B 2124   1.376   7.870  11.011 -0.1458 -0.3518  0.3418
   89BOLB   NC2 2125   3.044   6.612   8.487 -0.1707  0.1363 -0.2821
   89BOLB   PO2 2126   2.692   6.536   8.208 -0.2120  0.1824 -0.2912
   89BOLB   GL3 2127   2.561   6.813   8.457 -0.0142 -0.2158 -0.3639
   89BOLB   GL4 2128   2.373   6.934   8.200 -0.1257 -0.3743 -0.1164
   89BOLB   C1C 2129   2.551   7.184   8.628  0.1472 -0.2035  0.0020
   89BOLB   C2C 2130   2.180   7.548   8.711  0.3183 -0.1061 -0.1704
   89BOLB   C3C 2131   1.997   7.746   8.972  0.3394  0.4468  0.1574
   89BOLB   C4C 2132   1.815   8.035   9.272 -0.2888  0.1270  0.1856
   89BOLB   C1D 2133   2.125   7.274   8.367 -0.0042 -0.0182 -0.0382
   89BOLB   C2D 2134   2.009   7.706   8.298 -0.3568  0.0527  0.0503
   89BOLB   C3D 2135   1.782   8.100   8.278  0.2370 -0.2231 -0.2006
   89BOLB   C4D 2136   1.578   8.404   8.346 -0.1440 -0.1225 -0.3280
   90BOLB   NC1 2137  37.862   9.364  17.498  0.3430 -0.1186  0.2896
   90BOLB   PO1 2138  37.431   9.345  17.288 -0.1877 -0.2619  0.2647
   90BOLB   GL1 2139  37.691   9.589  16.995 -0.1411  0.0792 -0.0310
   90BOLB   GL2 2140  38.047   9.569  17.034 -0.1432  0.0387  0.1606
   90BOLB   C1A 2141  37.836   9.680  16.554  0.3760 -0.1337 -0.2096
   90BOLB   C2A 2142  37.869   9.599  16.189  0.1168 -0.1571  0.5512
   90BOLB   C3A 2143  37.867   9.599  15.683 -0.0278  0.2917  0.1686
   90BOLB   C4A 2144  37.691   9.451  15.325  0.3510  0.0922  0.1259
   90BOLB   C1B 2145  37.920  10.035  16.948  0.0233  0.1146 -0.1790
   90BOLB   C2B 2146  37.976  10.429  16.835  0.0078 -0.3676 -0.1231
   90BOLB   C3B 2147  38.168  10.859  16.806  0.3285  0.2292 -0.2104
   90BOLB   C4B 2148  38.510  11.145  16.783  0.0422 -0.0473  0.0669
   90BOLB   NC2 2149  36.397   7.587  15.396 -0.2812  0.0196  0.0032
   90BOLB   PO2 2150  36.722   7.744  15.152  0.3431 -0.0284 -0.0833
   90BOLB   GL3 2151  36.730   8.151  14.901 -0.0457  0.1702 -0.2390
   90BOLB   GL4 2152  37.093   8.309  14.917  0.0870  0.0913  0.1408
   90BOLB   C1C 2153  36.533   8.682  14.930 -0.3653  0.0636 -0.0717
   90BOLB   C2C 2154  36.679   9.031  14.843  0.2658  0.1165  0.3990
   90BOLB   C3C 2155  37.102   9.243  14.714  0.0126  0.1620 -0.2554
   90BOLB   C4C 2156  37.492   9.339  14.817 -0.2437 -0.1796  0.0592
   90BOLB   C1D 2157  36.909   8.562  15.280  0.3776 -0.2475  0.0246
   90BOLB   C2D 2158  37.006   9.062  15.406  0.0259  0.0635 -0.1404
   90BOLB   C3D 2159  37.318   9.027  15.146 -0.3599  0.0312 -0.0955
   90BOLB   C4D 2160  37.724   8.964  15.265  0.0422 -0.0204 -0.3093
   91BOLB   NC1 2161   3.101  26.153  21.854  0.1395 -0.0913 -0.3013
   91BOLB   PO1 2162   2.963  26.301  21.490 -0.0674  0.2895  0.3041
   91BOLB   GL1 2163   3.019  26.112  21.034  0.0230  0.3377  0.1303
   91BOLB   GL2 2164   3.309  26.272  20.936 -0.0922 -0.1236 -0.2902
   91BOLB   C1A 2165   3.163  25.792  20.671 -0.1049 -0.2797 -0.2213
   91BOLB   C2A 2166   3.419  25.690  20.289  0.2100 -0.2601 -0.3872
   91BOLB   C3A 2167   3.312  25.568  19.922 -0.1281  0.0597  0.2484
   91BOLB   C4A 2168   3.095  25.351  19.628  0.0187 -0.0931 -0.1244
   91BOLB   C1B 2169   3.573  26.001  20.792  0.0076 -0.4931  0.2464
   91BOLB   C2B 2170   3.928  25.921  20.465  0.2896 -0.3824  0.1412
   91BOLB   C3B 2171   4.270  25.858  20.505 -0.0635  0.1714 -0.0171
   91BOLB   C4B 2172   4.507  25.817  20.798  0.0221 -0.0334 -0.2306
   91BOLB   NC2 2173   2.158  25.874  20.999 -0.1184  0.1147  0.1309
   91BOLB   PO2 2174   2.205  25.569  21.332 -0.2037 -0.1205 -0.4289
   91BOLB   GL3 2175   1.931  25.322  21.002  0.1255  0.2065 -0.3062
   91BOLB   GL4 2176   2.317  25.288  20.924  0.0633 -0.1437  0.0944
   91BOLB   C1C 2177   1.918  25.262  20.471  0.2177 -0.2061 -0.0239
   91BOLB   C2C 2178   2.222  24.955  20.201 -0.0051 -0.3962 -0.0217
   91BOLB   C3C 2179   2.475  25.005  19.732  0.2555 -0.1432 -0.0684
   91BOLB   C4C 2180   2.865  25.033  19.508  0.0072  0.2428 -0.1290
   91BOLB   C1D 2181   2.137  24.846  20.756 -0.0708 -0.1388 -0.2501
   91BOLB   C2D 2182   2.141  24.422  20.503 -0.0380  0.1378  0.0741
   91BOLB   C3D 2183   2.270  24.472  20.118 -0.3063  0.0761 -0.3081
   91BOLB   C4D 2184   2.471  24.322  19.726 -0.0032 -0.0908 -0.1103
   92BOLB   NC1 2185   3.511   9.976  17.023  0.1336  0.0936 -0.3227
   92BOLB   PO1 2186   3.898   9.868  16.758  0.1456  0.1049 -0.0107
   92BOLB   GL1 2187   3.547  10.075  16.484  0.0342  0.0827 -0.2896
   92BOLB   GL2 2188   3.230  10.032  16.607  0.0996 -0.2163  0.0647
   92BOLB   C1A 2189   3.437  10.142  16.103 -0.0251  0.1574  0.2440
   92BOLB   C2A 2190   3.452  10.235  15.625  0.2569 -0.0001 -0.0388
   92BOLB   C3A 2191   3.405  10.481  15.312 -0.0671  0.2365  0.1124
   92BOLB   C4A 2192   3.358  10.701  15.046  0.0025  0.0186 -0.0311
   92BOLB   C1B 2193   3.012  10.370  16.417 -0.1621 -0.2215 -0.0353
   92BOLB   C2B 2194   3.133  10.586  16.119 -0.0913  0.1610 -0.0730
   92BOLB   C3B 2195   3.425  10.747  15.825 -0.0471 -0.1035  0.1905
   92BOLB   C4B 2196   3.532  11.023  15.602  0.2742 -0.1155  0.0199
   92BOLB   NC2 2197   4.994   9.378  15.092 -0.2989 -0.0566 -0.2874
   92BOLB   PO2 2198   5.048   9.845  15.210  0.0311  0.1884 -0.0615
   92BOLB   GL3 2199   4.888  10.244  15.183 -0.0666 -0.2287 -0.0445
   92BOLB   GL4 2200   5.163  10.480  15.178 -0.1445 -0.1074  0.0143
   92BOLB   C1C 2201   4.650  10.602  15.436  0.0893  0.0318  0.1411
   92BOLB   C2C 2202   4.391  10.942  15.409  0.1320 -0.0644 -0.2218
   92BOLB   C3C 2203   4.030  11.132  15.106 -0.1586  0.0469 -0.1074
   92BOLB   C4C 2204   3.638  11.087  14.964 -0.1661  0.2067 -0.2145
   92BOLB   C1D 2205   4.970  10.659  14.902 -0.1910  0.1923 -0.0206
   92BOLB   C2D 2206   4.666  10.944  14.564 -0.2550  0.0797 -0.3189
   92BOLB   C3D 2207   4.459  11.321  14.482 -0.0797 -0.0755  0.0739
   92BOLB   C4D 2208   4.239  11.750  14.229  0.4018  0.6187  0.1459
   93BOLB   NC1 2209   7.838  21.142   2.249 -0.0895 -0.0894  0.0264
   93BOLB   PO1 2210   7.585  21.490   2.247  0.0304  0.1296  0.2655
   93BOLB   GL1 2211   7.828  21.587   1.809  0.1467 -0.2526 -0.0188
   93BOLB   GL2 2212   8.059  21.836   1.701 -0.3614 -0.1392 -0.1806
   93BOLB   C1A 2213   7.873  21.550   1.391  0.1003  0.0404 -0.2478
   93BOLB   C2A 2214   7.829  21.743   0.939 -0.2260  0.2537  0.1232
   93BOLB   C3A 2215   7.724  21.999   0.612 -0.0959 -0.2173  0.1549
   93BOLB   C4A 2216   7.819  22.221   0.271  0.1369  0.1382 -0.2389
   93BOLB   C1B 2217   8.072  22.188   1.335  0.1203 -0.0891 -0.0780
   93BOLB   C2B 2218   7.953  22.395   0.921  0.1535 -0.0392  0.0205
   93BOLB   C3B 2219   7.910  22.747   0.580 -0.1431 -0.0357 -0.0579
   93BOLB   C4B 2220   7.981  22.950   0.271  0.1084  0.1487  0.5542
   93BOLB   NC2 2221   8.563  23.046  -1.667  0.4373  0.0662  0.2375
   93BOLB   PO2 2222   8.723  23.226  -1.315 -0.3091  0.1029  0.3968
   93BOLB   GL3 2223   8.615  23.292  -0.896 -0.1192  0.1085 -0.1795
   93BOLB   GL4 2224   8.255  23.381  -0.836  0.0324  0.0867  0.1632
   93BOLB   C1C 2225   8.595  22.877  -0.573  0.0232 -0.1514  0.1100
   93BOLB   C2C 2226   8.215  22.651  -0.661  0.0114  0.2382  0.0186
   93BOLB   C3C 2227   7.925  22.409  -0.465 -0.1158 -0.1843  0.2534
   93BOLB   C4C 2228   7.986  22.188  -0.142  0.4763  0.0525  0.0683
   93BOLB   C1D 2229   7.947  23.304  -0.487 -0.2136  0.1619  0.0198
   93BOLB   C2D 2230   7.817  23.252  -0.118  0.1646  0.1101 -0.0060
   93BOLB   C3D 2231   7.660  23.576   0.019 -0.0272 -0.0048 -0.1114
   93BOLB   C4D 2232   7.222  23.926  -0.058 -0.0216  0.1864  0.2643
   94BOLB   NC1 2233   3.069  24.923   4.264  0.0395 -0.1156 -0.3756
   94BOLB   PO1 2234   3.113  25.348   4.390  0.0260  0.2052 -0.1704
   94BOLB   GL1 2235   3.008  25.703   4.290 -0.3533 -0.1106 -0.3148
   94BOLB   GL2 2236   3.206  25.972   4.377  0.2167 -0.1512 -0.2080
   94BOLB   C1A 2237   3.339  25.834   3.923 -0.0901 -0.0706 -0.1433
   94BOLB   C2A 2238   3.502  26.044   3.531 -0.0244  0.0892 -0.1676
   94BOLB   C3A 2239   3.549  26.217   3.118 -0.0180  0.1149 -0.2089
   94BOLB   C4A 2240   3.447  26.570   3.040  0.1726 -0.3580 -0.1723
   94BOLB   C1B 2241   2.966  26.259   4.131 -0.1296 -0.2817 -0.0463
   94BOLB   C2B 2242   2.985  26.551   3.868  0.3443 -0.2721 -0.1302
   94BOLB   C3B 2243   2.896  26.900   3.839  0.0934  0.0373  0.1164
   94BOLB   C4B 2244   2.888  27.380   3.727 -0.1657  0.1457  0.0207
   94BOLB   NC2 2245   3.021  28.879   2.096  0.0593 -0.1614  0.0126
   94BOLB   PO2 2246   2.989  28.571   1.817  0.0441 -0.1402  0.1749
   94BOLB   GL3 2247   2.885  28.192   2.167 -0.0768  0.1099  0.1981
   94BOLB   GL4 2248   2.579  28.079   2.403  0.1319  0.0405  0.0715
   94BOLB   C1C 2249   3.101  27.829   2.281 -0.1619 -0.1379 -0.3134
   94BOLB   C2C 2250   3.133  27.553   2.481 -0.2457  0.0712 -0.1760
   94BOLB   C3C 2251   3.192  27.367   2.859  0.0966 -0.1913 -0.1666
   94BOLB   C4C 2252   3.266  27.040   3.031  0.1951  0.2644  0.1442
   94BOLB   C1D 2253   2.556  27.837   2.784  0.1837 -0.2067 -0.2077
   94BOLB   C2D 2254   2.847  27.573   3.119  0.1613 -0.1501  0.2107
   94BOLB   C3D 2255   2.599  27.228   3.353  0.2757  0.2595  0.1226
   94BOLB   C4D 2256   2.184  27.169   3.594 -0.0466  0.1558 -0.3534
   95BOLB   NC1 2257  33.061  22.685   2.026 -0.1581  0.3161  0.0658
   95BOLB   PO1 2258  32.660  22.443   2.291  0.0185  0.0243  0.0090
   95BOLB   GL1 2259  32.852  21.996   2.456  0.0859 -0.2744 -0.2858
   95BOLB   GL2 2260  32.673  21.769   2.486  0.3000  0.1207  0.0445
   95BOLB   C1A 2261  33.165  22.138   2.763  0.3133  0.1493 -0.0325
   95BOLB   C2A 2262  33.344  21.844   2.917 -0.0374  0.0304 -0.0929
   95BOLB   C3A 2263  33.695  21.714   3.119 -0.1439  0.2615 -0.2462
   95BOLB   C4A 2264  34.038  22.015   3.043 -0.0216  0.3485 -0.2635
   95BOLB   C1B 2265  32.845  21.749   2.919  0.0069  0.0158 -0.0602
   95BOLB   C2B 2266  32.898  21.819   3.441 -0.4207 -0.2872 -0.3279
   95BOLB   C3B 2267  33.122  21.762   3.790  0.1992 -0.1115  0.0014
   95BOLB   C4B 2268  33.532  21.921   3.888  0.0230 -0.2703 -0.1250
   95BOLB   NC2 2269  35.384  23.099   1.772 -0.1800  0.0293 -0.1439
   95BOLB   PO2 2270  35.393  22.746   1.507 -0.0143 -0.3288 -0.2763
   95BOLB   GL3 2271  35.493  22.558   1.903 -0.0383  0.1704  0.2570
   95BOLB   GL4 2272  35.760  22.621   2.076 -0.2122  0.1029  0.0263
   95BOLB   C1C 2273  35.352  22.357   2.350 -0.4761 -0.0930 -0.1528
   95BOLB   C2C 2274  35.108  22.299   2.692 -0.1918 -0.0176 -0.0279
   95BOLB   C3C 2275  34.730  22.276   2.758 -0.0366 -0.1841 -0.1737
   95BOLB   C4C 2276  34.329  22.222   2.945 -0.2210  0.1500 -0.2187
   95BOLB   C1D 2277  35.734  22.619   2.540  0.3450  0.1100  0.1559
   95BOLB   C2D 2278  35.668  22.262   2.803 -0.0434 -0.2291 -0.0211
   95BOLB   C3D 2279  35.531  21.837   2.542 -0.0275  0.0199 -0.0917
   95BOLB   C4D 2280  35.218  21.803   2.260 -0.0053  0.2888  0.0793
   96BOLB   NC1 2281  14.616  18.163   7.253 -0.1747  0.1546  0.1755
   96BOLB   PO1 2282  14.733  18.596   7.353  0.1040  0.0387 -0.0551
   96BOLB   GL1 2283  15.075  18.370   7.303 -0.2171  0.1531 -0.1153
   96BOLB   GL2 2284  15.144  18.453   6.969  0.0600 -0.3309  0.0563
   96BOLB   C1A 2285  15.336  18.161   7.540 -0.1041 -0.3182  0.0738
   96BOLB   C2A 2286  15.574  18.006   7.490  0.1165  0.4083 -0.0828
   96BOLB   C3A 2287  15.910  17.850   7.440 -0.1333 -0.3652  0.1500
   96BOLB   C4A 2288  16.176  17.840   7.168  0.1894  0.1512 -0.1279
   96BOLB   C1B 2289  15.396  18.254   6.816  0.0315  0.2170 -0.1570
   96BOLB   C2B 2290  15.591  17.891   6.978  0.1445 -0.2105 -0.1051
   96BOLB   C3B 2291  15.477  17.453   6.868 -0.0369  0.0165 -0.2112
   96BOLB   C4B 2292  15.400  17.329   6.417  0.0315 -0.0758 -0.0176
   96BOLB   NC2 2293  18.803  17.487   6.074  0.0818 -0.0764  0.2860
   96BOLB   PO2 2294  18.348  17.318   6.035 -0.2326 -0.1697 -0.0301
   96BOLB   GL3 2295  17.841  17.329   6.147 -0.0100  0.0545  0.0827
   96BOLB   GL4 2296  17.853  17.560   6.300  0.0798 -0.3065 -0.3418
   96BOLB   C1C 2297  17.415  17.273   6.195  0.1441  0.0951  0.2287
   96BOLB   C2C 2298  17.087  17.327   6.407  0.0232  0.1731  0.3172
   96BOLB   C3C 2299  16.776  17.642   6.431 -0.2683 -0.0633  0.4192
   96BOLB   C4C 2300  16.329  17.834   6.644  0.0504  0.1873  0.3978
   96BOLB   C1D 2301  17.739  17.337   6.679 -0.1228 -0.2609  0.0057
   96BOLB   C2D 2302  17.399  17.539   6.952 -0.1011  0.1095 -0.2716
   96BOLB   C3D 2303  16.986  17.657   6.977 -0.0017  0.0121  0.1352
   96BOLB   C4D 2304  16.754  18.081   6.815  0.1434  0.3704  0.3025
   97BOLB   NC1 2305  15.521  26.558   3.676  0.3413 -0.1264  0.1960
   97BOLB   PO1 2306  15.980  26.522   3.824 -0.1899 -0.1049  0.3893
   97BOLB   GL1 2307  15.872  26.270   4.143 -0.1662  0.1554 -0.1255
   97BOLB   GL2 2308  15.624  26.311   4.280 -0.1669 -0.1065  0.1671
   97BOLB   C1A 2309  15.735  25.814   4.401  0.0703  0.1391  0.0182
   97BOLB   C2A 2310  15.371  25.693   4.396 -0.0859  0.3289 -0.1361
   97BOLB   C3A 2311  15.043  25.377   4.318 -0.2892  0.0160  0.2481
   97BOLB   C4A 2312  14.551  25.440   4.104 -0.1194 -0.0476 -0.0946
   97BOLB   C1B 2313  15.206  26.229   4.427  0.3192  0.0994 -0.1713
   97BOLB   C2B 2314  14.938  26.295   4.725  0.4117  0.4715 -0.4460
   97BOLB   C3B 2315  14.716  26.046   4.992  0.0533 -0.1596  0.2407
   97BOLB   C4B 2316  14.457  25.781   5.097 -0.3108 -0.0922 -0.0677
   97BOLB   NC2 2317  14.637  25.523   1.927 -0.3535  0.2319 -0.1308
   97BOLB   PO2 2318  14.893  25.612   2.297  0.0359 -0.0397 -0.1474
   97BOLB   GL3 2319  14.931  25.297   2.588 -0.0405  0.0640  0.1617
   97BOLB   GL4 2320  15.169  25.384   2.768  0.2659 -0.1441 -0.0477
   97BOLB   C1C 2321  14.878  25.029   2.957 -0.0417  0.1262  0.0055
   97BOLB   C2C 2322  14.473  25.126   3.112  0.1421  0.0758 -0.0992
   97BOLB   C3C 2323  14.264  25.061   3.442 -0.0770 -0.1149  0.1023
   97BOLB   C4C 2324  14.334  25.071   3.848  0.4252 -0.1033  0.0653
   97BOLB   C1D 2325  14.942  25.481   3.123  0.0132 -0.4954 -0.2506
   97BOLB   C2D 2326  14.785  25.315   3.560  0.0481  0.0743  0.1071
   97BOLB   C3D 2327  14.825  25.113   3.893  0.3735 -0.1256  0.3089
   97BOLB   C4D 2328  14.714  24.728   3.965  0.1353  0.1691 -0.1181
   98BOLB   NC1 2329  38.252   6.598  11.089  0.2283 -0.0637 -0.2561
   98BOLB   PO1 2330  37.843   6.777  11.112 -0.0830  0.2312 -0.0677
   98BOLB   GL1 2331  38.000   7.074  11.008  0.0070  0.0667 -0.2278
   98BOLB   GL2 2332  38.325   7.159  11.150  0.2160 -0.0598  0.5272
   98BOLB   C1A 2333  37.999   7.555  10.898 -0.1981  0.0949  0.1102
   98BOLB   C2A 2334  38.120   7.991  11.123 -0.0785 -0.0508 -0.1473
   98BOLB   C3A 2335  37.976   8.311  11.421  0.1039 -0.1527 -0.2647
   98BOLB   C4A 2336  37.633   8.205  11.647 -0.0797  0.0449  0.0602
   98BOLB   C1B 2337  38.453   7.559  11.084 -0.1853 -0.1602  0.2367
   98BOLB   C2B 2338  38.637   7.948  11.085 -0.2075 -0.1836 -0.0394
   98BOLB   C3B 2339  38.962   8.133  10.931 -0.0888 -0.3327 -0.2203
   98BOLB   C4B 2340  39.350   7.972  11.191 -0.2304 -0.2347 -0.1716
   98BOLB   NC2 2341  36.536   7.330  12.783  0.1883  0.1733  0.4466
   98BOLB   PO2 2342  36.206   7.426  13.116 -0.1201  0.0545 -0.3567
   98BOLB   GL3 2343  36.464   7.815  12.992 -0.1352 -0.1430  0.2316
   98BOLB   GL4 2344  36.620   8.059  13.092 -0.3769 -0.0528  0.0317
   98BOLB   C1C 2345  36.762   7.875  12.635 -0.1262  0.3078  0.0391
   98BOLB   C2C 2346  36.930   7.633  12.273 -0.4368  0.0264 -0.0923
   98BOLB   C3C 2347  37.026   7.735  11.864 -0.1130  0.3440 -0.2046
   98BOLB   C4C 2348  37.257   8.013  11.773 -0.0180 -0.3536 -0.0804
   98BOLB   C1D 2349  36.988   8.144  12.936 -0.1104  0.2181 -0.4505
   98BOLB   C2D 2350  37.302   8.434  12.964 -0.1270 -0.1028  0.0073
   98BOLB   C3D 2351  37.536   8.711  12.705  0.2007 -0.2875  0.0207
   98BOLB   C4D 2352  37.956   8.810  12.664 -0.3609 -0.4661 -0.0512
   99BOLB   NC1 2353  12.383  17.533   4.623  0.0866 -0.0894 -0.2577
   99BOLB   PO1 2354  12.624  17.807   4.759  0.0734 -0.1519  0.0733
   99BOLB   GL1 2355  12.923  17.827   4.487 -0.0732 -0.1352  0.0871
   99BOLB   GL2 2356  12.785  17.558   4.279 -0.0058 -0.0704  0.2692
   99BOLB   C1A 2357  13.175  17.962   4.002 -0.2455 -0.1661 -0.1868
   99BOLB   C2A 2358  13.350  17.880   3.688 -0.2580 -0.3388 -0.1461
   99BOLB   C3A 2359  13.352  17.577   3.291 -0.1156  0.1819 -0.1501
   99BOLB   C4A 2360  13.522  17.131   3.113 -0.3540  0.0768 -0.2738
   99BOLB   C1B 2361  12.820  17.662   3.832  0.1385 -0.0366  0.0537
   99BOLB   C2B 2362  12.990  17.354   3.602  0.0762  0.1216  0.2448
   99BOLB   C3B 2363  13.053  17.065   3.346  0.2993 -0.2696  0.0465
   99BOLB   C4B 2364  13.240  16.854   2.854  0.1144 -0.0000 -0.0381
   99BOLB   NC2 2365  14.660  16.133   1.788  0.0262  0.2420  0.1518
   99BOLB   PO2 2366  14.350  15.892   1.501  0.0463  0.0630 -0.2162
   99BOLB   GL3 2367  14.026  15.890   1.825 -0.2614  0.1576  0.0095
   99BOLB   GL4 2368  14.167  15.863   2.189  0.3284 -0.0767 -0.2647
   99BOLB   C1C 2369  13.695  16.116   1.933  0.1841  0.2050 -0.1188
   99BOLB   C2C 2370  13.464  16.381   2.224 -0.1162 -0.0043 -0.2688
   99BOLB   C3C 2371  13.586  16.745   2.412 -0.0622 -0.2010 -0.0120
   99BOLB   C4C 2372  13.744  16.990   2.681 -0.1565 -0.0681 -0.1995
   99BOLB   C1D 2373  13.782  15.980   2.445 -0.3150 -0.0192  0.2533
   99BOLB   C2D 2374  13.428  16.245   2.771  0.2344 -0.3611 -0.1737
   99BOLB   C3D 2375  13.238  16.377   3.086 -0.2352  0.2052 -0.1107
   99BOLB   C4D 2376  13.107  16.328   3.596 -0.2012 -0.0655  0.1533
  100BOLB   NC1 2377  11.552  15.612   6.670 -0.1624  0.1563 -0.2383
  100BOLB   PO1 2378  11.230  15.249   6.472 -0.3962 -0.0770 -0.0667
  100BOLB   GL1 2379  11.419  14.966   6.155 -0.2320 -0.1061  0.1615
  100BOLB   GL2 2380  11.348  14.937   5.833  0.0354  0.0612 -0.2378
  100BOLB   C1A 2381  11.820  14.766   6.203 -0.0728  0.0401 -0.1285
  100BOLB   C2A 2382  11.933  14.318   6.045  0.3012  0.1114 -0.3168
  100BOLB   C3A 2383  12.281  14.022   6.064  0.2295 -0.0201  0.1307
  100BOLB   C4A 2384  12.431  13.696   6.276 -0.1592  0.0676 -0.0218
  100BOLB   C1B 2385  11.684  14.676   5.692 -0.1770 -0.3061 -0.1166
  100BOLB   C2B 2386  11.745  14.285   5.609 -0.0114  0.0965 -0.3026
  100BOLB   C3B 2387  11.744  13.769   5.534 -0.1003  0.2116 -0.1748
  100BOLB   C4B 2388  12.007  13.461   5.655 -0.0550 -0.0397  0.1107
  100BOLB   NC2 2389  13.122  10.988   6.947  0.0419 -0.0887 -0.0963
  100BOLB   PO2 2390  13.164  11.349   6.772  0.2432 -0.1296  0.1753
  100BOLB   GL3 2391  12.815  11.621   6.675 -0.0783 -0.1554  0.0533
  100BOLB   GL4 2392  12.660  11.683   6.321 -0.0706 -0.1232 -0.2935
  100BOLB   C1C 2393  12.728  12.090   6.607 -0.2940  0.1440 -0.1160
  100BOLB   C2C 2394  12.622  12.560   6.669 -0.0914  0.1095 -0.0515
  100BOLB   C3C 2395  12.551  12.978   6.735  0.1541 -0.1335  0.1020
  100BOLB   C4C 2396  12.547  13.376   6.625  0.0644  0.1552 -0.2377
  100BOLB   C1D 2397  12.323  11.746   6.624  0.2043  0.0965  0.4692
  100BOLB   C2D 2398  12.132  11.969   6.979  0.0567 -0.0326 -0.0462
  100BOLB   C3D 2399  12.152  12.381   7.046 -0.0889  0.0793  0.2592
  100BOLB   C4D 2400  12.165  12.798   7.035  0.3084  0.1296 -0.2310
  101BOLB   NC1 2401   4.018  20.974  18.427 -0.1447 -0.0388  0.0829
  101BOLB   PO1 2402   4.220  20.629  18.558  0.1539  0.1020 -0.1315
  101BOLB   GL1 2403   3.933  20.642  18.910  0.1638  0.0514  0.0147
  101BOLB   GL2 2404   4.026  20.433  19.076 -0.0339  0.2977 -0.2451
  101BOLB   C1A 2405   3.553  20.773  19.071  0.0586 -0.0968  0.1124
  101BOLB   C2A 2406   3.483  20.792  19.491 -0.1749  0.0212  0.2182
  101BOLB   C3A 2407   3.581  20.988  19.816  0.3199  0.1294  0.0855
  101BOLB   C4A 2408   3.667  21.147  20.210 -0.0094 -0.0052 -0.0773
  101BOLB   C1B 2409   4.161  20.058  19.174 -0.3390 -0.0873 -0.2500
  101BOLB   C2B 2410   4.189  19.797  19.520 -0.1640 -0.2837 -0.2998
  101BOLB   C3B 2411   4.134  19.818  20.019 -0.1612 -0.1425 -0.2822
  101BOLB   C4B 2412   3.993  19.906  20.507  0.0233  0.0531 -0.0856
  101BOLB   NC2 2413   2.374  22.245  22.533  0.1928  0.0737 -0.0053
  101BOLB   PO2 2414   2.401  21.854  22.214 -0.0797  0.2467 -0.1980
  101BOLB   GL3 2415   2.565  21.920  21.839 -0.1611  0.2230  0.1993
  101BOLB   GL4 2416   2.219  21.970  21.753  0.0552  0.0045  0.1129
  101BOLB   C1C 2417   2.590  21.958  21.361 -0.0906 -0.0382 -0.0985
  101BOLB   C2C 2418   2.984  21.670  21.225 -0.0772 -0.2712  0.0334
  101BOLB   C3C 2419   3.287  21.527  20.953  0.3041  0.1262  0.0640
  101BOLB   C4C 2420   3.478  21.287  20.595  0.0225 -0.0185  0.0654
  101BOLB   C1D 2421   2.188  21.694  21.540  0.2465 -0.1463  0.1937
  101BOLB   C2D 2422   2.047  21.543  21.137  0.0235 -0.3476  0.0116
  101BOLB   C3D 2423   1.787  21.135  21.158 -0.0633  0.0531  0.0180
  101BOLB   C4D 2424   1.375  20.911  21.114 -0.0322  0.1318  0.0448
  102BOLB   NC1 2425   4.143  22.384   2.880  0.1427 -0.0156  0.0674
  102BOLB   PO1 2426   4.256  22.829   2.775  0.2113 -0.3331 -0.2381
  102BOLB   GL1 2427   4.047  22.924   2.506  0.3357  0.0676 -0.0227
  102BOLB   GL2 2428   3.762  22.967   2.553  0.1251 -0.0878  0.1767
  102BOLB   C1A 2429   4.051  22.629   1.984  0.2109  0.2696 -0.2126
  102BOLB   C2A 2430   3.827  22.697   1.515 -0.1434  0.1810  0.2987
  102BOLB   C3A 2431   3.638  22.759   1.183 -0.4753  0.0476  0.1539
  102BOLB   C4A 2432   3.261  22.878   0.980 -0.0430  0.0467  0.0244
  102BOLB   C1B 2433   3.671  23.016   2.142  0.1098  0.2157 -0.0837
  102BOLB   C2B 2434   3.984  23.171   1.842 -0.0008 -0.0526  0.0497
  102BOLB   C3B 2435   4.256  23.405   1.433  0.2023  0.0195 -0.1540
  102BOLB   C4B 2436   4.268  23.799   1.203 -0.0124  0.1228 -0.3614
  102BOLB   NC2 2437   2.563  24.226  -0.800 -0.1577  0.0097  0.1544
  102BOLB   PO2 2438   2.613  24.554  -0.545 -0.0765 -0.0776 -0.1531
  102BOLB   GL3 2439   2.727  24.207  -0.237  0.1899  0.0366 -0.1682
  102BOLB   GL4 2440   2.501  24.303  -0.014 -0.1135  0.0227 -0.3416
  102BOLB   C1C 2441   2.769  23.866  -0.087  0.1319  0.2131 -0.1356
  102BOLB   C2C 2442   2.810  23.716   0.249 -0.0017 -0.0518  0.2151
  102BOLB   C3C 2443   2.950  23.367   0.406  0.1502  0.1596 -0.2051
  102BOLB   C4C 2444   2.963  22.995   0.758 -0.2188  0.1357 -0.3435
  102BOLB   C1D 2445   2.567  24.556   0.536  0.1919 -0.1344  0.0713
  102BOLB   C2D 2446   2.669  24.695   0.997 -0.0409 -0.1288 -0.1670
  102BOLB   C3D 2447   2.705  25.058   1.341 -0.1831  0.2163  0.0924
  102BOLB   C4D 2448   2.686  25.400   1.588  0.1445  0.0193  0.1109
  103BOLB   NC1 2449  10.745  27.042  14.173 -0.1281 -0.0291 -0.0348
  103BOLB   PO1 2450  11.148  26.874  14.285  0.0356 -0.0243 -0.1087
  103BOLB   GL1 2451  11.173  27.243  14.536 -0.0960  0.3345  0.1065
  103BOLB   GL2 2452  11.048  27.544  14.480  0.1333  0.2032  0.1650
  103BOLB   C1A 2453  11.409  27.551  14.791  0.1863 -0.2985  0.6892
  103BOLB   C2A 2454  11.549  27.938  14.917 -0.1897  0.1667  0.0265
  103BOLB   C3A 2455  11.613  28.131  15.340 -0.1794 -0.0759 -0.0967
  103BOLB   C4A 2456  11.649  28.219  15.711 -0.1385  0.2235  0.1161
  103BOLB   C1B 2457  11.174  27.988  14.496  0.2020  0.0518  0.0994
  103BOLB   C2B 2458  11.293  28.380  14.704 -0.2496 -0.1516 -0.0443
  103BOLB   C3B 2459  11.199  28.803  14.872 -0.2610 -0.1761  0.0182
  103BOLB   C4B 2460  10.796  28.910  14.722 -0.0356  0.1175  0.0249
  103BOLB   NC2 2461  12.028  30.008  16.814 -0.1893  0.2441  0.0686
  103BOLB   PO2 2462  12.167  29.826  17.170  0.3600  0.2669 -0.0063
  103BOLB   GL3 2463  11.821  29.530  17.074 -0.0094  0.1449 -0.0624
  103BOLB   GL4 2464  11.547  29.609  17.085 -0.2159  0.1585 -0.4165
  103BOLB   C1C 2465  11.613  29.111  17.114  0.1734  0.1580 -0.1646
  103BOLB   C2C 2466  11.582  28.744  16.874 -0.0903  0.1477 -0.1567
  103BOLB   C3C 2467  11.814  28.675  16.469 -0.0772  0.2050 -0.2983
  103BOLB   C4C 2468  11.683  28.455  16.098 -0.2850 -0.3198 -0.2211
  103BOLB   C1D 2469  11.107  29.454  17.182  0.0093  0.2506 -0.2280
  103BOLB   C2D 2470  10.667  29.195  17.272  0.0161 -0.1919 -0.0146
  103BOLB   C3D 2471  10.306  29.244  17.164  0.2305 -0.1040  0.1666
  103BOLB   C4D 2472  10.174  29.354  16.795 -0.1059  0.2123 -0.1502
  104BOLB   NC1 2473  35.875  10.039  17.929  0.0629  0.2853  0.3112
  104BOLB   PO1 2474  36.340  10.232  17.747 -0.0546  0.0023 -0.0658
  104BOLB   GL1 2475  36.105  10.544  17.608  0.1710 -0.1486 -0.0374
  104BOLB   GL2 2476  35.813  10.497  17.279  0.0624  0.1129  0.4229
  104BOLB   C1A 2477  36.064  10.853  17.557  0.2785 -0.2365 -0.2011
  104BOLB   C2A 2478  36.055  11.290  17.502  0.3008 -0.1760 -0.1467
  104BOLB   C3A 2479  35.982  11.663  17.699  0.2285  0.1113 -0.0300
  104BOLB   C4A 2480  36.080  12.126  17.844 -0.1320  0.3254 -0.1873
  104BOLB   C1B 2481  35.675  10.966  17.219  0.0313 -0.5232 -0.0407
  104BOLB   C2B 2482  35.958  11.261  17.023 -0.1379  0.2282  0.0795
  104BOLB   C3B 2483  36.323  11.403  16.868  0.1372 -0.0999  0.1592
  104BOLB   C4B 2484  36.733  11.496  16.636  0.0811  0.2403  0.2024
  104BOLB   NC2 2485  35.367  11.198  19.048  0.3387  0.0746 -0.5076
  104BOLB   PO2 2486  35.617  11.357  19.479 -0.2040  0.2024  0.1307
  104BOLB   GL3 2487  35.685  11.614  19.054 -0.0797 -0.4299 -0.1891
  104BOLB   GL4 2488  35.737  11.842  18.805 -0.0375  0.0326 -0.2387
  104BOLB   C1C 2489  36.153  11.775  19.024  0.0346  0.1517 -0.3721
  104BOLB   C2C 2490  36.477  11.799  18.824  0.2526  0.0375 -0.1659
  104BOLB   C3C 2491  36.605  11.949  18.368 -0.0345  0.1720  0.2760
  104BOLB   C4C 2492  36.547  12.246  18.010 -0.0815 -0.2861  0.0270
  104BOLB   C1D 2493  35.921  12.191  18.952 -0.3915  0.1177  0.2130
  104BOLB   C2D 2494  36.302  12.357  18.930  0.1068 -0.0608 -0.0438
  104BOLB   C3D 2495  36.518  12.668  19.213 -0.2084  0.0034  0.1280
  104BOLB   C4D 2496  36.859  12.977  19.147  0.0431  0.2588  0.3084
  105BOLB   NC1 2497  30.237  25.193   7.784 -0.1958 -0.2319 -0.1938
  105BOLB   PO1 2498  30.606  25.129   8.081  0.1367  0.2739 -0.0533
  105BOLB   GL1 2499  30.841  24.753   7.964  0.0276  0.4386  0.0493
  105BOLB   GL2 2500  31.105  24.868   8.195 -0.1323  0.1122 -0.2924
  105BOLB   C1A 2501  30.800  24.263   7.877  0.1019 -0.0732  0.2296
  105BOLB   C2A 2502  31.284  24.321   7.793  0.0926 -0.1328 -0.0363
  105BOLB   C3A 2503  31.637  24.329   7.632  0.3186 -0.2182 -0.0468
  105BOLB   C4A 2504  31.994  24.382   7.341 -0.2232 -0.0873 -0.1990
  105BOLB   C1B 2505  31.465  24.611   8.120  0.1456  0.1290 -0.0319
  105BOLB   C2B 2506  31.900  24.608   7.944 -0.2088 -0.3331  0.0126
  105BOLB   C3B 2507  31.922  24.807   7.493 -0.1586  0.0142  0.0639
  105BOLB   C4B 2508  31.964  24.803   7.039 -0.0620 -0.1309  0.2262
  105BOLB   NC2 2509  31.251  25.613   5.820 -0.1461  0.1256  0.0563
  105BOLB   PO2 2510  31.241  25.095   5.826 -0.0645 -0.0101  0.0699
  105BOLB   GL3 2511  31.288  24.629   5.946 -0.4729  0.0574 -0.0444
  105BOLB   GL4 2512  30.974  24.498   6.217 -0.1308 -0.0993 -0.2380
  105BOLB   C1C 2513  31.303  24.216   6.010 -0.1752  0.2884 -0.4396
  105BOLB   C2C 2514  31.623  23.928   6.327  0.0571  0.2426  0.4586
  105BOLB   C3C 2515  31.760  24.030   6.679 -0.0575  0.0429 -0.3817
  105BOLB   C4C 2516  32.016  24.245   7.005  0.0520 -0.2956  0.1205
  105BOLB   C1D 2517  31.136  24.143   6.482  0.0753  0.0860 -0.2385
  105BOLB   C2D 2518  31.325  23.750   6.801 -0.3435  0.1175 -0.3402
  105BOLB   C3D 2519  31.598  23.535   6.774  0.2014 -0.3844 -0.2562
  105BOLB   C4D 2520  31.950  23.346   6.686  0.0546 -0.0712 -0.1430
  106BOLB   NC1 2521  10.000  17.376   3.230  0.0784 -0.1632  0.0478
  106BOLB   PO1 2522  10.210  17.212   3.544 -0.3873 -0.0063  0.4207
  106BOLB   GL1 2523  10.424  17.038   3.226 -0.0940  0.0820 -0.2335
  106BOLB   GL2 2524  10.435  16.717   3.317  0.0375  0.3096  0.2144
  106BOLB   C1A 2525  10.427  16.719   2.843  0.1134  0.0690  0.0845
  106BOLB   C2A 2526  10.592  16.310   2.702 -0.2466 -0.2071 -0.0443
  106BOLB   C3A 2527  10.486  15.862   2.761  0.1127 -0.2303 -0.0860
  106BOLB   C4A 2528  10.864  15.638   2.753  0.3126  0.1468 -0.1568
  106BOLB   C1B 2529  10.847  16.493   3.133 -0.0185  0.0313 -0.1788
  106BOLB   C2B 2530  11.016  16.183   2.926 -0.1156 -0.1227  0.2551
  106BOLB   C3B 2531  11.184  16.007   2.672  0.0277  0.1344 -0.1096
  106BOLB   C4B 2532  11.263  15.765   2.296  0.0787  0.3204  0.2342
  106BOLB   NC2 2533  12.081  13.883   1.731 -0.0407  0.3322  0.1135
  106BOLB   PO2 2534  11.693  13.558   1.590  0.1256 -0.2662 -0.3177
  106BOLB   GL3 2535  11.469  13.919   1.611 -0.0584  0.2009  0.1995
  106BOLB   GL4 2536  11.041  13.958   1.648 -0.0725 -0.3269  0.0722
  106BOLB   C1C 2537  11.424  14.303   1.857 -0.0176  0.1948  0.0185
  106BOLB   C2C 2538  11.273  14.539   2.197 -0.1213  0.1536  0.3625
  106BOLB   C3C 2539  11.006  14.825   2.447  0.3645 -0.1504 -0.0136
  106BOLB   C4C 2540  10.869  15.101   2.768  0.2994  0.0225  0.5009
  106BOLB   C1D 2541  10.692  14.307   1.853 -0.0445 -0.1550 -0.0558
  106BOLB   C2D 2542  10.342  14.498   2.024 -0.2078  0.0500  0.0600
  106BOLB   C3D 2543  10.075  14.754   2.068  0.0556 -0.3706 -0.2314
  106BOLB   C4D 2544   9.696  14.785   2.338  0.1809  0.0754  0.0325
  107BOLB   NC1 2545  31.095  14.168   8.531  0.2593  0.1559  0.1358
  107BOLB   PO1 2546  31.150  14.371   8.151 -0.0884 -0.3878  0.0583
  107BOLB   GL1 2547  31.473  14.510   8.397 -0.0405  0.1085 -0.1636
  107BOLB   GL2 2548  31.476  14.458   8.770  0.0170 -0.1052  0.0167
  107BOLB   C1A 2549  31.867  14.762   8.428  0.0078  0.0237  0.2325
  107BOLB   C2A 2550  32.179  14.973   8.580 -0.1652  0.1975 -0.4493
  107BOLB   C3A 2551  32.151  15.361   8.680 -0.3041  0.1746  0.1434
  107BOLB   C4A 2552  31.997  15.671   8.264  0.1892  0.1123 -0.3118
  107BOLB   C1B 2553  31.557  14.751   9.072 -0.1601  0.1349  0.1496
  107BOLB   C2B 2554  31.580  14.893   9.504 -0.5512 -0.1821  0.2940
  107BOLB   C3B 2555  31.692  15.328   9.713 -0.0954 -0.1435  0.1417
  107BOLB   C4B 2556  31.947  15.499   9.991  0.0351  0.2514  0.2796
  107BOLB   NC2 2557  29.959  15.812   7.867 -0.3082 -0.1111  0.0897
  107BOLB   PO2 2558  30.316  15.631   7.744  0.0455 -0.2017  0.6268
  107BOLB   GL3 2559  30.649  15.806   7.611  0.0847 -0.1365 -0.0266
  107BOLB   GL4 2560  30.775  16.132   7.664 -0.0422  0.1717  0.2425
  107BOLB   C1C 2561  31.063  15.660   7.516 -0.0907  0.1086  0.2868
  107BOLB   C2C 2562  31.452  15.610   7.291  0.0823 -0.0817 -0.0053
  107BOLB   C3C 2563  31.895  15.747   7.424 -0.2096 -0.3874  0.1814
  107BOLB   C4C 2564  31.916  15.781   7.833 -0.2999  0.2132  0.0404
  107BOLB   C1D 2565  30.746  16.282   8.133 -0.1510  0.2281 -0.2207
  107BOLB   C2D 2566  30.967  16.430   8.537  0.2090  0.0402 -0.0339
  107BOLB   C3D 2567  31.436  16.463   8.640  0.1672 -0.0949 -0.2351
  107BOLB   C4D 2568  31.694  16.647   8.468 -0.3120  0.0240 -0.2828
  108BOLB   NC1 2569  36.692   7.404   6.830  0.2190 -0.0535  0.2740
  108BOLB   PO1 2570  37.082   7.243   6.851 -0.2688 -0.0848 -0.0014
  108BOLB   GL1 2571  37.471   7.571   6.704 -0.0364  0.1026 -0.0356
  108BOLB   GL2 2572  37.365   7.696   6.408 -0.0957  0.2175 -0.2647
  108BOLB   C1A 2573  37.852   7.696   6.832 -0.1155  0.0680 -0.2080
  108BOLB   C2A 2574  38.209   7.970   7.015 -0.1785 -0.1015 -0.2533
  108BOLB   C3A 2575  38.579   8.035   7.256 -0.1163 -0.2690 -0.3063
  108BOLB   C4A 2576  39.036   8.071   7.429 -0.0249  0.2368 -0.0834
  108BOLB   C1B 2577  37.730   7.985   6.488 -0.2556  0.2080 -0.0444
  108BOLB   C2B 2578  37.964   8.358   6.746 -0.4030  0.0122  0.0840
  108BOLB   C3B 2579  38.184   8.785   6.805  0.2687  0.0194  0.2552
  108BOLB   C4B 2580  38.142   9.185   7.053 -0.0380 -0.0204  0.1032
  108BOLB   NC2 2581  39.961   6.863   5.924 -0.1548  0.1239  0.0339
  108BOLB   PO2 2582  39.567   6.993   6.116 -0.0424 -0.0064  0.0463
  108BOLB   GL3 2583  39.477   7.323   6.234  0.1152 -0.3166 -0.0848
  108BOLB   GL4 2584  39.080   7.462   6.322 -0.0593 -0.1416  0.0169
  108BOLB   C1C 2585  39.605   7.741   6.216  0.0282  0.1748 -0.0402
  108BOLB   C2C 2586  39.462   8.085   6.425 -0.0370  0.2390  0.0736
  108BOLB   C3C 2587  39.586   8.226   6.885  0.1762 -0.1583  0.1364
  108BOLB   C4C 2588  39.441   8.194   7.343 -0.2434 -0.0041  0.1179
  108BOLB   C1D 2589  39.037   7.742   6.039  0.1624 -0.0330 -0.1517
  108BOLB   C2D 2590  39.225   8.232   6.050  0.0976 -0.1835  0.1886
  108BOLB   C3D 2591  39.312   8.379   5.644  0.1919  0.0904 -0.0659
  108BOLB   C4D 2592  39.687   8.504   5.421 -0.1433  0.2896 -0.0972
  109BOLB   NC1 2593   5.683   9.018  13.871 -0.3091 -0.0088  0.2500
  109BOLB   PO1 2594   5.398   9.227  14.058 -0.0440  0.0945 -0.2718
  109BOLB   GL1 2595   4.994   9.302  13.890 -0.2917  0.1636 -0.2656
  109BOLB   GL2 2596   4.956   9.508  14.029  0.0612  0.0304 -0.0416
  109BOLB   C1A 2597   4.713   9.384  13.513  0.1038  0.0251 -0.2430
  109BOLB   C2A 2598   4.705   9.700  13.240  0.2564 -0.1911  0.3903
  109BOLB   C3A 2599   4.615  10.078  13.021 -0.3382 -0.0812  0.1534
  109BOLB   C4A 2600   4.631  10.036  12.562 -0.3238 -0.0713 -0.2195
  109BOLB   C1B 2601   4.688   9.822  13.883 -0.0521 -0.1644  0.0094
  109BOLB   C2B 2602   4.491   9.981  13.552  0.0390 -0.0310  0.2110
  109BOLB   C3B 2603   4.227  10.300  13.316  0.0250  0.3199 -0.0775
  109BOLB   C4B 2604   4.117  10.627  13.177  0.0385  0.0368  0.5854
  109BOLB   NC2 2605   5.188   7.838  11.691 -0.1190 -0.2191  0.2914
  109BOLB   PO2 2606   5.260   7.959  12.058 -0.0021  0.0237 -0.0108
  109BOLB   GL3 2607   4.784   8.167  11.924 -0.0433 -0.0466 -0.1987
  109BOLB   GL4 2608   4.772   8.159  11.686  0.3589  0.2281  0.0427
  109BOLB   C1C 2609   4.775   8.625  12.066 -0.1867  0.3104  0.1512
  109BOLB   C2C 2610   4.705   8.997  12.090 -0.2702  0.1460 -0.1162
  109BOLB   C3C 2611   4.543   9.381  12.178  0.3361  0.0599  0.1151
  109BOLB   C4C 2612   4.544   9.696  12.338  0.1493  0.0210  0.2280
  109BOLB   C1D 2613   4.451   8.488  11.782  0.1150 -0.0365  0.1568
  109BOLB   C2D 2614   4.086   8.494  11.990  0.0187 -0.1131  0.1425
  109BOLB   C3D 2615   3.770   8.783  11.759  0.1833  0.1311 -0.3075
  109BOLB   C4D 2616   3.828   9.192  11.548  0.2117  0.0718 -0.0392
  110BOLB   NC1 2617   5.658  16.502  21.399  0.0437  0.0087  0.0996
  110BOLB   PO1 2618   5.991  16.237  21.309 -0.4074 -0.3833 -0.0770
  110BOLB   GL1 2619   5.781  16.414  20.908 -0.5614  0.5398  0.0993
  110BOLB   GL2 2620   5.390  16.528  20.964 -0.2651 -0.1853  0.1101
  110BOLB   C1A 2621   5.786  16.568  20.477 -0.1156  0.0706 -0.0081
  110BOLB   C2A 2622   5.654  16.675  20.076 -0.0135 -0.2497 -0.2781
  110BOLB   C3A 2623   5.567  16.863  19.682 -0.1409 -0.3931  0.0527
  110BOLB   C4A 2624   5.223  17.104  19.530 -0.1425 -0.1589 -0.2740
  110BOLB   C1B 2625   5.358  16.294  20.607  0.2058 -0.0803 -0.2518
  110BOLB   C2B 2626   5.108  16.209  20.236 -0.2421 -0.1093  0.3887
  110BOLB   C3B 2627   5.119  16.340  19.907 -0.0757  0.0617  0.1482
  110BOLB   C4B 2628   4.673  16.474  19.693 -0.0561  0.1342 -0.2149
  110BOLB   NC2 2629   3.177  16.495  21.652  0.0508  0.5128  0.2034
  110BOLB   PO2 2630   3.346  16.725  21.219 -0.1223  0.0068 -0.0375
  110BOLB   GL3 2631   3.597  16.783  20.741 -0.2597  0.0743 -0.1221
  110BOLB   GL4 2632   3.624  17.157  20.624 -0.1125 -0.0729  0.2758
  110BOLB   C1C 2633   3.928  16.765  20.390 -0.2805 -0.0131  0.0813
  110BOLB   C2C 2634   4.346  16.785  20.089  0.1191 -0.1431 -0.1138
  110BOLB   C3C 2635   4.604  16.949  19.862  0.2550  0.3079  0.1207
  110BOLB   C4C 2636   4.856  17.091  19.683 -0.1486 -0.1769  0.2596
  110BOLB   C1D 2637   3.562  17.066  20.256 -0.2236  0.2340  0.0971
  110BOLB   C2D 2638   3.465  17.342  19.946 -0.3868 -0.2913  0.1545
  110BOLB   C3D 2639   3.231  17.281  19.547 -0.2800 -0.1676 -0.4073
  110BOLB   C4D 2640   3.016  16.972  19.480  0.0495 -0.0765  0.2302
  111BOLB   NC1 2641   4.879  27.868  14.896  0.0256 -0.1240  0.1329
  111BOLB   PO1 2642   5.061  28.158  14.573 -0.0109  0.2105 -0.1465
  111BOLB   GL1 2643   5.213  28.272  14.923  0.3129 -0.0403 -0.0966
  111BOLB   GL2 2644   5.221  28.132  15.238  0.0746  0.0282  0.4414
  111BOLB   C1A 2645   5.325  28.715  15.120 -0.1166  0.3375  0.0425
  111BOLB   C2A 2646   5.643  28.969  15.136  0.0966 -0.0496 -0.0717
  111BOLB   C3A 2647   5.557  29.387  15.287 -0.1592 -0.0111  0.0508
  111BOLB   C4A 2648   5.517  29.837  15.200 -0.1680  0.1075 -0.1519
  111BOLB   C1B 2649   5.184  28.448  15.632  0.1931 -0.1293  0.1643
  111BOLB   C2B 2650   5.497  28.765  15.752 -0.1959 -0.0830 -0.1798
  111BOLB   C3B 2651   5.628  29.169  15.748 -0.0041 -0.0825  0.3774
  111BOLB   C4B 2652   5.466  29.599  15.729  0.0860 -0.0655 -0.2026
  111BOLB   NC2 2653   5.196  31.830  16.009 -0.3314 -0.0250 -0.1398
  111BOLB   PO2 2654   5.619  31.940  16.155 -0.0206 -0.2577 -0.0327
  111BOLB   GL3 2655   5.792  31.629  16.222 -0.0655  0.0955 -0.1139
  111BOLB   GL4 2656   5.960  31.433  15.945 -0.0346  0.1503 -0.2339
  111BOLB   C1C 2657   5.666  31.114  16.166  0.0840 -0.0191  0.0927
  111BOLB   C2C 2658   5.428  30.832  15.839  0.3805 -0.3759  0.4689
  111BOLB   C3C 2659   5.250  30.440  15.722  0.1478  0.0590  0.1637
  111BOLB   C4C 2660   5.411  30.096  15.574 -0.1294  0.2014  0.0279
  111BOLB   C1D 2661   5.854  31.020  15.641  0.2192 -0.1103 -0.3168
  111BOLB   C2D 2662   6.051  30.644  15.375 -0.1001  0.0991 -0.0507
  111BOLB   C3D 2663   6.175  30.464  14.955 -0.1072  0.0299  0.2759
  111BOLB   C4D 2664   5.899  30.227  14.658 -0.0016  0.2215  0.0953
  112BOLB   NC1 2665  32.546  11.434  13.878  0.2179  0.1912 -0.2625
  112BOLB   PO1 2666  32.718  11.487  13.414 -0.2037  0.0690 -0.3401
  112BOLB   GL1 2667  32.880  11.892  13.401 -0.3301  0.0196 -0.3230
  112BOLB   GL2 2668  33.175  11.863  13.142  0.0235 -0.0856  0.2742
  112BOLB   C1A 2669  33.063  12.280  13.556  0.0320 -0.0024  0.1452
  112BOLB   C2A 2670  33.341  12.619  13.680  0.0750  0.2573  0.1363
  112BOLB   C3A 2671  33.706  12.778  13.560  0.0136  0.1269 -0.0611
  112BOLB   C4A 2672  34.091  12.599  13.836 -0.1612  0.0891  0.1725
  112BOLB   C1B 2673  33.170  12.213  12.853 -0.2321  0.2590  0.1050
  112BOLB   C2B 2674  33.248  12.641  13.034  0.2331 -0.0393  0.1262
  112BOLB   C3B 2675  33.266  13.073  12.798  0.1137 -0.0032  0.1424
  112BOLB   C4B 2676  33.042  13.362  12.888  0.0335  0.1451 -0.0293
  112BOLB   NC2 2677  33.741   9.958  14.124 -0.3414  0.1252  0.1099
  112BOLB   PO2 2678  33.513  10.233  13.963  0.0331  0.2115  0.3648
  112BOLB   GL3 2679  33.873  10.372  13.779 -0.0934  0.1602  0.0044
  112BOLB   GL4 2680  34.201  10.235  13.571  0.0346 -0.4733  0.0356
  112BOLB   C1C 2681  34.010  10.797  13.788 -0.3242 -0.1210  0.1898
  112BOLB   C2C 2682  34.112  11.239  13.852 -0.0394  0.0961 -0.2574
  112BOLB   C3C 2683  34.290  11.693  13.813 -0.1833  0.1791  0.0967
  112BOLB   C4C 2684  34.365  12.223  13.734 -0.0848  0.0011 -0.2167
  112BOLB   C1D 2685  34.311  10.616  13.378  0.2814  0.0314  0.2873
  112BOLB   C2D 2686  34.377  11.081  13.410  0.0826  0.0026 -0.0988
  112BOLB   C3D 2687  34.138  11.514  13.393  0.3343 -0.3538  0.3552
  112BOLB   C4D 2688  33.964  11.929  13.560  0.0361 -0.3580  0.1728
  113BOLB   NC1 2689  32.328  23.512  17.147 -0.2532  0.0440 -0.1168
  113BOLB   PO1 2690  32.594  23.049  17.232  0.2081 -0.0014  0.0456
  113BOLB   GL1 2691  32.721  22.828  16.997 -0.0408 -0.1271 -0.0164
  113BOLB   GL2 2692  32.951  22.622  17.089 -0.0002  0.0781 -0.2301
  113BOLB   C1A 2693  32.814  22.702  16.572 -0.1455 -0.0691 -0.1142
  113BOLB   C2A 2694  33.064  22.499  16.233  0.2821  0.2006 -0.0722
  113BOLB   C3A 2695  33.362  22.448  16.041  0.4204 -0.0010  0.2356
  113BOLB   C4A 2696  33.668  22.564  15.729  0.2958 -0.1952 -0.1746
  113BOLB   C1B 2697  33.135  22.396  16.765  0.1963  0.0032  0.0218
  113BOLB   C2B 2698  33.333  22.004  16.516 -0.0401  0.0973  0.0254
  113BOLB   C3B 2699  33.416  21.535  16.576 -0.2687  0.1077 -0.0932
  113BOLB   C4B 2700  33.678  21.327  16.578  0.0387  0.0416 -0.1885
  113BOLB   NC2 2701  33.516  24.386  16.258  0.1247 -0.1502  0.0373
  113BOLB   PO2 2702  33.561  24.614  15.950 -0.1567 -0.0728  0.0330
  113BOLB   GL3 2703  33.777  24.439  15.616 -0.5203  0.3821 -0.3441
  113BOLB   GL4 2704  33.882  24.052  15.849 -0.1183 -0.1521  0.2167
  113BOLB   C1C 2705  34.029  24.223  15.362  0.0334  0.1690 -0.2094
  113BOLB   C2C 2706  34.107  23.751  15.370 -0.0715  0.1193  0.2308
  113BOLB   C3C 2707  33.942  23.453  15.636  0.0307 -0.0153 -0.1234
  113BOLB   C4C 2708  33.916  22.929  15.622  0.0608 -0.2274  0.1953
  113BOLB   C1D 2709  34.276  23.895  15.840 -0.1563  0.3164  0.0578
  113BOLB   C2D 2710  34.543  24.061  15.440 -0.2114 -0.0061 -0.4605
  113BOLB   C3D 2711  34.645  24.221  15.066  0.4475  0.1261 -0.3353
  113BOLB   C4D 2712  34.775  24.351  14.701  0.1704 -0.0064 -0.1242
  114BOLB   NC1 2713  33.383  10.547  10.666  0.3368 -0.1560  0.2415
  114BOLB   PO1 2714  33.131  10.589  10.263  0.0160  0.4221 -0.0612
  114BOLB   GL1 2715  33.491  10.846  10.130  0.4005  0.0258  0.1529
  114BOLB   GL2 2716  33.734  10.653  10.191  0.3309  0.1036  0.3490
  114BOLB   C1A 2717  33.589  11.350  10.255  0.2630 -0.0401 -0.2220
  114BOLB   C2A 2718  33.537  11.800  10.266 -0.3194  0.1279 -0.0366
  114BOLB   C3A 2719  33.657  12.214  10.366 -0.1264  0.0212  0.2588
  114BOLB   C4A 2720  33.574  12.620  10.451  0.0481  0.0974  0.2109
  114BOLB   C1B 2721  34.177  10.744   9.995  0.0915 -0.1487  0.4477
  114BOLB   C2B 2722  34.388  11.047   9.712 -0.0557  0.2188 -0.0094
  114BOLB   C3B 2723  34.541  11.358   9.694  0.0984  0.2001  0.3622
  114BOLB   C4B 2724  34.453  11.827   9.723 -0.1319  0.1058 -0.0896
  114BOLB   NC2 2725  32.047  11.066  11.579  0.0848 -0.0594 -0.0479
  114BOLB   PO2 2726  32.433  11.145  11.848 -0.0742  0.1882 -0.2412
  114BOLB   GL3 2727  32.653  11.407  11.655 -0.0160 -0.0957 -0.1059
  114BOLB   GL4 2728  32.718  11.699  11.717  0.1072 -0.1160 -0.2183
  114BOLB   C1C 2729  32.849  11.532  11.302  0.2365 -0.2133  0.4292
  114BOLB   C2C 2730  33.127  11.874  11.287  0.1662  0.2382 -0.1089
  114BOLB   C3C 2731  33.168  12.288  11.122  0.0266 -0.2231 -0.1871
  114BOLB   C4C 2732  33.283  12.585  10.760 -0.2103  0.0941  0.1326
  114BOLB   C1D 2733  33.069  12.085  11.784  0.2123  0.2847 -0.2628
  114BOLB   C2D 2734  33.497  12.280  11.637  0.0065 -0.0486  0.1235
  114BOLB   C3D 2735  33.595  12.526  11.230  0.1651 -0.0943  0.0399
  114BOLB   C4D 2736  33.805  12.805  11.022  0.3911  0.2727  0.0875
  115BOLB   NC1 2737   9.040   9.631   6.008 -0.1671 -0.0428 -0.1670
  115BOLB   PO1 2738   8.932   9.818   5.626  0.0754 -0.0528 -0.2219
  115BOLB   GL1 2739   8.785  10.098   5.882  0.0553  0.0421  0.3412
  115BOLB   GL2 2740   8.666   9.945   6.141 -0.3791  0.1525 -0.0267
  115BOLB   C1A 2741   8.322  10.269   5.792  0.0248 -0.0963  0.4129
  115BOLB   C2A 2742   7.912  10.524   5.866 -0.3327 -0.0988 -0.0312
  115BOLB   C3A 2743   7.815  10.589   6.247 -0.1822  0.1183  0.0360
  115BOLB   C4A 2744   7.640  10.904   6.481 -0.1658 -0.1340  0.2239
  115BOLB   C1B 2745   8.560  10.284   6.269  0.1862 -0.1489  0.0893
  115BOLB   C2B 2746   8.312  10.589   6.262  0.0286  0.1795  0.0517
  115BOLB   C3B 2747   8.091  10.989   6.182 -0.0635  0.1217  0.1687
  115BOLB   C4B 2748   8.103  11.175   5.748  0.0139 -0.0605  0.1797
  115BOLB   NC2 2749   7.361   9.975   5.157  0.1984 -0.0936  0.0408
  115BOLB   PO2 2750   7.282   9.905   4.701 -0.2696 -0.4889 -0.1401
  115BOLB   GL3 2751   7.078  10.335   4.980  0.3126 -0.2900 -0.2595
  115BOLB   GL4 2752   7.271  10.538   4.979 -0.1445  0.1356 -0.3875
  115BOLB   C1C 2753   6.982  10.526   5.398  0.2187  0.1331  0.0095
  115BOLB   C2C 2754   6.817  10.679   5.768  0.1431 -0.0391 -0.1233
  115BOLB   C3C 2755   6.889  11.015   6.048  0.0472  0.3289  0.0039
  115BOLB   C4C 2756   7.249  11.060   6.343  0.0438 -0.0309 -0.2274
  115BOLB   C1D 2757   7.019  10.916   5.175 -0.0943 -0.0587 -0.1079
  115BOLB   C2D 2758   6.577  11.000   5.434  0.0297 -0.0949  0.1117
  115BOLB   C3D 2759   6.591  11.312   5.696 -0.5406  0.0987  0.2100
  115BOLB   C4D 2760   6.478  11.396   6.118  0.2240 -0.1177  0.1574
  116BOLB   NC1 2761  13.164  28.638   4.003 -0.1434  0.1389 -0.2972
  116BOLB   PO1 2762  13.597  28.436   4.041  0.2658  0.0601 -0.1269
  116BOLB   GL1 2763  13.385  28.150   4.299 -0.1262 -0.0860  0.0812
  116BOLB   GL2 2764  13.076  28.316   4.426 -0.3331 -0.2248 -0.3015
  116BOLB   C1A 2765  13.453  27.708   4.304  0.3763 -0.1366 -0.0198
  116BOLB   C2A 2766  13.099  27.451   4.349  0.3249 -0.1413 -0.2392
  116BOLB   C3A 2767  12.932  27.083   4.448 -0.0594 -0.3129  0.2210
  116BOLB   C4A 2768  12.496  27.089   4.410 -0.1371  0.1861 -0.1774
  116BOLB   C1B 2769  13.107  27.910   4.690  0.0879 -0.1966  0.1860
  116BOLB   C2B 2770  13.176  27.505   4.860  0.2803 -0.3888 -0.1145
  116BOLB   C3B 2771  13.505  27.240   4.981  0.2716 -0.2504  0.0631
  116BOLB   C4B 2772  13.775  26.951   4.882  0.3762 -0.1174 -0.5042
  116BOLB   NC2 2773  13.049  28.539   2.764  0.0370  0.1988  0.0870
  116BOLB   PO2 2774  13.189  28.385   3.170  0.1108 -0.1693  0.2989
  116BOLB   GL3 2775  12.844  28.115   3.415 -0.0809 -0.2246  0.0633
  116BOLB   GL4 2776  12.536  28.067   3.363 -0.1202  0.4686  0.1646
  116BOLB   C1C 2777  12.755  27.788   3.705 -0.0593  0.0101  0.0740
  116BOLB   C2C 2778  12.821  27.397   3.550  0.3053  0.0041  0.2162
  116BOLB   C3C 2779  12.898  26.994   3.676  0.2019  0.1641  0.0855
  116BOLB   C4C 2780  12.573  26.874   4.080 -0.0627 -0.2224 -0.2206
  116BOLB   C1D 2781  12.213  27.747   3.582 -0.2523  0.1728 -0.0636
  116BOLB   C2D 2782  11.889  27.556   3.816 -0.0490 -0.1017 -0.1619
  116BOLB   C3D 2783  11.871  27.155   4.042 -0.1008  0.3168  0.1253
  116BOLB   C4D 2784  11.979  26.792   4.290  0.2864 -0.1163  0.0444
  117BOLB   NC1 2785   5.168  28.537   7.947  0.1934 -0.2279  0.4607
  117BOLB   PO1 2786   4.764  28.652   8.223 -0.2345  0.0587 -0.1761
  117BOLB   GL1 2787   4.770  29.017   8.315 -0.1024  0.1832 -0.2950
  117BOLB   GL2 2788   5.084  29.241   8.488  0.2157 -0.2294  0.0705
  117BOLB   C1A 2789   4.674  29.429   8.285  0.0585 -0.1818 -0.3417
  117BOLB   C2A 2790   4.703  29.836   8.150 -0.1076 -0.0091 -0.0141
  117BOLB   C3A 2791   4.601  30.299   8.207 -0.0108 -0.1397  0.0727
  117BOLB   C4A 2792   4.381  30.621   8.160  0.0340  0.0385  0.1413
  117BOLB   C1B 2793   5.294  29.666   8.455  0.2575 -0.0955  0.1451
  117BOLB   C2B 2794   5.378  29.976   8.174 -0.0471  0.0579 -0.2751
  117BOLB   C3B 2795   5.032  30.239   7.908 -0.2313  0.2420 -0.0286
  117BOLB   C4B 2796   4.888  30.620   7.877  0.2157  0.1502  0.2793
  117BOLB   NC2 2797   3.227  32.088   7.158  0.0482  0.2176  0.2302
  117BOLB   PO2 2798   3.417  32.410   7.287  0.2121 -0.1796 -0.0118
  117BOLB   GL3 2799   3.360  32.182   7.594 -0.3053  0.0850  0.0016
  117BOLB   GL4 2800   3.169  31.850   7.647 -0.0742  0.1623  0.1154
  117BOLB   C1C 2801   3.586  31.888   7.842  0.1127 -0.0068  0.0918
  117BOLB   C2C 2802   3.676  31.445   7.928 -0.2146 -0.0997 -0.4783
  117BOLB   C3C 2803   3.852  31.058   8.030  0.0857  0.1868 -0.1627
  117BOLB   C4C 2804   4.011  30.755   8.168  0.0294  0.2222 -0.0604
  117BOLB   C1D 2805   3.453  31.554   7.410  0.0629  0.0264 -0.1328
  117BOLB   C2D 2806   3.868  31.417   7.403 -0.1540  0.0634  0.0870
  117BOLB   C3D 2807   4.283  31.466   7.367 -0.0635 -0.2784 -0.0962
  117BOLB   C4D 2808   4.658  31.281   7.365  0.1808 -0.2062  0.2293
  118BOLB   NC1 2809  30.364  14.894  13.210  0.1555 -0.1150  0.0584
  118BOLB   PO1 2810  30.464  14.744  12.820 -0.0604 -0.0660  0.1892
  118BOLB   GL1 2811  30.771  15.106  12.920  0.0459 -0.1268 -0.2008
  118BOLB   GL2 2812  30.987  14.946  12.671 -0.0836  0.0006  0.3657
  118BOLB   C1A 2813  31.169  15.395  12.954  0.0577  0.0614 -0.3015
  118BOLB   C2A 2814  31.521  15.553  13.156 -0.0804  0.0584  0.2863
  118BOLB   C3A 2815  31.929  15.687  13.379  0.1308 -0.2832  0.0225
  118BOLB   C4A 2816  32.065  15.712  13.875 -0.0034  0.1361  0.0191
  118BOLB   C1B 2817  31.473  14.757  12.546  0.0943  0.0421  0.2620
  118BOLB   C2B 2818  31.650  14.309  12.758  0.2097 -0.1977 -0.0061
  118BOLB   C3B 2819  31.747  13.919  12.708 -0.0119 -0.0100 -0.2358
  118BOLB   C4B 2820  32.155  13.641  12.636  0.0405 -0.1562 -0.0999
  118BOLB   NC2 2821  31.246  13.553  13.933  0.1038  0.1671  0.0406
  118BOLB   PO2 2822  31.259  13.866  13.555  0.2220 -0.0069 -0.1490
  118BOLB   GL3 2823  31.391  14.225  13.622  0.0886  0.0657 -0.0383
  118BOLB   GL4 2824  31.363  14.345  13.288  0.1930 -0.2320  0.4544
  118BOLB   C1C 2825  31.594  14.587  13.844  0.2179  0.0225  0.2454
  118BOLB   C2C 2826  31.587  14.708  14.213  0.0743 -0.2468  0.2677
  118BOLB   C3C 2827  31.767  14.942  14.378 -0.3318  0.0591 -0.0481
  118BOLB   C4C 2828  32.027  15.300  14.173  0.1790  0.0470 -0.1079
  118BOLB   C1D 2829  31.763  14.611  13.146 -0.1130 -0.1425  0.2757
  118BOLB   C2D 2830  31.961  14.786  12.738 -0.2186 -0.1491  0.4554
  118BOLB   C3D 2831  32.251  15.164  12.696 -0.1466  0.0596 -0.2623
  118BOLB   C4D 2832  32.658  15.279  12.700 -0.0571 -0.4276 -0.0105
  119BOLB   NC1 2833  11.849  27.306  10.530  0.4134  0.5390  0.2464
  119BOLB   PO1 2834  12.147  27.102  10.726 -0.1879  0.2332 -0.0621
  119BOLB   GL1 2835  12.353  27.395  10.486 -0.2963 -0.0808  0.0857
  119BOLB   GL2 2836  12.113  27.559  10.263  0.3755 -0.2273 -0.3673
  119BOLB   C1A 2837  12.724  27.739  10.576 -0.2146 -0.3301  0.0422
  119BOLB   C2A 2838  13.014  27.977  10.878 -0.2532 -0.0819 -0.0060
  119BOLB   C3A 2839  13.246  28.328  10.924 -0.2105 -0.1097  0.2390
  119BOLB   C4A 2840  13.506  28.687  11.011 -0.1065 -0.1840 -0.0679
  119BOLB   C1B 2841  12.229  27.905  10.546 -0.1589  0.0163  0.2157
  119BOLB   C2B 2842  12.488  28.165  10.746 -0.3345 -0.1803  0.1207
  119BOLB   C3B 2843  12.842  28.355  10.646 -0.0792  0.0421  0.3300
  119BOLB   C4B 2844  13.029  28.739  10.507 -0.0858  0.1067 -0.2482
  119BOLB   NC2 2845  15.006  29.957  10.353  0.0931  0.4301 -0.0653
  119BOLB   PO2 2846  15.290  29.634  10.134  0.0192  0.3330  0.1496
  119BOLB   GL3 2847  14.940  29.590  10.010 -0.0263 -0.2345  0.1586
  119BOLB   GL4 2848  14.960  29.259   9.835  0.1025 -0.2091  0.1173
  119BOLB   C1C 2849  14.699  29.335  10.353  0.0093 -0.0109 -0.2268
  119BOLB   C2C 2850  14.593  29.369  10.798  0.0953 -0.0947  0.2319
  119BOLB   C3C 2851  14.350  29.170  11.012  0.2245  0.2132 -0.0111
  119BOLB   C4C 2852  13.931  29.023  11.096  0.3166  0.3218  0.0710
  119BOLB   C1D 2853  14.549  29.352   9.832  0.0147  0.0693 -0.3344
  119BOLB   C2D 2854  14.305  29.036  10.162  0.0999  0.5043 -0.3855
  119BOLB   C3D 2855  14.163  28.683  10.410 -0.2752  0.0568 -0.1341
  119BOLB   C4D 2856  13.955  28.318  10.509 -0.1594 -0.2502  0.1548
  120BOLB   NC1 2857   6.189  33.273  11.843  0.1596 -0.2102 -0.0184
  120BOLB   PO1 2858   6.511  33.341  12.150 -0.4969 -0.0672  0.2297
  120BOLB   GL1 2859   6.334  32.891  12.104  0.1724  0.0807 -0.1540
  120BOLB   GL2 2860   6.019  32.824  12.047  0.2328 -0.0499 -0.2743
  120BOLB   C1A 2861   6.325  32.415  12.162 -0.1047 -0.0949  0.0873
  120BOLB   C2A 2862   6.045  32.192  12.338  0.4138  0.1589 -0.0733
  120BOLB   C3A 2863   5.938  31.721  12.397  0.0653 -0.2957  0.1280
  120BOLB   C4A 2864   5.650  31.481  12.363  0.0456 -0.1943 -0.0635
  120BOLB   C1B 2865   5.698  32.497  12.070 -0.1924  0.1266 -0.0186
  120BOLB   C2B 2866   5.734  32.109  11.870  0.2757 -0.2243  0.2754
  120BOLB   C3B 2867   5.765  31.588  11.933  0.2560  0.2859 -0.0701
  120BOLB   C4B 2868   6.055  31.179  12.124  0.1360 -0.5141 -0.1571
  120BOLB   NC2 2869   5.865  29.037  12.331 -0.2431  0.0767  0.3851
  120BOLB   PO2 2870   6.142  28.959  12.359  0.1154 -0.0660  0.0509
  120BOLB   GL3 2871   6.166  29.423  12.303  0.0561 -0.1122  0.1092
  120BOLB   GL4 2872   6.314  29.367  12.021 -0.1762 -0.1179  0.0209
  120BOLB   C1C 2873   6.053  29.810  12.238  0.1029  0.2283 -0.1281
  120BOLB   C2C 2874   5.756  30.097  12.290  0.0404  0.4765 -0.1100
  120BOLB   C3C 2875   5.536  30.492  12.365 -0.4056 -0.2262 -0.0278
  120BOLB   C4C 2876   5.588  31.032  12.250 -0.0283 -0.0502  0.1559
  120BOLB   C1D 2877   6.416  29.702  11.755  0.4738  0.1478 -0.0664
  120BOLB   C2D 2878   6.432  30.067  11.825  0.4057  0.0910 -0.1396
  120BOLB   C3D 2879   6.537  30.502  11.894  0.2885 -0.5069  0.3190
  120BOLB   C4D 2880   6.445  30.764  12.196  0.0646  0.0226 -0.2139
  121BOLB   NC1 2881   1.534  24.539   5.189  0.0909 -0.2338  0.1451
  121BOLB   PO1 2882   1.532  24.199   5.144 -0.0298  0.0287  0.3075
  121BOLB   GL1 2883   1.178  24.347   4.873  0.5419 -0.2068  0.0982
  121BOLB   GL2 2884   0.868  24.170   4.709 -0.1216 -0.0779 -0.1172
  121BOLB   C1A 2885   0.884  24.645   4.557 -0.2407 -0.8246 -0.0646
  121BOLB   C2A 2886   0.691  25.093   4.376 -0.3614 -0.4015 -0.1200
  121BOLB   C3A 2887   0.776  25.448   4.123 -0.1033  0.2216 -0.2518
  121BOLB   C4A 2888   0.647  25.917   3.986 -0.3609 -0.1592  0.2345
  121BOLB   C1B 2889   0.556  24.067   4.474  0.1119  0.2719 -0.4424
  121BOLB   C2B 2890   0.237  23.880   4.416  0.3162  0.2141  0.1488
  121BOLB   C3B 2891  -0.094  23.654   4.191  0.0560 -0.0547 -0.1420
  121BOLB   C4B 2892  -0.487  23.729   4.053 -0.0514  0.1933  0.1599
  121BOLB   NC2 2893  -1.253  27.116   3.829 -0.0092 -0.0546  0.0926
  121BOLB   PO2 2894  -1.116  27.169   3.424  0.0079 -0.2467 -0.0122
  121BOLB   GL3 2895  -0.739  26.992   3.574  0.0222 -0.0607  0.0012
  121BOLB   GL4 2896  -0.814  26.836   3.762  0.0054 -0.1863 -0.2413
  121BOLB   C1C 2897  -0.356  26.952   3.677  0.1280 -0.0031 -0.2081
  121BOLB   C2C 2898  -0.110  26.561   3.891  0.1617  0.1875 -0.1113
  121BOLB   C3C 2899   0.212  26.519   3.787  0.0803 -0.1811  0.1453
  121BOLB   C4C 2900   0.657  26.389   3.800  0.0119  0.0148 -0.0282
  121BOLB   C1D 2901  -0.614  26.470   3.913  0.0428 -0.0293 -0.1050
  121BOLB   C2D 2902  -0.371  26.013   4.014 -0.0511  0.0586 -0.2905
  121BOLB   C3D 2903  -0.203  25.683   4.211 -0.0297 -0.3391  0.0722
  121BOLB   C4D 2904  -0.156  25.293   4.430  0.2059 -0.3037 -0.1385
  122BOLB   NC1 2905   4.451  28.036  13.087 -0.0574  0.0503  0.1156
  122BOLB   PO1 2906   4.113  28.268  12.877 -0.0658 -0.1759 -0.0493
  122BOLB   GL1 2907   3.688  28.513  12.990  0.1062 -0.1322 -0.1610
  122BOLB   GL2 2908   3.385  28.385  12.827 -0.2497  0.1065 -0.1195
  122BOLB   C1A 2909   3.287  28.797  13.218  0.0588  0.0453 -0.0027
  122BOLB   C2A 2910   3.079  28.728  13.649  0.0536 -0.1267 -0.2066
  122BOLB   C3A 2911   2.695  28.771  13.863  0.1597 -0.2059 -0.3433
  122BOLB   C4A 2912   2.477  29.055  13.859  0.0193 -0.3198  0.2103
  122BOLB   C1B 2913   3.281  28.871  12.727  0.2674  0.0540 -0.0463
  122BOLB   C2B 2914   3.297  29.226  12.785 -0.2551  0.0813 -0.0395
  122BOLB   C3B 2915   3.502  29.719  12.863  0.2178  0.2258 -0.1504
  122BOLB   C4B 2916   3.442  30.126  13.104  0.1654 -0.5052  0.3824
  122BOLB   NC2 2917   1.585  30.831  14.979 -0.3230 -0.2315  0.0855
  122BOLB   PO2 2918   1.229  31.115  15.019  0.1583 -0.0240 -0.1426
  122BOLB   GL3 2919   1.288  30.827  14.571 -0.1978 -0.0915 -0.2349
  122BOLB   GL4 2920   1.254  31.031  14.271 -0.2429  0.1508 -0.0002
  122BOLB   C1C 2921   1.491  30.455  14.353  0.1360 -0.3275 -0.0834
  122BOLB   C2C 2922   1.638  30.081  14.197 -0.0649  0.2528 -0.2160
  122BOLB   C3C 2923   1.736  29.663  14.017 -0.1267  0.0582 -0.2899
  122BOLB   C4C 2924   2.138  29.302  13.979 -0.0627 -0.1072  0.2641
  122BOLB   C1D 2925   1.320  30.793  13.925  0.3028  0.0704 -0.1504
  122BOLB   C2D 2926   1.711  30.724  13.786  0.3263  0.1990 -0.0337
  122BOLB   C3D 2927   1.900  30.313  13.667 -0.0372  0.2479  0.1451
  122BOLB   C4D 2928   2.250  30.136  13.478  0.1488  0.1536  0.2521
  123BOLB   NC1 2929  34.098  27.254  10.824  0.2855  0.1027  0.3605
  123BOLB   PO1 2930  34.420  27.062  11.209 -0.0424 -0.3055 -0.0776
  123BOLB   GL1 2931  34.602  26.728  11.263  0.0916 -0.0105  0.1026
  123BOLB   GL2 2932  34.903  26.818  11.076 -0.1155  0.0389 -0.0461
  123BOLB   C1A 2933  34.544  26.380  11.397 -0.0673  0.0921 -0.1455
  123BOLB   C2A 2934  34.289  26.129  11.581 -0.3809  0.2872  0.0569
  123BOLB   C3A 2935  34.055  25.699  11.462 -0.0052  0.0028 -0.4135
  123BOLB   C4A 2936  34.023  25.333  11.690 -0.1130  0.2138  0.0379
  123BOLB   C1B 2937  34.903  26.378  10.958  0.0956  0.2258  0.2248
  123BOLB   C2B 2938  34.891  26.029  11.162 -0.2476 -0.2048  0.1692
  123BOLB   C3B 2939  35.037  25.614  11.240  0.0228 -0.1276 -0.2682
  123BOLB   C4B 2940  35.290  25.248  11.395 -0.1735 -0.2164  0.0984
  123BOLB   NC2 2941  32.715  26.395  12.379 -0.2450 -0.0208  0.1202
  123BOLB   PO2 2942  33.079  26.546  12.698  0.1559 -0.0678 -0.1847
  123BOLB   GL3 2943  33.170  26.058  12.575 -0.1171  0.0358  0.0807
  123BOLB   GL4 2944  33.273  25.758  12.793  0.1533  0.1421 -0.3252
  123BOLB   C1C 2945  33.252  25.951  12.187 -0.0902  0.0362  0.1022
  123BOLB   C2C 2946  33.195  25.617  12.004 -0.2151  0.1766 -0.0568
  123BOLB   C3C 2947  33.391  25.247  11.930  0.0280 -0.0785  0.3957
  123BOLB   C4C 2948  33.780  24.961  11.972  0.0456  0.0853 -0.4745
  123BOLB   C1D 2949  33.540  25.569  12.381  0.0701  0.0601 -0.1162
  123BOLB   C2D 2950  33.534  25.064  12.329  0.1776  0.0635 -0.2537
  123BOLB   C3D 2951  33.606  24.562  12.224  0.1370  0.1173 -0.2623
  123BOLB   C4D 2952  33.275  24.263  12.383  0.0122  0.1390 -0.1515
  124BOLB   NC1 2953   9.613  14.000   9.565  0.0775 -0.1777 -0.1213
  124BOLB   PO1 2954   9.422  13.654   9.716 -0.2523  0.1695 -0.0377
  124BOLB   GL1 2955   9.294  13.226   9.784  0.1869 -0.0554  0.4412
  124BOLB   GL2 2956   9.496  13.072   9.500 -0.2534 -0.0035  0.1042
  124BOLB   C1A 2957   9.478  12.795   9.902 -0.3644  0.1221 -0.0063
  124BOLB   C2A 2958   9.804  12.502   9.995  0.0831 -0.0048 -0.0364
  124BOLB   C3A 2959   9.999  12.159   9.991  0.0773 -0.1227  0.0405
  124BOLB   C4A 2960  10.000  11.728   9.749  0.3180  0.0379 -0.3265
  124BOLB   C1B 2961   9.799  12.734   9.452  0.1980  0.4195 -0.0295
  124BOLB   C2B 2962  10.040  12.528   9.101  0.1917  0.0767 -0.1287
  124BOLB   C3B 2963  10.152  12.382   8.768 -0.2059 -0.0734  0.2051
  124BOLB   C4B 2964  10.037  12.018   8.592  0.1135  0.2220  0.1705
  124BOLB   NC2 2965  11.126   9.812   8.912  0.0526 -0.0528 -0.1457
  124BOLB   PO2 2966  10.836   9.938   9.173  0.0231 -0.0649  0.0527
  124BOLB   GL3 2967  10.831  10.295   9.356 -0.0458 -0.2185  0.0386
  124BOLB   GL4 2968  10.979  10.623   9.434 -0.2382  0.1340 -0.1371
  124BOLB   C1C 2969  10.518  10.445   9.619 -0.1042  0.2749 -0.0629
  124BOLB   C2C 2970  10.482  10.649  10.000  0.0485  0.0780  0.1478
  124BOLB   C3C 2971  10.160  10.992  10.033  0.3011  0.1297  0.4117
  124BOLB   C4C 2972   9.929  11.393  10.042 -0.1124 -0.3321 -0.0190
  124BOLB   C1D 2973  10.997  11.105   9.331 -0.0903  0.2443  0.0666
  124BOLB   C2D 2974  10.784  11.504   9.550 -0.0542 -0.0573 -0.2466
  124BOLB   C3D 2975  10.649  11.973   9.571 -0.0176 -0.2539 -0.0463
  124BOLB   C4D 2976  10.324  12.109   9.339  0.0448  0.2391 -0.2394
  125BOLB   NC1 2977  30.333  16.168  15.634 -0.0892  0.0844  0.2011
  125BOLB   PO1 2978  30.097  16.363  16.008  0.1427  0.1833 -0.1075
  125BOLB   GL1 2979  30.487  16.715  15.909 -0.0756  0.0845  0.2280
  125BOLB   GL2 2980  30.754  16.594  16.094 -0.1059 -0.2069  0.0857
  125BOLB   C1A 2981  30.805  17.037  15.926  0.1975 -0.1053  0.2938
  125BOLB   C2A 2982  31.263  17.005  15.833  0.0920 -0.1947 -0.1206
  125BOLB   C3A 2983  31.555  17.317  16.009 -0.1138  0.2319 -0.4204
  125BOLB   C4A 2984  31.768  17.524  16.205 -0.2818  0.0315  0.3373
  125BOLB   C1B 2985  31.234  16.495  16.083  0.1728 -0.0419  0.1257
  125BOLB   C2B 2986  31.548  16.256  16.182  0.2444  0.1720 -0.2125
  125BOLB   C3B 2987  31.845  16.086  16.378 -0.1005  0.5402 -0.1006
  125BOLB   C4B 2988  32.373  16.116  16.377  0.0822 -0.5480  0.1860
  125BOLB   NC2 2989  31.294  17.238  18.367 -0.1609 -0.3438  0.1690
  125BOLB   PO2 2990  30.932  17.414  18.438  0.1377 -0.3181 -0.1526
  125BOLB   GL3 2991  31.135  17.622  18.101  0.1088 -0.2125 -0.0221
  125BOLB   GL4 2992  31.007  17.867  17.857  0.0223  0.0544 -0.1124
  125BOLB   C1C 2993  31.357  17.548  17.706 -0.1459  0.0695  0.2079
  125BOLB   C2C 2994  31.627  17.653  17.432 -0.1390  0.2734  0.1427
  125BOLB   C3C 2995  31.825  17.632  17.108  0.6618  0.3319 -0.0030
  125BOLB   C4C 2996  31.915  17.662  16.712 -0.0358  0.1182  0.0953
  125BOLB   C1D 2997  31.083  17.954  17.395 -0.1862 -0.2377  0.0793
  125BOLB   C2D 2998  31.451  17.987  17.094 -0.3527 -0.1103 -0.0860
  125BOLB   C3D 2999  31.615  18.053  16.706  0.0723 -0.2323  0.2124
  125BOLB   C4D 3000  31.906  18.046  16.405  0.1143  0.0490  0.0143
  126BOLB   NC1 3001   4.388  24.522  21.902 -0.0356 -0.1588  0.2943
  126BOLB   PO1 3002   4.785  24.619  22.180 -0.3161  0.1123 -0.0175
  126BOLB   GL1 3003   4.858  24.640  21.750 -0.3881  0.0233  0.1392
  126BOLB   GL2 3004   4.650  24.491  21.488  0.4508 -0.0562  0.1847
  126BOLB   C1A 3005   5.076  24.605  21.328  0.2200  0.1310 -0.1791
  126BOLB   C2A 3006   5.436  24.571  21.126 -0.2035  0.0150 -0.0610
  126BOLB   C3A 3007   5.580  24.449  20.761  0.4352 -0.1840  0.2139
  126BOLB   C4A 3008   5.777  24.288  20.342  0.0312  0.2544  0.0208
  126BOLB   C1B 3009   4.668  24.319  21.122 -0.1223  0.2672  0.2882
  126BOLB   C2B 3010   4.793  24.089  20.723  0.1843 -0.0176 -0.2549
  126BOLB   C3B 3011   4.906  24.007  20.303  0.1490  0.2055  0.2181
  126BOLB   C4B 3012   5.135  23.972  19.916  0.0668  0.2831 -0.0112
  126BOLB   NC2 3013   6.140  24.277  17.898 -0.0694  0.0426  0.1658
  126BOLB   PO2 3014   6.239  24.037  18.294  0.1780  0.1220 -0.0897
  126BOLB   GL3 3015   6.060  23.846  18.587 -0.0960 -0.1044  0.0139
  126BOLB   GL4 3016   5.778  23.723  18.588 -0.0850  0.1463 -0.1116
  126BOLB   C1C 3017   5.928  23.992  19.075  0.1480  0.0719 -0.0333
  126BOLB   C2C 3018   6.093  24.105  19.477  0.0862 -0.0666 -0.0494
  126BOLB   C3C 3019   6.229  24.082  19.869  0.0180 -0.1425  0.0793
  126BOLB   C4C 3020   6.100  24.301  20.135 -0.1995 -0.0679 -0.0270
  126BOLB   C1D 3021   5.495  23.722  19.121  0.5194  0.1055  0.0561
  126BOLB   C2D 3022   5.313  23.635  19.419  0.0504  0.0112 -0.1414
  126BOLB   C3D 3023   5.357  23.449  19.729 -0.1692 -0.2711 -0.1589
  126BOLB   C4D 3024   5.317  23.058  19.870 -0.1328 -0.0633 -0.2476
  127BOLB   NC1 3025  12.458  24.902  14.090  0.1263 -0.1517 -0.0869
  127BOLB   PO1 3026  12.579  25.159  14.321 -0.2088  0.0588  0.0056
  127BOLB   GL1 3027  12.739  25.481  14.612  0.1309  0.1697  0.0545
  127BOLB   GL2 3028  12.799  25.841  14.526 -0.0407  0.2706 -0.0642
  127BOLB   C1A 3029  13.043  25.428  14.861  0.0708 -0.4377  0.0025
  127BOLB   C2A 3030  13.416  25.544  15.077  0.3170 -0.2216  0.1214
  127BOLB   C3A 3031  13.787  25.636  15.345  0.3560 -0.5514  0.0034
  127BOLB   C4A 3032  14.219  25.787  15.437  0.1567  0.1512 -0.0046
  127BOLB   C1B 3033  13.033  26.253  14.574  0.2039 -0.0079 -0.2277
  127BOLB   C2B 3034  13.396  26.514  14.776 -0.0138 -0.0998 -0.1250
  127BOLB   C3B 3035  13.730  26.445  15.013 -0.2216  0.1767 -0.0921
  127BOLB   C4B 3036  13.990  26.031  15.043  0.3088  0.0411 -0.1834
  127BOLB   NC2 3037  16.387  26.698  16.632 -0.0419 -0.0146 -0.0360
  127BOLB   PO2 3038  16.385  26.363  16.792  0.0102  0.0004  0.0037
  127BOLB   GL3 3039  16.025  26.057  16.545 -0.0176 -0.1408 -0.0646
  127BOLB   GL4 3040  15.749  25.947  16.707 -0.0962  0.1600 -0.0326
  127BOLB   C1C 3041  15.779  26.068  16.178 -0.1059  0.2825  0.3808
  127BOLB   C2C 3042  15.382  26.077  16.052  0.0782 -0.3620 -0.0642
  127BOLB   C3C 3043  14.965  25.999  16.026 -0.2465  0.2091 -0.0618
  127BOLB   C4C 3044  14.595  25.891  15.745  0.0533  0.0751 -0.2749
  127BOLB   C1D 3045  15.634  25.550  16.794  0.3953 -0.0596  0.0488
  127BOLB   C2D 3046  15.281  25.309  16.595  0.0741  0.0186  0.1285
  127BOLB   C3D 3047  14.870  25.003  16.510  0.1977 -0.2903 -0.2768
  127BOLB   C4D 3048  14.600  24.689  16.660 -0.2108  0.1223  0.5553
  128BOLB   NC1 3049   8.373  16.492   4.008 -0.2180  0.2306 -0.1340
  128BOLB   PO1 3050   8.559  16.120   3.866  0.0701 -0.4087  0.0808
  128BOLB   GL1 3051   8.998  15.921   3.646 -0.0866  0.3532  0.1030
  128BOLB   GL2 3052   9.049  15.874   3.347 -0.2103  0.2532  0.1068
  128BOLB   C1A 3053   9.230  15.542   3.602  0.2777  0.0936  0.1991
  128BOLB   C2A 3054   9.314  15.331   3.198  0.1077 -0.0272 -0.1870
  128BOLB   C3A 3055   9.147  15.284   2.851  0.2056  0.2924 -0.0924
  128BOLB   C4A 3056   8.908  15.208   2.409  0.0877 -0.0150 -0.1235
  128BOLB   C1B 3057   8.827  15.443   3.248  0.2558 -0.0305 -0.0670
  128BOLB   C2B 3058   8.972  14.886   3.078 -0.0702  0.0384  0.1514
  128BOLB   C3B 3059   9.232  14.513   2.951 -0.3866  0.2998  0.3669
  128BOLB   C4B 3060   9.613  14.483   2.749  0.0320  0.0513  0.1952
  128BOLB   NC2 3061   9.935  12.895   1.070 -0.1987  0.2591  0.2482
  128BOLB   PO2 3062   9.721  13.163   0.613  0.0734 -0.0473  0.1458
  128BOLB   GL3 3063   9.500  13.490   0.836  0.1390  0.0009 -0.2348
  128BOLB   GL4 3064   9.476  13.298   1.076  0.0950 -0.2227 -0.3198
  128BOLB   C1C 3065   9.396  13.923   1.181 -0.3518 -0.0257  0.1719
  128BOLB   C2C 3066   9.424  14.279   1.522  0.0020 -0.0816 -0.1509
  128BOLB   C3C 3067   9.495  14.616   1.848 -0.1424  0.2880  0.0629
  128BOLB   C4C 3068   9.154  14.909   2.146  0.4997 -0.3188 -0.0683
  128BOLB   C1D 3069   9.588  13.502   1.397  0.2134  0.3381 -0.0706
  128BOLB   C2D 3070   9.599  13.770   1.747  0.0762 -0.0304 -0.2351
  128BOLB   C3D 3071   9.369  14.093   2.060  0.3613 -0.1180  0.3192
  128BOLB   C4D 3072   9.345  14.446   2.294  0.1568  0.1870 -0.0872
  129BOLB   NC1 3073  11.079  30.059  18.255 -0.0191 -0.0213 -0.0756
  129BOLB   PO1 3074  10.808  29.715  18.528 -0.0478  0.2818 -0.4609
  129BOLB   GL1 3075  10.655  29.497  18.330 -0.3209  0.1278  0.0033
  129BOLB   GL2 3076  10.947  29.425  18.120 -0.0804 -0.2167 -0.1687
  129BOLB   C1A 3077  10.600  29.034  18.290 -0.1001 -0.2801 -0.0508
  129BOLB   C2A 3078  10.378  28.799  17.968 -0.0157  0.0596 -0.0556
  129BOLB   C3A 3079   9.858  28.713  17.800 -0.4453  0.0440 -0.1518
  129BOLB   C4A 3080   9.832  28.462  17.461  0.1546  0.2191 -0.1746
  129BOLB   C1B 3081  10.829  29.047  17.867  0.1777 -0.2063  0.2570
  129BOLB   C2B 3082  10.714  28.739  17.543 -0.0047 -0.0930  0.0096
  129BOLB   C3B 3083  10.764  28.757  17.102  0.2417 -0.0142  0.1181
  129BOLB   C4B 3084  10.479  28.932  16.830  0.0295 -0.0320  0.1317
  129BOLB   NC2 3085   9.866  26.163  15.611  0.1843  0.0791 -0.1293
  129BOLB   PO2 3086  10.006  26.422  16.083  0.6431  0.0404 -0.0600
  129BOLB   GL3 3087  10.264  26.786  16.402  0.3033 -0.5105  0.0995
  129BOLB   GL4 3088  10.707  26.870  16.313  0.0517  0.1353 -0.2050
  129BOLB   C1C 3089  10.257  26.991  16.804  0.0245 -0.0506 -0.0847
  129BOLB   C2C 3090  10.272  27.342  17.008 -0.0193 -0.4788 -0.1369
  129BOLB   C3C 3091  10.184  27.811  17.161  0.1051  0.1565 -0.1643
  129BOLB   C4C 3092  10.023  28.176  17.338 -0.0925  0.0594  0.0333
  129BOLB   C1D 3093  11.118  26.779  16.527 -0.0150 -0.0382 -0.1540
  129BOLB   C2D 3094  11.404  27.040  16.666 -0.4824 -0.0184  0.3435
  129BOLB   C3D 3095  11.467  27.435  16.937 -0.0143  0.0034  0.2623
  129BOLB   C4D 3096  11.736  27.693  17.223 -0.2372 -0.3340 -0.1449
  130BOLB   NC1 3097  14.883  21.133   6.608 -0.1422  0.3759  0.1456
  130BOLB   PO1 3098  15.317  20.871   6.666  0.0221 -0.4283 -0.1233
  130BOLB   GL1 3099  15.576  21.195   6.554 -0.3316 -0.1955 -0.1089
  130BOLB   GL2 3100  15.580  21.305   6.305  0.0525 -0.1494  0.0618
  130BOLB   C1A 3101  16.005  21.082   6.456  0.0435 -0.1801 -0.0866
  130BOLB   C2A 3102  16.357  20.974   6.678  0.2434 -0.4104 -0.0470
  130BOLB   C3A 3103  16.646  20.795   6.780  0.2623 -0.0269 -0.0545
  130BOLB   C4A 3104  17.005  20.575   6.606  0.0446  0.3042 -0.0871
  130BOLB   C1B 3105  15.902  21.440   6.068  0.0035 -0.0425  0.0608
  130BOLB   C2B 3106  16.239  21.356   5.718  0.0084 -0.0621  0.0048
  130BOLB   C3B 3107  16.209  21.557   5.396  0.0642 -0.2192 -0.1549
  130BOLB   C4B 3108  16.507  21.816   5.174  0.3584  0.1129 -0.1095
  130BOLB   NC2 3109  19.131  20.526   6.977 -0.1121 -0.4384  0.2240
  130BOLB   PO2 3110  18.986  20.081   7.079 -0.0035  0.1676 -0.1883
  130BOLB   GL3 3111  18.805  20.143   6.833  0.1455 -0.2034 -0.1879
  130BOLB   GL4 3112  18.688  19.755   6.681  0.1766  0.0069  0.2981
  130BOLB   C1C 3113  18.465  20.442   6.806 -0.2789 -0.0341  0.0356
  130BOLB   C2C 3114  18.112  20.534   6.545 -0.0536 -0.0865  0.1919
  130BOLB   C3C 3115  17.762  20.377   6.409  0.0425  0.0536  0.1519
  130BOLB   C4C 3116  17.319  20.410   6.460  0.2675  0.1325  0.0785
  130BOLB   C1D 3117  18.249  19.966   6.723 -0.1094  0.1204  0.1261
  130BOLB   C2D 3118  17.733  19.985   6.752  0.1410  0.4132  0.1427
  130BOLB   C3D 3119  17.292  19.942   6.607  0.0466  0.3056  0.0661
  130BOLB   C4D 3120  16.845  20.060   6.627 -0.1981 -0.1425  0.3082
  131BOLB   NC1 3121  11.047  14.662   7.820 -0.3793 -0.2638 -0.3768
  131BOLB   PO1 3122  11.217  14.786   7.427  0.2071  0.2361 -0.1986
  131BOLB   GL1 3123  11.491  14.740   7.183 -0.0944  0.0936  0.1040
  131BOLB   GL2 3124  11.840  14.816   7.188 -0.0301 -0.2576  0.1352
  131BOLB   C1A 3125  11.678  14.383   6.961  0.1576  0.0466 -0.0013
  131BOLB   C2A 3126  11.747  13.921   6.800  0.2102 -0.0099 -0.0747
  131BOLB   C3A 3127  11.569  13.529   6.747 -0.0848 -0.3063  0.1496
  131BOLB   C4A 3128  11.495  13.140   6.657 -0.0292 -0.1156  0.2653
  131BOLB   C1B 3129  12.184  14.589   6.924  0.0026 -0.1387 -0.0088
  131BOLB   C2B 3130  12.522  14.369   6.883  0.0845 -0.2096 -0.3119
  131BOLB   C3B 3131  12.922  14.217   6.971  0.5842  0.2106 -0.0223
  131BOLB   C4B 3132  13.128  14.332   6.682  0.1327 -0.0422 -0.0461
  131BOLB   NC2 3133  12.775  10.574   6.586 -0.3890  0.2654 -0.0816
  131BOLB   PO2 3134  12.666  11.070   6.613 -0.0713 -0.2216  0.2920
  131BOLB   GL3 3135  12.267  11.250   6.682  0.0229  0.1713  0.1616
  131BOLB   GL4 3136  12.257  11.386   7.028  0.2281 -0.2407 -0.1197
  131BOLB   C1C 3137  11.872  11.463   6.762  0.1609  0.1789 -0.1149
  131BOLB   C2C 3138  11.794  11.930   6.614 -0.0024 -0.1532  0.2708
  131BOLB   C3C 3139  11.718  12.291   6.778  0.0812  0.0966  0.3333
  131BOLB   C4C 3140  11.470  12.661   6.665 -0.0439 -0.0739 -0.0740
  131BOLB   C1D 3141  12.448  11.748   7.223  0.2451  0.1072 -0.0772
  131BOLB   C2D 3142  12.204  11.978   7.526 -0.0793  0.0900 -0.3082
  131BOLB   C3D 3143  12.022  12.401   7.475 -0.1506  0.0545  0.0996
  131BOLB   C4D 3144  11.557  12.417   7.210 -0.0792  0.0523 -0.0323
  132BOLB   NC1 3145   5.176  28.884  11.991  0.1409  0.3563  0.0197
  132BOLB   PO1 3146   5.402  28.951  12.374  0.1548  0.0092 -0.2524
  132BOLB   GL1 3147   5.137  29.312  12.297 -0.0943  0.2477 -0.1696
  132BOLB   GL2 3148   5.152  29.394  11.937  0.0135 -0.0057  0.3501
  132BOLB   C1A 3149   4.904  29.688  12.300 -0.2147 -0.0249  0.1333
  132BOLB   C2A 3150   4.734  30.073  12.416 -0.1519  0.0287  0.0724
  132BOLB   C3A 3151   4.947  30.484  12.478  0.1388 -0.4624  0.1280
  132BOLB   C4A 3152   5.248  30.865  12.717  0.0362  0.2880  0.2630
  132BOLB   C1B 3153   5.401  29.782  12.111 -0.1907  0.0368 -0.0425
  132BOLB   C2B 3154   5.152  30.159  12.148 -0.0879  0.1944 -0.2314
  132BOLB   C3B 3155   5.037  30.535  11.919 -0.0702 -0.0505  0.0567
  132BOLB   C4B 3156   4.977  30.936  11.755 -0.0470  0.0348 -0.0187
  132BOLB   NC2 3157   5.314  32.690  13.293  0.1236 -0.1229  0.0959
  132BOLB   PO2 3158   5.695  32.899  13.530 -0.2871 -0.0624 -0.3000
  132BOLB   GL3 3159   5.933  32.714  13.337 -0.1494 -0.1813 -0.0141
  132BOLB   GL4 3160   5.929  32.696  13.127  0.0689  0.1464 -0.0676
  132BOLB   C1C 3161   5.859  32.301  13.341 -0.1029 -0.0811 -0.3693
  132BOLB   C2C 3162   5.583  32.067  13.164 -0.1677 -0.2558 -0.1711
  132BOLB   C3C 3163   5.455  31.830  12.819 -0.0031 -0.1836 -0.1018
  132BOLB   C4C 3164   5.323  31.304  12.711  0.3091 -0.0564 -0.0347
  132BOLB   C1D 3165   5.798  32.396  12.788 -0.1511 -0.1594  0.1598
  132BOLB   C2D 3166   5.514  32.178  12.450 -0.0328  0.1021 -0.1268
  132BOLB   C3D 3167   5.249  31.772  12.354 -0.0085 -0.1357  0.0659
  132BOLB   C4D 3168   5.261  31.423  12.073  0.1734  0.1068 -0.1765
  133BOLB   NC1 3169  36.716  30.009   8.080 -0.1305  0.3839  0.1390
  133BOLB   PO1 3170  36.850  29.782   8.326 -0.0553  0.1842  0.0390
  133BOLB   GL1 3171  37.061  29.444   8.450 -0.0241 -0.1140 -0.0888
  133BOLB   GL2 3172  37.101  29.132   8.190 -0.0101  0.0551 -0.1044
  133BOLB   C1A 3173  36.997  28.927   8.623 -0.0186 -0.0943 -0.4854
  133BOLB   C2A 3174  37.334  28.645   8.700 -0.1024 -0.3865  0.2602
  133BOLB   C3A 3175  37.564  28.372   8.868  0.1010  0.2212 -0.1055
  133BOLB   C4A 3176  37.797  28.251   9.258 -0.1381  0.1724  0.0267
  133BOLB   C1B 3177  37.576  29.006   8.328 -0.0237  0.0742 -0.1058
  133BOLB   C2B 3178  37.795  28.675   8.496 -0.2742 -0.3567 -0.3960
  133BOLB   C3B 3179  38.193  28.483   8.652  0.3130  0.1710  0.0143
  133BOLB   C4B 3180  38.502  28.151   8.923 -0.2581  0.0959 -0.0555
  133BOLB   NC2 3181  39.985  27.065   9.637  0.1638  0.0923  0.1947
  133BOLB   PO2 3182  39.691  27.249   9.840  0.2487 -0.0235  0.1856
  133BOLB   GL3 3183  39.619  27.686   9.782 -0.2753 -0.0694 -0.1039
  133BOLB   GL4 3184  39.308  27.689   9.942 -0.0074  0.0643 -0.4074
  133BOLB   C1C 3185  39.402  28.072   9.655 -0.2352 -0.0812 -0.2545
  133BOLB   C2C 3186  38.947  27.995   9.639  0.2154  0.0330 -0.0658
  133BOLB   C3C 3187  38.621  28.205   9.462  0.1199 -0.1432 -0.1831
  133BOLB   C4C 3188  38.208  28.158   9.356 -0.0085  0.0730 -0.0581
  133BOLB   C1D 3189  39.124  27.966  10.231 -0.0034 -0.0761 -0.2202
  133BOLB   C2D 3190  39.084  28.399  10.286  0.0896  0.5568  0.1229
  133BOLB   C3D 3191  38.922  28.858  10.331  0.0189  0.1133  0.0544
  133BOLB   C4D 3192  38.879  29.320  10.380  0.3427  0.1800  0.0636
  134BOLB   NC1 3193  28.764  17.977  14.279 -0.4348  0.0307 -0.1510
  134BOLB   PO1 3194  29.240  17.903  14.294  0.3387 -0.1837  0.0874
  134BOLB   GL1 3195  29.651  17.918  14.399 -0.0554  0.2998 -0.1453
  134BOLB   GL2 3196  29.586  17.646  14.536  0.1570 -0.0866 -0.0335
  134BOLB   C1A 3197  29.876  18.175  14.153  0.0363 -0.0719  0.1036
  134BOLB   C2A 3198  30.203  18.337  14.155 -0.1093 -0.1806 -0.1153
  134BOLB   C3A 3199  30.693  18.273  14.006  0.2652  0.1921 -0.2973
  134BOLB   C4A 3200  30.877  18.219  13.679 -0.1616 -0.3736  0.0682
  134BOLB   C1B 3201  30.061  17.600  14.463 -0.0594 -0.1277 -0.1325
  134BOLB   C2B 3202  30.408  17.288  14.302  0.2976 -0.0744  0.0627
  134BOLB   C3B 3203  30.810  17.091  14.176 -0.0087  0.1262  0.1737
  134BOLB   C4B 3204  31.083  16.852  14.238  0.2834 -0.2153 -0.0791
  134BOLB   NC2 3205  29.494  16.307  12.274 -0.0149  0.0751 -0.3993
  134BOLB   PO2 3206  29.793  16.599  12.177 -0.3102 -0.2074 -0.0446
  134BOLB   GL3 3207  30.121  16.854  12.407 -0.0798 -0.1634 -0.0347
  134BOLB   GL4 3208  29.899  16.829  12.680  0.0579  0.0055  0.1210
  134BOLB   C1C 3209  30.336  17.189  12.545 -0.0720 -0.0536 -0.0457
  134BOLB   C2C 3210  30.647  17.238  12.857  0.1742  0.0067 -0.0570
  134BOLB   C3C 3211  30.749  17.522  13.176 -0.2251 -0.0679  0.1263
  134BOLB   C4C 3212  30.964  17.945  13.376 -0.3467 -0.3406  0.1695
  134BOLB   C1D 3213  30.242  16.789  12.922  0.0284  0.1038 -0.1270
  134BOLB   C2D 3214  30.618  16.513  12.901 -0.1050 -0.2772  0.0758
  134BOLB   C3D 3215  30.870  16.329  12.609  0.1898 -0.0146 -0.0857
  134BOLB   C4D 3216  31.200  16.252  12.388 -0.4455 -0.3004  0.0660
  135BOLB   NC1 3217   4.863  22.074   2.431 -0.1872  0.1735  0.4245
  135BOLB   PO1 3218   5.308  21.957   2.422 -0.0418  0.1725 -0.2599
  135BOLB   GL1 3219   5.471  21.679   2.053  0.1719 -0.0676  0.0399
  135BOLB   GL2 3220   5.799  21.691   2.030  0.3352 -0.1157 -0.0863
  135BOLB   C1A 3221   5.476  21.630   1.562  0.1050 -0.3526 -0.2206
  135BOLB   C2A 3222   5.294  21.690   1.169 -0.1162  0.0578  0.2549
  135BOLB   C3A 3223   5.232  21.571   0.734  0.1491 -0.1540 -0.2123
  135BOLB   C4A 3224   5.190  21.571   0.250  0.0283  0.2145  0.1048
  135BOLB   C1B 3225   5.672  22.039   1.755  0.0200 -0.0020 -0.0400
  135BOLB   C2B 3226   5.589  22.122   1.293 -0.2468 -0.2331  0.0342
  135BOLB   C3B 3227   5.437  22.078   0.822  0.3205 -0.0179  0.4224
  135BOLB   C4B 3228   5.480  22.084   0.266  0.1742 -0.4429 -0.1176
  135BOLB   NC2 3229   5.571  21.290  -2.449  0.0518 -0.0272  0.1422
  135BOLB   PO2 3230   5.395  21.149  -2.008  0.0588 -0.2214 -0.0228
  135BOLB   GL3 3231   5.366  21.396  -1.663 -0.0862 -0.3354  0.0133
  135BOLB   GL4 3232   5.473  21.185  -1.467 -0.2984  0.0221 -0.1469
  135BOLB   C1C 3233   5.383  21.672  -1.292  0.0495  0.0507 -0.3567
  135BOLB   C2C 3234   5.094  21.819  -0.925 -0.2366  0.2949  0.1915
  135BOLB   C3C 3235   4.974  21.558  -0.597  0.0014 -0.0480 -0.2133
  135BOLB   C4C 3236   4.904  21.479  -0.076 -0.0100 -0.0570  0.1855
  135BOLB   C1D 3237   5.303  20.823  -1.234  0.1702  0.1846  0.0203
  135BOLB   C2D 3238   5.467  20.798  -0.806  0.3045 -0.2003  0.0411
  135BOLB   C3D 3239   5.791  20.863  -0.488 -0.2870  0.1238 -0.3953
  135BOLB   C4D 3240   6.163  20.885  -0.472  0.0345  0.3079  0.1018
  136BOLB   NC1 3241  34.867   9.571   7.663 -0.0153  0.1835 -0.0365
  136BOLB   PO1 3242  35.091   9.231   7.827  0.0419  0.1864 -0.0324
  136BOLB   GL1 3243  35.336   9.653   7.860  0.1853 -0.0385  0.3264
  136BOLB   GL2 3244  35.202   9.926   8.135 -0.1851  0.0090  0.1081
  136BOLB   C1A 3245  35.724   9.768   8.066 -0.1734 -0.2519 -0.1966
  136BOLB   C2A 3246  36.015  10.007   8.168  0.0055 -0.1790  0.0445
  136BOLB   C3A 3247  36.340  10.022   7.877  0.2075 -0.0456  0.0281
  136BOLB   C4A 3248  36.519  10.135   7.541 -0.1964 -0.0907  0.0869
  136BOLB   C1B 3249  35.170  10.229   7.911  0.0317  0.1929 -0.1080
  136BOLB   C2B 3250  35.305  10.641   7.876  0.3487  0.0305  0.1479
  136BOLB   C3B 3251  35.562  10.713   7.576 -0.0671 -0.2721 -0.4464
  136BOLB   C4B 3252  35.882  10.767   7.263 -0.1241 -0.1180 -0.2371
  136BOLB   NC2 3253  35.464   8.988   6.186  0.2038  0.4413  0.0078
  136BOLB   PO2 3254  35.657   8.660   6.135 -0.0854  0.1575  0.2404
  136BOLB   GL3 3255  36.042   8.983   6.150  0.0406 -0.2590 -0.4173
  136BOLB   GL4 3256  36.194   9.218   5.845 -0.0522  0.0796  0.0193
  136BOLB   C1C 3257  36.321   9.273   6.379  0.1309 -0.2908 -0.2419
  136BOLB   C2C 3258  36.421   9.655   6.509 -0.2911  0.1002 -0.0730
  136BOLB   C3C 3259  36.560   9.942   6.728 -0.0283 -0.0911  0.1549
  136BOLB   C4C 3260  36.615  10.111   7.142  0.0860  0.1030  0.0066
  136BOLB   C1D 3261  36.354   9.644   6.006  0.0058 -0.0378 -0.0589
  136BOLB   C2D 3262  36.565  10.015   6.201  0.1052 -0.4602 -0.3802
  136BOLB   C3D 3263  36.798  10.298   6.440  0.0344  0.2185 -0.1759
  136BOLB   C4D 3264  36.919  10.276   6.783 -0.0078 -0.4838 -0.0945
  137BOLB   NC1 3265   7.853  27.539   5.586 -0.1481  0.0442  0.2042
  137BOLB   PO1 3266   8.017  27.664   5.939  0.0450 -0.3073 -0.0895
  137BOLB   GL1 3267   8.261  28.016   6.050  0.2217  0.1954 -0.1120
  137BOLB   GL2 3268   8.617  27.916   5.984 -0.0321 -0.1189  0.1251
  137BOLB   C1A 3269   8.342  28.451   6.095 -0.0253  0.3440  0.0392
  137BOLB   C2A 3270   8.234  28.864   5.862  0.1486 -0.0402  0.1168
  137BOLB   C3A 3271   8.057  28.968   5.392 -0.0015  0.1064  0.1138
  137BOLB   C4A 3272   7.853  28.950   5.046  0.2351  0.2432 -0.0228
  137BOLB   C1B 3273   9.009  28.095   5.944  0.2340  0.1531 -0.1429
  137BOLB   C2B 3274   9.161  28.495   5.747  0.3920 -0.0047 -0.0609
  137BOLB   C3B 3275   9.129  28.782   5.422 -0.0977  0.1814  0.1079
  137BOLB   C4B 3276   9.378  28.895   5.076  0.1337  0.1101 -0.1167
  137BOLB   NC2 3277   8.107  31.428   3.490 -0.3277  0.0534  0.0566
  137BOLB   PO2 3278   7.865  30.962   3.364  0.0127 -0.1182 -0.0844
  137BOLB   GL3 3279   7.629  30.611   3.509 -0.0050 -0.1435 -0.1250
  137BOLB   GL4 3280   7.526  30.667   3.796  0.0134  0.3396 -0.2384
  137BOLB   C1C 3281   7.644  30.098   3.848 -0.0424  0.2851 -0.1615
  137BOLB   C2C 3282   7.519  30.057   4.265  0.2013  0.4164 -0.0182
  137BOLB   C3C 3283   7.649  29.733   4.506 -0.0799  0.1484 -0.1331
  137BOLB   C4C 3284   7.711  29.307   4.825 -0.2512  0.2355 -0.3639
  137BOLB   C1D 3285   7.849  30.456   4.125 -0.0108 -0.2002 -0.0609
  137BOLB   C2D 3286   7.971  30.163   4.569  0.2195 -0.0578  0.0677
  137BOLB   C3D 3287   8.079  29.624   4.812  0.0807  0.0159 -0.3023
  137BOLB   C4D 3288   8.224  29.248   4.815 -0.2235 -0.0336  0.4800
  138BOLB   NC1 3289  11.963  19.172  14.733 -0.4190 -0.2276  0.4118
  138BOLB   PO1 3290  12.387  19.396  14.889  0.1311 -0.0414 -0.1380
  138BOLB   GL1 3291  12.826  19.228  15.032 -0.0732  0.1607 -0.0744
  138BOLB   GL2 3292  12.892  19.242  15.312  0.2214 -0.2742 -0.0339
  138BOLB   C1A 3293  13.249  19.018  15.024 -0.2742 -0.1648 -0.2751
  138BOLB   C2A 3294  13.581  19.154  15.316 -0.2933 -0.1350 -0.0712
  138BOLB   C3A 3295  13.844  18.973  15.623  0.2482 -0.1108 -0.2909
  138BOLB   C4A 3296  14.147  18.721  15.762 -0.1144  0.0047  0.6231
  138BOLB   C1B 3297  12.997  18.888  15.471 -0.0134 -0.0146  0.0137
  138BOLB   C2B 3298  13.263  18.637  15.774  0.3390 -0.0070 -0.2848
  138BOLB   C3B 3299  13.441  18.840  16.209 -0.0955 -0.1863  0.0955
  138BOLB   C4B 3300  13.843  18.623  16.118  0.0169 -0.4219 -0.0586
  138BOLB   NC2 3301  15.849  16.663  17.177  0.2312 -0.0161 -0.0488
  138BOLB   PO2 3302  15.534  16.606  16.820 -0.0423 -0.4303  0.0948
  138BOLB   GL3 3303  15.427  17.013  16.601  0.0336 -0.0775  0.0162
  138BOLB   GL4 3304  15.625  17.359  16.434 -0.0886  0.2667 -0.1071
  138BOLB   C1C 3305  15.013  17.288  16.517  0.0835  0.1608  0.0052
  138BOLB   C2C 3306  14.784  17.642  16.365  0.1921  0.0464  0.2145
  138BOLB   C3C 3307  14.546  18.056  16.227 -0.0443  0.1604  0.1367
  138BOLB   C4C 3308  14.427  18.488  15.965 -0.0982 -0.4382  0.1420
  138BOLB   C1D 3309  15.313  17.679  16.333 -0.2532 -0.2679  0.0322
  138BOLB   C2D 3310  15.111  18.042  16.153  0.0885 -0.0509 -0.3313
  138BOLB   C3D 3311  14.895  18.349  15.915  0.3786 -0.0466 -0.3371
  138BOLB   C4D 3312  14.805  18.606  15.587 -0.2113  0.0399  0.1494
  139BOLB   NC1 3313  13.736  24.217   6.645 -0.0272  0.1182 -0.3766
  139BOLB   PO1 3314  13.727  23.811   6.418 -0.3536 -0.2218  0.0374
  139BOLB   GL1 3315  14.092  24.110   6.311  0.0480 -0.1231  0.2041
  139BOLB   GL2 3316  14.300  23.955   6.117  0.1594 -0.0023 -0.1052
  139BOLB   C1A 3317  14.293  24.533   6.224  0.0416  0.0500  0.1136
  139BOLB   C2A 3318  14.734  24.726   6.106 -0.1541 -0.0491  0.2492
  139BOLB   C3A 3319  14.983  24.908   5.807  0.0891 -0.2195  0.2191
  139BOLB   C4A 3320  15.360  25.220   5.860  0.1047  0.0407  0.1910
  139BOLB   C1B 3321  14.725  24.005   6.097 -0.1021 -0.2605 -0.0051
  139BOLB   C2B 3322  15.069  23.907   6.340  0.0019  0.3110 -0.3066
  139BOLB   C3B 3323  15.305  23.491   6.193  0.0230  0.3136 -0.0395
  139BOLB   C4B 3324  15.418  23.112   6.223 -0.2108 -0.0010  0.0687
  139BOLB   NC2 3325  16.631  26.846   5.222 -0.1444 -0.0865  0.0270
  139BOLB   PO2 3326  16.987  26.605   5.389  0.0701  0.1400  0.0886
  139BOLB   GL3 3327  16.765  26.358   5.516  0.2043  0.0392 -0.2171
  139BOLB   GL4 3328  16.631  26.164   5.407 -0.3126  0.0089 -0.3748
  139BOLB   C1C 3329  16.682  25.897   5.791  0.2430 -0.0104  0.1301
  139BOLB   C2C 3330  16.458  25.699   6.126  0.1684  0.0757 -0.1131
  139BOLB   C3C 3331  16.087  25.503   6.211 -0.3998 -0.0948 -0.2403
  139BOLB   C4C 3332  15.723  25.368   6.030 -0.1359  0.1982  0.1426
  139BOLB   C1D 3333  16.217  26.152   5.757  0.0250  0.2025 -0.2432
  139BOLB   C2D 3334  15.837  26.396   5.649  0.2118  0.0871 -0.1365
  139BOLB   C3D 3335  15.383  26.401   5.657  0.0981 -0.4215 -0.0565
  139BOLB   C4D 3336  15.129  26.084   5.846  0.0508  0.1284 -0.0524
  140BOLB   NC1 3337   1.987  22.093  22.183  0.1465 -0.3223  0.1374
  140BOLB   PO1 3338   1.577  22.121  21.989  0.1075  0.0708 -0.1998
  140BOLB   GL1 3339   1.800  22.082  21.527 -0.1079  0.2207  0.2482
  140BOLB   GL2 3340   1.631  21.870  21.303 -0.0108 -0.0607 -0.0057
  140BOLB   C1A 3341   2.136  22.104  21.263  0.0420  0.1033 -0.1693
  140BOLB   C2A 3342   2.375  22.005  20.895 -0.0304  0.3471  0.1272
  140BOLB   C3A 3343   2.433  21.781  20.538  0.3586  0.0920  0.2280
  140BOLB   C4A 3344   2.537  21.437  20.279 -0.2983 -0.1644  0.1282
  140BOLB   C1B 3345   1.785  21.890  20.873 -0.0179 -0.0165  0.2102
  140BOLB   C2B 3346   1.876  21.941  20.356 -0.0650  0.2071 -0.1636
  140BOLB   C3B 3347   2.298  21.916  20.067 -0.0126 -0.3255  0.0687
  140BOLB   C4B 3348   2.698  21.825  20.025  0.0368  0.0910 -0.1752
  140BOLB   NC2 3349   3.541  21.541  17.868 -0.1566 -0.0818  0.1681
  140BOLB   PO2 3350   3.770  21.409  18.261 -0.2818 -0.0376 -0.3291
  140BOLB   GL3 3351   3.713  21.243  18.765  0.1403  0.2424  0.0031
  140BOLB   GL4 3352   3.939  21.183  18.986  0.1619  0.1106 -0.2593
  140BOLB   C1C 3353   3.425  21.309  19.145 -0.3054 -0.1427  0.0307
  140BOLB   C2C 3354   3.468  21.418  19.592  0.3352  0.2837 -0.0121
  140BOLB   C3C 3355   3.232  21.295  19.963 -0.2277 -0.3187 -0.0311
  140BOLB   C4C 3356   2.805  21.167  20.015 -0.2567 -0.0176  0.2451
  140BOLB   C1D 3357   3.864  21.252  19.389 -0.1510  0.1328 -0.1295
  140BOLB   C2D 3358   3.904  21.448  19.861 -0.2579  0.3113 -0.0374
  140BOLB   C3D 3359   3.591  21.586  20.107  0.2297 -0.0984 -0.5362
  140BOLB   C4D 3360   3.186  21.873  19.994 -0.3671  0.3757 -0.0865
  141BOLB   NC1 3361   5.572  15.366  15.264 -0.2019  0.1180 -0.0113
  141BOLB   PO1 3362   5.596  15.156  15.522  0.2716  0.2373 -0.1881
  141BOLB   GL1 3363   5.362  14.886  15.809  0.0681 -0.1120  0.2197
  141BOLB   GL2 3364   4.979  15.007  15.865 -0.2768  0.3432  0.3617
  141BOLB   C1A 3365   5.257  14.424  15.912  0.0759 -0.1169  0.0265
  141BOLB   C2A 3366   5.286  14.241  16.278  0.3623  0.0027  0.1517
  141BOLB   C3A 3367   5.051  13.975  16.522 -0.1045 -0.2416 -0.0629
  141BOLB   C4A 3368   5.107  13.881  16.941 -0.3746 -0.0692 -0.2271
  141BOLB   C1B 3369   5.190  14.793  16.275  0.1375 -0.1283  0.0033
  141BOLB   C2B 3370   5.037  14.575  16.526 -0.0293 -0.0793  0.0366
  141BOLB   C3B 3371   4.986  14.367  16.918 -0.1255 -0.1724 -0.3730
  141BOLB   C4B 3372   4.839  14.170  17.235  0.1746  0.1832 -0.0136
  141BOLB   NC2 3373   4.540  13.236  19.047 -0.0112  0.0615 -0.1695
  141BOLB   PO2 3374   4.710  13.643  19.297 -0.1513  0.2970  0.1936
  141BOLB   GL3 3375   4.821  13.796  18.977 -0.0655 -0.2337 -0.2780
  141BOLB   GL4 3376   5.127  13.779  18.803 -0.1163  0.2189  0.1274
  141BOLB   C1C 3377   4.687  13.817  18.502  0.4729 -0.0622 -0.0590
  141BOLB   C2C 3378   4.715  13.997  18.070 -0.1482  0.0312  0.1202
  141BOLB   C3C 3379   4.913  13.956  17.684  0.1312 -0.2676 -0.3321
  141BOLB   C4C 3380   5.272  13.944  17.370 -0.1550  0.0632  0.1529
  141BOLB   C1D 3381   5.125  13.866  18.387 -0.1825  0.3202  0.3505
  141BOLB   C2D 3382   5.324  13.944  17.993 -0.0360  0.2512 -0.0459
  141BOLB   C3D 3383   5.682  14.155  17.607 -0.0432 -0.0131  0.0877
  141BOLB   C4D 3384   5.771  14.442  17.238 -0.0895 -0.1079  0.1513
  142BOLB   NC1 3385  32.072  13.090  15.954 -0.1814  0.1885  0.2259
  142BOLB   PO1 3386  31.969  13.052  15.520 -0.2384 -0.1438  0.1738
  142BOLB   GL1 3387  32.220  13.284  15.475 -0.2527  0.1234 -0.5040
  142BOLB   GL2 3388  32.164  13.480  15.174 -0.0463  0.0421  0.0339
  142BOLB   C1A 3389  32.544  13.423  15.607 -0.0033  0.2237  0.2954
  142BOLB   C2A 3390  32.764  13.851  15.730 -0.1565  0.1187  0.1324
  142BOLB   C3A 3391  32.814  14.208  15.460 -0.1335 -0.1808 -0.0882
  142BOLB   C4A 3392  32.979  14.531  15.600 -0.2692  0.1992  0.1051
  142BOLB   C1B 3393  32.647  13.634  15.188 -0.0268 -0.3163  0.1765
  142BOLB   C2B 3394  32.964  13.685  14.870 -0.0852 -0.0088 -0.0907
  142BOLB   C3B 3395  33.322  13.933  14.795  0.0178 -0.1179 -0.0541
  142BOLB   C4B 3396  33.326  14.402  14.724 -0.2517  0.2645 -0.0425
  142BOLB   NC2 3397  30.847  15.607  16.653  0.3344 -0.1777 -0.2011
  142BOLB   PO2 3398  31.213  15.302  16.438  0.0676  0.2243  0.1796
  142BOLB   GL3 3399  31.578  15.078  16.281  0.0907  0.0246 -0.0860
  142BOLB   GL4 3400  31.730  15.295  16.306  0.3154 -0.0739  0.1229
  142BOLB   C1C 3401  32.111  15.023  16.102 -0.0535 -0.3491 -0.2817
  142BOLB   C2C 3402  32.489  15.161  16.130 -0.1694  0.1015  0.2444
  142BOLB   C3C 3403  32.942  15.219  15.916  0.2562 -0.0396  0.2433
  142BOLB   C4C 3404  33.107  14.903  15.721 -0.1839  0.0550 -0.0272
  142BOLB   C1D 3405  31.798  15.680  16.125 -0.1681  0.1028 -0.0613
  142BOLB   C2D 3406  32.126  15.966  15.971  0.4511 -0.0609 -0.3483
  142BOLB   C3D 3407  32.530  15.906  15.866  0.1418 -0.0513  0.1214
  142BOLB   C4D 3408  32.899  15.662  15.702  0.1563  0.0279  0.1087
  143BOLB   NC1 3409   1.926  19.419  16.243 -0.1972  0.2475  0.5039
  143BOLB   PO1 3410   1.830  19.134  16.614  0.6112 -0.0116  0.3299
  143BOLB   GL1 3411   1.668  18.712  16.484  0.0593  0.1428  0.1025
  143BOLB   GL2 3412   1.374  18.537  16.708 -0.3191  0.0730 -0.1844
  143BOLB   C1A 3413   1.338  18.548  16.233 -0.0037  0.2269 -0.0133
  143BOLB   C2A 3414   1.006  18.347  16.225 -0.1617  0.0959 -0.0861
  143BOLB   C3A 3415   0.826  17.978  16.051  0.0573 -0.3190  0.0663
  143BOLB   C4A 3416   0.479  17.839  15.775 -0.0867 -0.4236  0.1784
  143BOLB   C1B 3417   0.896  18.415  16.773 -0.1048 -0.2651  0.1834
  143BOLB   C2B 3418   0.456  18.451  17.098 -0.1846  0.1293 -0.0808
  143BOLB   C3B 3419   0.163  18.155  17.209  0.1351 -0.1629 -0.1772
  143BOLB   C4B 3420  -0.208  17.852  17.371  0.1939  0.3716 -0.3934
  143BOLB   NC2 3421   1.363  19.470  14.202 -0.1910  0.1791  0.0919
  143BOLB   PO2 3422   1.067  19.618  14.554 -0.0823  0.0331  0.0613
  143BOLB   GL3 3423   0.746  19.263  14.602 -0.1124 -0.1693 -0.0700
  143BOLB   GL4 3424   0.510  19.151  14.377 -0.3272  0.1888 -0.0634
  143BOLB   C1C 3425   0.360  19.181  14.932 -0.2304  0.1931 -0.1764
  143BOLB   C2C 3426   0.306  19.009  15.264  0.0854  0.0366 -0.1365
  143BOLB   C3C 3427   0.379  18.578  15.432  0.0949 -0.0233  0.1189
  143BOLB   C4C 3428   0.307  18.079  15.608  0.2190 -0.3916  0.1701
  143BOLB   C1D 3429   0.186  18.835  14.443 -0.0571 -0.1252  0.0232
  143BOLB   C2D 3430  -0.236  18.711  14.527 -0.0409 -0.0161  0.1698
  143BOLB   C3D 3431  -0.546  18.497  14.740  0.3916  0.0616 -0.0315
  143BOLB   C4D 3432  -1.011  18.506  14.868  0.0767 -0.0417  0.1229
  144BOLB   NC1 3433  34.144  27.647  11.994  0.1865  0.1021  0.0208
  144BOLB   PO1 3434  34.481  27.637  11.650 -0.0104  0.0719  0.2231
  144BOLB   GL1 3435  34.732  27.250  11.734 -0.0268 -0.0052 -0.3080
  144BOLB   GL2 3436  34.906  27.034  11.494 -0.2463  0.2289  0.0191
  144BOLB   C1A 3437  35.093  26.927  11.927  0.0975  0.0848 -0.0521
  144BOLB   C2A 3438  35.251  26.740  12.362 -0.2844 -0.0630  0.4405
  144BOLB   C3A 3439  35.406  26.580  12.685 -0.4630  0.3111  0.2374
  144BOLB   C4A 3440  35.873  26.477  12.953  0.0144 -0.0543  0.0338
  144BOLB   C1B 3441  34.977  26.564  11.584  0.0771  0.1709  0.2069
  144BOLB   C2B 3442  35.278  26.387  11.668 -0.0343  0.1481 -0.1171
  144BOLB   C3B 3443  35.348  25.980  11.559 -0.1677 -0.0533  0.5405
  144BOLB   C4B 3444  35.550  25.875  11.061 -0.4220 -0.0085  0.0904
  144BOLB   NC2 3445  34.554  26.739  14.838 -0.0234  0.2286  0.2482
  144BOLB   PO2 3446  35.047  26.897  14.891  0.1092 -0.6188  0.1568
  144BOLB   GL3 3447  35.334  26.622  14.890 -0.0837  0.1216 -0.1714
  144BOLB   GL4 3448  35.318  26.480  14.561 -0.1657 -0.0537  0.0049
  144BOLB   C1C 3449  35.776  26.738  14.593  0.2578 -0.2573  0.1845
  144BOLB   C2C 3450  36.108  26.636  14.148 -0.1805 -0.3892 -0.0664
  144BOLB   C3C 3451  36.198  26.563  13.767 -0.0953 -0.1306  0.2055
  144BOLB   C4C 3452  36.105  26.356  13.320 -0.1566  0.0619 -0.0699
  144BOLB   C1D 3453  35.236  26.274  14.289 -0.0954  0.0459 -0.0656
  144BOLB   C2D 3454  35.032  25.828  14.356  0.1201  0.2375 -0.0014
  144BOLB   C3D 3455  35.149  25.431  14.285 -0.1419  0.0762  0.1350
  144BOLB   C4D 3456  35.530  25.143  14.080 -0.1058 -0.0322 -0.0640
  145BOLB   NC1 3457  34.765  27.557  10.464 -0.0360 -0.0766 -0.1578
  145BOLB   PO1 3458  34.642  27.297  10.790 -0.0963  0.0957  0.0583
  145BOLB   GL1 3459  35.017  27.121  10.580  0.2017  0.0559 -0.0986
  145BOLB   GL2 3460  35.244  26.811  10.681 -0.2214  0.2318  0.0746
  145BOLB   C1A 3461  35.524  27.127  10.465 -0.5495 -0.0373  0.1816
  145BOLB   C2A 3462  35.981  27.049  10.525 -0.0475 -0.0636 -0.2420
  145BOLB   C3A 3463  36.337  27.300  10.462  0.0456  0.3811  0.3764
  145BOLB   C4A 3464  36.482  27.596  10.650 -0.1997 -0.0426 -0.2177
  145BOLB   C1B 3465  35.711  26.679  10.484  0.2133 -0.2052  0.2881
  145BOLB   C2B 3466  36.086  26.561  10.543  0.1392 -0.0119 -0.0222
  145BOLB   C3B 3467  36.405  26.245  10.608 -0.1720 -0.0959 -0.0530
  145BOLB   C4B 3468  36.375  25.811  10.533 -0.4803  0.1429  0.0397
  145BOLB   NC2 3469  34.883  27.861  11.681  0.2051  0.1522 -0.0357
  145BOLB   PO2 3470  35.122  27.915  11.400  0.1375  0.1009  0.3403
  145BOLB   GL3 3471  35.343  27.601  11.504 -0.0256  0.3676  0.1673
  145BOLB   GL4 3472  35.238  27.371  11.709  0.2539 -0.1266 -0.2631
  145BOLB   C1C 3473  35.710  27.656  11.621  0.0875 -0.5809 -0.1175
  145BOLB   C2C 3474  36.031  27.511  11.557 -0.0371 -0.0290  0.0263
  145BOLB   C3C 3475  36.314  27.510  11.386 -0.1477  0.0120  0.0865
  145BOLB   C4C 3476  36.539  27.728  11.094 -0.1943  0.1765 -0.0219
  145BOLB   C1D 3477  35.646  27.195  11.548  0.3737 -0.2157  0.3825
  145BOLB   C2D 3478  35.972  27.010  11.495  0.1563  0.3047 -0.2287
  145BOLB   C3D 3479  36.212  26.721  11.188 -0.0344  0.4474  0.2449
  145BOLB   C4D 3480  36.472  26.548  10.997 -0.0151  0.1480 -0.0220
  146BOLB   NC1 3481   4.581  23.240  18.409 -0.0857 -0.2507  0.1760
  146BOLB   PO1 3482   4.342  22.958  18.336 -0.1245  0.2776 -0.0464
  146BOLB   GL1 3483   4.114  23.068  18.690 -0.1586  0.2358 -0.3934
  146BOLB   GL2 3484   3.973  23.228  18.774  0.1098 -0.2011 -0.3069
  146BOLB   C1A 3485   4.206  23.024  19.121  0.3464 -0.0000  0.0142
  146BOLB   C2A 3486   4.022  22.822  19.488  0.1204 -0.3566  0.1996
  146BOLB   C3A 3487   3.953  22.863  19.882 -0.2274  0.3203  0.0175
  146BOLB   C4A 3488   4.069  22.796  20.347 -0.1747 -0.0192 -0.0817
  146BOLB   C1B 3489   3.644  23.130  19.186 -0.1471  0.2266 -0.2941
  146BOLB   C2B 3490   3.465  22.912  19.655 -0.1974 -0.0190  0.2000
  146BOLB   C3B 3491   3.522  22.910  20.092 -0.0929  0.2197 -0.0442
  146BOLB   C4B 3492   3.503  22.775  20.445 -0.2293  0.0773  0.2436
  146BOLB   NC2 3493   2.690  23.301  22.438  0.2287 -0.1322 -0.0918
  146BOLB   PO2 3494   2.690  23.081  22.043 -0.0590 -0.0028  0.1911
  146BOLB   GL3 3495   2.773  22.969  21.672 -0.2315 -0.1313 -0.0134
  146BOLB   GL4 3496   2.624  22.715  21.590 -0.6058  0.0223 -0.0453
  146BOLB   C1C 3497   3.084  22.841  21.400  0.0070  0.1264  0.0685
  146BOLB   C2C 3498   3.509  22.814  21.330  0.1311 -0.3657  0.0574
  146BOLB   C3C 3499   3.944  22.780  21.141  0.2794  0.1471  0.0045
  146BOLB   C4C 3500   3.984  22.785  20.749  0.1158 -0.2562  0.0128
  146BOLB   C1D 3501   2.779  22.295  21.624 -0.3242  0.2419 -0.3227
  146BOLB   C2D 3502   2.971  22.256  21.244  0.2444 -0.0137 -0.0191
  146BOLB   C3D 3503   2.994  22.137  20.905  0.1724  0.2945  0.1851
  146BOLB   C4D 3504   2.884  22.053  20.447 -0.0712  0.3149  0.1059
  147BOLB   NC1 3505   1.828  27.558  11.023  0.0164 -0.3931 -0.2507
  147BOLB   PO1 3506   2.112  27.688  11.435 -0.0483 -0.0923  0.0577
  147BOLB   GL1 3507   1.650  27.827  11.689 -0.1180 -0.4383  0.1693
  147BOLB   GL2 3508   1.568  27.795  11.411 -0.2099 -0.3501 -0.0808
  147BOLB   C1A 3509   1.250  27.985  11.912 -0.3319  0.1814  0.0111
  147BOLB   C2A 3510   1.181  28.396  12.195 -0.2538 -0.2389 -0.2628
  147BOLB   C3A 3511   1.108  28.825  12.206  0.0389  0.0135  0.0681
  147BOLB   C4A 3512   1.085  29.110  12.309 -0.1852  0.1305  0.0666
  147BOLB   C1B 3513   1.586  28.362  11.313 -0.1364  0.1460  0.0314
  147BOLB   C2B 3514   1.279  28.635  11.495 -0.0017  0.0410 -0.1118
  147BOLB   C3B 3515   0.977  28.615  11.740 -0.0183  0.0945 -0.0418
  147BOLB   C4B 3516   0.836  28.284  11.695 -0.3420  0.2224  0.0728
  147BOLB   NC2 3517   1.881  31.926  12.360  0.3260 -0.0767  0.1359
  147BOLB   PO2 3518   1.627  31.607  12.439  0.1045 -0.3595 -0.3192
  147BOLB   GL3 3519   1.615  31.132  12.322  0.0494 -0.0186 -0.0427
  147BOLB   GL4 3520   1.403  31.196  11.971 -0.1148  0.2306 -0.2111
  147BOLB   C1C 3521   1.434  30.774  12.379 -0.1064  0.0143 -0.2084
  147BOLB   C2C 3522   1.413  30.413  12.199 -0.2709 -0.1180  0.2176
  147BOLB   C3C 3523   1.430  29.918  12.261 -0.0235  0.0322  0.0733
  147BOLB   C4C 3524   1.114  29.494  12.320  0.0154 -0.2092 -0.3399
  147BOLB   C1D 3525   1.363  30.796  11.862 -0.1243 -0.0625 -0.1319
  147BOLB   C2D 3526   1.548  30.445  11.675 -0.0074 -0.1485 -0.1363
  147BOLB   C3D 3527   1.627  30.126  11.820 -0.0047 -0.0955  0.3739
  147BOLB   C4D 3528   1.829  29.809  11.539  0.3126  0.1117  0.1134
  148BOLB   NC1 3529   2.200  22.229  16.900  0.1256  0.2043 -0.0562
  148BOLB   PO1 3530   1.930  22.558  17.129 -0.0152  0.4093 -0.2744
  148BOLB   GL1 3531   1.881  22.558  17.615 -0.1588 -0.0276 -0.2340
  148BOLB   GL2 3532   1.971  22.174  17.843  0.0877 -0.0855 -0.1051
  148BOLB   C1A 3533   1.661  22.812  17.807 -0.2420 -0.0865 -0.3174
  148BOLB   C2A 3534   1.449  22.628  18.224  0.3436  0.0625  0.1647
  148BOLB   C3A 3535   1.475  22.680  18.682 -0.1509  0.1031  0.1555
  148BOLB   C4A 3536   1.509  22.620  19.061  0.0063 -0.1542  0.0689
  148BOLB   C1B 3537   1.980  21.875  18.169  0.1884  0.1291 -0.1014
  148BOLB   C2B 3538   2.024  21.566  18.469  0.0898 -0.1837  0.2078
  148BOLB   C3B 3539   1.565  21.374  18.729  0.1234 -0.2804 -0.3201
  148BOLB   C4B 3540   1.123  21.502  18.874 -0.0963  0.1835  0.1739
  148BOLB   NC2 3541  -0.183  22.126  20.659  0.0007  0.2319 -0.2499
  148BOLB   PO2 3542  -0.214  22.528  20.791  0.2839  0.1817  0.0467
  148BOLB   GL3 3543   0.019  22.518  20.450  0.1416 -0.0316 -0.1313
  148BOLB   GL4 3544   0.396  22.565  20.467  0.2572  0.0004  0.0021
  148BOLB   C1C 3545   0.131  22.500  20.012  0.1074 -0.1240  0.1958
  148BOLB   C2C 3546   0.347  22.450  19.667 -0.1198 -0.0949  0.0163
  148BOLB   C3C 3547   0.804  22.521  19.493 -0.0937  0.2873  0.1062
  148BOLB   C4C 3548   1.225  22.704  19.435  0.0163 -0.3700 -0.4105
  148BOLB   C1D 3549   0.678  22.417  20.097  0.1146  0.0432 -0.2092
  148BOLB   C2D 3550   1.025  22.359  19.959 -0.1877  0.1631 -0.2216
  148BOLB   C3D 3551   1.464  22.654  19.886 -0.0435 -0.4085  0.0252
  148BOLB   C4D 3552   1.760  22.622  19.496 -0.0386  0.2306 -0.2283
  149BOLB   NC1 3553  30.872  13.973   9.310 -0.3483 -0.3203  0.0820
  149BOLB   PO1 3554  30.870  13.738   9.738 -0.1116 -0.1740  0.4607
  149BOLB   GL1 3555  31.243  14.063   9.611  0.1099  0.2537  0.0783
  149BOLB   GL2 3556  31.418  14.207   9.956  0.1207 -0.2516  0.1807
  149BOLB   C1A 3557  31.584  14.339   9.427 -0.2518 -0.0469  0.0629
  149BOLB   C2A 3558  31.885  14.542   9.626 -0.2992  0.0962  0.0732
  149BOLB   C3A 3559  32.120  14.496   9.999 -0.3617 -0.2282 -0.0267
  149BOLB   C4A 3560  32.449  14.385  10.296 -0.0792  0.0820  0.0668
  149BOLB   C1B 3561  31.626  14.571  10.048  0.2019 -0.1869 -0.2447
  149BOLB   C2B 3562  31.896  14.962  10.003  0.2020  0.0717  0.0583
  149BOLB   C3B 3563  32.350  15.025   9.979  0.0148  0.2286 -0.0181
  149BOLB   C4B 3564  32.573  15.348   9.999  0.1678 -0.1664  0.0938
  149BOLB   NC2 3565  30.637  14.488  11.917 -0.1099  0.5109  0.1454
  149BOLB   PO2 3566  30.931  14.231  12.338 -0.1362 -0.0208  0.2418
  149BOLB   GL3 3567  31.144  14.368  11.991  0.3116 -0.3374  0.0723
  149BOLB   GL4 3568  31.083  14.655  12.098  0.1925  0.2994  0.0942
  149BOLB   C1C 3569  31.577  14.321  11.722 -0.1713 -0.0630 -0.4547
  149BOLB   C2C 3570  31.896  14.281  11.430  0.0424 -0.1044  0.0573
  149BOLB   C3C 3571  32.288  14.226  11.172  0.0619 -0.0555  0.1663
  149BOLB   C4C 3572  32.435  14.182  10.739  0.1707 -0.3536 -0.0949
  149BOLB   C1D 3573  31.531  14.748  12.036  0.1470  0.1219 -0.2472
  149BOLB   C2D 3574  31.907  14.506  12.020 -0.1986  0.0142 -0.1827
  149BOLB   C3D 3575  32.348  14.598  12.202 -0.2997 -0.2468  0.0027
  149BOLB   C4D 3576  32.637  14.517  12.455  0.1351 -0.3594 -0.0613
  150BOLB   NC1 3577  12.684  19.588  14.549  0.1721 -0.1452 -0.3362
  150BOLB   PO1 3578  13.021  19.660  14.359  0.2011  0.1998  0.2927
  150BOLB   GL1 3579  13.210  19.669  14.725 -0.3210  0.1927  0.1237
  150BOLB   GL2 3580  13.413  19.869  14.685 -0.0757  0.1741  0.3158
  150BOLB   C1A 3581  13.553  19.330  14.874 -0.1978 -0.1530  0.1213
  150BOLB   C2A 3582  13.998  19.426  15.145 -0.1917 -0.1031 -0.1110
  150BOLB   C3A 3583  14.420  19.648  15.389  0.0031  0.3523  0.1914
  150BOLB   C4A 3584  14.760  19.843  15.518  0.1375  0.3041  0.0585
  150BOLB   C1B 3585  13.814  19.803  14.832  0.2416 -0.0685  0.2980
  150BOLB   C2B 3586  14.263  19.681  14.782 -0.0160 -0.1262 -0.1828
  150BOLB   C3B 3587  14.430  19.226  14.994 -0.2201 -0.0247  0.0286
  150BOLB   C4B 3588  14.483  18.792  15.265 -0.1864 -0.1384  0.3060
  150BOLB   NC2 3589  16.642  18.622  16.259  0.3701 -0.2813 -0.2582
  150BOLB   PO2 3590  16.849  18.466  15.941 -0.3787  0.2034 -0.0737
  150BOLB   GL3 3591  16.482  18.717  15.779 -0.1395 -0.0263 -0.4115
  150BOLB   GL4 3592  16.223  18.517  15.966 -0.2069 -0.0438  0.1948
  150BOLB   C1C 3593  16.154  19.033  15.921 -0.0422 -0.1736 -0.1359
  150BOLB   C2C 3594  15.780  19.336  16.090  0.1453  0.0209 -0.0839
  150BOLB   C3C 3595  15.337  19.513  16.062  0.1487 -0.1162  0.1700
  150BOLB   C4C 3596  15.036  19.738  15.812  0.1100  0.3780 -0.1689
  150BOLB   C1D 3597  15.914  18.194  16.031 -0.3435  0.4068 -0.2350
  150BOLB   C2D 3598  15.539  17.996  15.804  0.0147  0.0329  0.1021
  150BOLB   C3D 3599  15.146  18.008  15.673  0.0814 -0.1345 -0.1667
  150BOLB   C4D 3600  14.769  18.012  15.465  0.1748 -0.0908 -0.1469
  151BOLB   NC1 3601   8.426  13.742   7.701 -0.0120 -0.0500 -0.0944
  151BOLB   PO1 3602   8.570  13.371   7.953  0.1466 -0.2717  0.1670
  151BOLB   GL1 3603   8.366  13.013   7.795  0.0829  0.4211  0.0347
  151BOLB   GL2 3604   8.224  12.855   8.030  0.0462  0.2113 -0.0057
  151BOLB   C1A 3605   8.537  12.611   7.598 -0.0917 -0.2756 -0.1170
  151BOLB   C2A 3606   8.552  12.199   7.610  0.0515  0.0971  0.0413
  151BOLB   C3A 3607   8.524  11.760   7.658  0.0836 -0.3616 -0.0605
  151BOLB   C4A 3608   8.472  11.292   7.444 -0.0700  0.0758 -0.0303
  151BOLB   C1B 3609   8.349  12.422   8.080  0.0802  0.1526  0.0678
  151BOLB   C2B 3610   8.663  11.978   8.181  0.0667  0.1219  0.0159
  151BOLB   C3B 3611   8.660  11.583   8.319 -0.1037 -0.1401 -0.2067
  151BOLB   C4B 3612   8.705  11.230   8.445  0.4074  0.2582  0.0993
  151BOLB   NC2 3613   8.871   8.436   6.924  0.0665 -0.2492  0.0756
  151BOLB   PO2 3614   8.624   8.909   6.925  0.1061  0.3372  0.0751
  151BOLB   GL3 3615   8.553   9.341   6.914  0.1371 -0.0533 -0.0434
  151BOLB   GL4 3616   8.753   9.615   7.094  0.1383  0.1762 -0.2442
  151BOLB   C1C 3617   8.160   9.640   6.958 -0.0269  0.0092  0.0666
  151BOLB   C2C 3618   8.020  10.106   7.054  0.0215  0.0857 -0.0764
  151BOLB   C3C 3619   8.088  10.553   7.201 -0.2539 -0.1011 -0.1905
  151BOLB   C4C 3620   8.307  10.953   7.268  0.1687 -0.2339 -0.0753
  151BOLB   C1D 3621   8.538   9.947   7.076 -0.1772 -0.2759 -0.0531
  151BOLB   C2D 3622   8.491  10.197   7.366 -0.0554 -0.0781  0.4873
  151BOLB   C3D 3623   8.562  10.635   7.570  0.3637 -0.1529  0.1412
  151BOLB   C4D 3624   8.865  11.007   7.719  0.0410  0.2937  0.2600
  152BOLB   NC1 3625  13.660  24.582  13.745 -0.2082  0.3744 -0.0380
  152BOLB   PO1 3626  13.860  24.831  13.550 -0.0215 -0.0255  0.0240
  152BOLB   GL1 3627  14.261  25.059  13.649 -0.1399 -0.0123  0.1467
  152BOLB   GL2 3628  14.444  24.682  13.783 -0.0028 -0.0490  0.2293
  152BOLB   C1A 3629  14.591  25.113  13.958  0.1435  0.1304 -0.0098
  152BOLB   C2A 3630  15.025  25.304  14.055 -0.3512  0.0030 -0.0153
  152BOLB   C3A 3631  15.509  25.386  14.044 -0.1232  0.2948  0.2869
  152BOLB   C4A 3632  15.812  25.322  14.415  0.1365 -0.1435  0.2072
  152BOLB   C1B 3633  14.941  24.730  13.919 -0.1082 -0.1921  0.3096
  152BOLB   C2B 3634  15.278  24.901  13.982 -0.0918 -0.0082 -0.3138
  152BOLB   C3B 3635  15.675  24.944  14.005 -0.3575  0.3073 -0.0090
  152BOLB   C4B 3636  15.765  24.546  13.788 -0.0210  0.0492  0.0966
  152BOLB   NC2 3637  17.919  24.423  15.247 -0.1252 -0.1074  0.0009
  152BOLB   PO2 3638  17.835  24.902  15.267 -0.2795 -0.2958 -0.0076
  152BOLB   GL3 3639  17.463  24.774  15.277  0.1481 -0.0820  0.1087
  152BOLB   GL4 3640  17.277  24.480  15.356  0.0597  0.1686 -0.0207
  152BOLB   C1C 3641  17.072  24.840  15.026 -0.0490 -0.0424  0.4617
  152BOLB   C2C 3642  16.678  24.894  14.994 -0.0476  0.1270 -0.0125
  152BOLB   C3C 3643  16.321  25.009  14.883 -0.1146  0.1122  0.0294
  152BOLB   C4C 3644  16.140  25.304  14.708  0.2191 -0.2345 -0.1413
  152BOLB   C1D 3645  16.854  24.249  15.477  0.0008 -0.0099  0.0433
  152BOLB   C2D 3646  16.433  24.360  15.406  0.3290  0.0217  0.3544
  152BOLB   C3D 3647  15.988  24.261  15.444  0.0193 -0.1349  0.2560
  152BOLB   C4D 3648  15.713  24.042  15.294  0.0372 -0.0258  0.0134
  153BOLB   NC1 3649  10.794  25.954   5.633 -0.1065  0.2896 -0.1909
  153BOLB   PO1 3650  10.939  26.094   6.034  0.0028  0.2805 -0.3077
  153BOLB   GL1 3651  10.935  26.467   5.773 -0.1723  0.3881  0.0089
  153BOLB   GL2 3652  11.160  26.651   5.957  0.0799  0.1045  0.1731
  153BOLB   C1A 3653  11.047  26.631   5.515 -0.0674 -0.0956 -0.5107
  153BOLB   C2A 3654  11.247  26.828   5.148  0.1703  0.0656  0.3584
  153BOLB   C3A 3655  11.120  27.105   4.782  0.0378 -0.0722 -0.1304
  153BOLB   C4A 3656  11.144  27.455   4.478 -0.0748  0.1323  0.0139
  153BOLB   C1B 3657  11.486  26.892   5.673 -0.0134  0.1757  0.1608
  153BOLB   C2B 3658  11.621  27.190   5.425 -0.0658 -0.2559  0.0047
  153BOLB   C3B 3659  11.841  27.238   5.087 -0.0853 -0.3304 -0.1394
  153BOLB   C4B 3660  12.092  27.144   4.756  0.1458  0.0963  0.1330
  153BOLB   NC2 3661  13.082  29.127   4.820  0.1249 -0.1232 -0.5059
  153BOLB   PO2 3662  13.004  28.963   4.406 -0.2978 -0.0968 -0.0148
  153BOLB   GL3 3663  12.634  28.887   4.631  0.1306  0.2973 -0.0346
  153BOLB   GL4 3664  12.623  29.007   4.930 -0.1834  0.0777  0.2385
  153BOLB   C1C 3665  12.354  28.578   4.803  0.2756  0.0614  0.0830
  153BOLB   C2C 3666  11.946  28.477   4.871  0.2628 -0.0792  0.2556
  153BOLB   C3C 3667  11.563  28.264   4.579  0.0370  0.1703 -0.2499
  153BOLB   C4C 3668  11.161  27.902   4.544 -0.1267 -0.1684  0.0765
  153BOLB   C1D 3669  12.301  28.954   5.199  0.5012 -0.1662 -0.2340
  153BOLB   C2D 3670  11.986  28.658   5.355  0.0957 -0.0783  0.2694
  153BOLB   C3D 3671  11.659  28.440   5.576  0.0826  0.1950 -0.0171
  153BOLB   C4D 3672  11.298  28.184   5.559 -0.2720  0.0687 -0.0099
  154BOLB   NC1 3673  15.332  13.493  12.420 -0.1230 -0.1166  0.0247
  154BOLB   PO1 3674  15.560  13.544  12.059 -0.0365  0.0398  0.0442
  154BOLB   GL1 3675  15.266  13.761  11.912  0.3805  0.2768 -0.1832
  154BOLB   GL2 3676  15.101  13.716  11.608  0.0868  0.1011 -0.2008
  154BOLB   C1A 3677  14.813  14.038  11.884 -0.0801 -0.0165  0.2733
  154BOLB   C2A 3678  14.550  14.358  11.953 -0.0325 -0.2468  0.2524
  154BOLB   C3A 3679  14.520  14.845  11.895  0.0151  0.1834  0.2452
  154BOLB   C4A 3680  14.845  15.146  11.830 -0.0720 -0.3420  0.0901
  154BOLB   C1B 3681  14.917  13.944  11.328  0.0445  0.0466  0.2418
  154BOLB   C2B 3682  14.999  14.302  11.092 -0.2068 -0.0028 -0.3013
  154BOLB   C3B 3683  14.852  14.609  10.904 -0.2588  0.2892 -0.0371
  154BOLB   C4B 3684  14.519  14.677  10.573  0.1838 -0.1074 -0.0425
  154BOLB   NC2 3685  16.474  14.434  12.352 -0.0167  0.0689 -0.1976
  154BOLB   PO2 3686  16.765  14.541  12.011 -0.2079  0.1167  0.0039
  154BOLB   GL3 3687  16.451  14.841  11.785  0.5261 -0.1770 -0.2492
  154BOLB   GL4 3688  16.146  14.826  11.625  0.3578 -0.0384 -0.1334
  154BOLB   C1C 3689  16.314  15.264  11.838  0.2238  0.1166 -0.1839
  154BOLB   C2C 3690  15.943  15.340  11.757 -0.1047  0.1213 -0.0274
  154BOLB   C3C 3691  15.523  15.465  11.737  0.4234  0.1763  0.1118
  154BOLB   C4C 3692  15.164  15.314  11.739 -0.1176  0.0909  0.1935
  154BOLB   C1D 3693  16.013  14.809  11.314 -0.1973 -0.0383 -0.1213
  154BOLB   C2D 3694  15.652  14.807  11.053 -0.1433  0.1605  0.2201
  154BOLB   C3D 3695  15.293  14.813  10.846  0.0681 -0.0396 -0.4300
  154BOLB   C4D 3696  15.097  14.702  10.431  0.0068 -0.1208 -0.2650
  155BOLB   NC1 3697  14.738  23.509  12.122 -0.1271 -0.1006  0.1184
  155BOLB   PO1 3698  14.650  23.690  12.516  0.1795 -0.0475 -0.0940
  155BOLB   GL1 3699  14.985  23.893  12.252 -0.0495 -0.3941 -0.1978
  155BOLB   GL2 3700  15.210  23.684  12.085 -0.1757  0.1654 -0.0705
  155BOLB   C1A 3701  15.299  24.122  12.222 -0.0084 -0.4246  0.3588
  155BOLB   C2A 3702  15.582  24.417  12.000 -0.1064 -0.1459 -0.2564
  155BOLB   C3A 3703  16.030  24.507  11.794 -0.0236  0.2175 -0.0683
  155BOLB   C4A 3704  16.465  24.495  11.865 -0.0260  0.0222 -0.1078
  155BOLB   C1B 3705  15.613  23.701  12.047 -0.3246 -0.1285  0.1440
  155BOLB   C2B 3706  15.850  23.938  12.233 -0.0303  0.1418  0.1688
  155BOLB   C3B 3707  16.014  24.324  12.274  0.1401  0.3441  0.1722
  155BOLB   C4B 3708  16.104  24.544  12.607 -0.2418  0.1132  0.0584
  155BOLB   NC2 3709  18.148  26.179  13.233  0.2930 -0.0158 -0.1106
  155BOLB   PO2 3710  17.882  26.170  12.867  0.1554 -0.1937 -0.0334
  155BOLB   GL3 3711  17.642  25.938  12.584  0.1255  0.1000  0.1146
  155BOLB   GL4 3712  17.415  26.079  12.487 -0.1697 -0.0299 -0.2944
  155BOLB   C1C 3713  17.593  25.545  12.317 -0.2111  0.3504 -0.0347
  155BOLB   C2C 3714  17.427  25.214  12.091  0.1065 -0.0710 -0.4405
  155BOLB   C3C 3715  17.241  24.806  12.001  0.1456  0.0352  0.1590
  155BOLB   C4C 3716  16.835  24.735  11.799  0.0183 -0.0199 -0.0127
  155BOLB   C1D 3717  17.069  25.802  12.567 -0.0733 -0.0362 -0.0981
  155BOLB   C2D 3718  16.789  25.475  12.510  0.1467  0.0181  0.0633
  155BOLB   C3D 3719  16.439  25.209  12.453  0.1588 -0.0882  0.1367
  155BOLB   C4D 3720  16.481  24.793  12.752  0.1058  0.0434 -0.4629
  156BOLB   NC1 3721   7.516  13.681   7.681 -0.0578  0.0655  0.1466
  156BOLB   PO1 3722   7.571  13.308   7.711  0.1227 -0.0012  0.0600
  156BOLB   GL1 3723   7.895  13.010   7.628  0.0594  0.0750 -0.1788
  156BOLB   GL2 3724   7.941  13.025   7.365  0.0689 -0.3196 -0.1574
  156BOLB   C1A 3725   8.070  12.565   7.581  0.1842  0.1381 -0.0547
  156BOLB   C2A 3726   8.119  12.232   7.300  0.1692  0.0286  0.0342
  156BOLB   C3A 3727   8.245  12.013   6.872 -0.1635  0.2228 -0.1873
  156BOLB   C4A 3728   8.563  11.823   6.539 -0.3457 -0.0905 -0.0524
  156BOLB   C1B 3729   8.064  12.705   7.066 -0.1542  0.1424  0.2736
  156BOLB   C2B 3730   7.988  12.372   6.632  0.2209 -0.2103 -0.1445
  156BOLB   C3B 3731   7.954  11.908   6.398  0.1353 -0.0643 -0.1399
  156BOLB   C4B 3732   8.143  11.433   6.468  0.0280  0.1085  0.0344
  156BOLB   NC2 3733   9.710  10.057   5.655 -0.2634 -0.2058  0.2357
  156BOLB   PO2 3734   9.415   9.807   5.633 -0.1649  0.1706 -0.0120
  156BOLB   GL3 3735   9.175  10.252   5.561 -0.2516  0.0965 -0.1625
  156BOLB   GL4 3736   9.022  10.287   5.288 -0.0698  0.1243 -0.1025
  156BOLB   C1C 3737   9.159  10.636   5.568 -0.1145  0.0554 -0.3289
  156BOLB   C2C 3738   9.230  11.081   5.601 -0.0406  0.0968 -0.2203
  156BOLB   C3C 3739   8.989  11.304   5.848 -0.0062  0.1784 -0.0239
  156BOLB   C4C 3740   8.936  11.503   6.295  0.0977  0.0305 -0.2986
  156BOLB   C1D 3741   8.655  10.425   5.472  0.1791  0.3232  0.2510
  156BOLB   C2D 3742   8.239  10.631   5.413  0.0643 -0.0494 -0.0705
  156BOLB   C3D 3743   7.902  10.929   5.377  0.3062 -0.0946 -0.0284
  156BOLB   C4D 3744   7.610  11.381   5.539 -0.1083  0.1480 -0.0713
  157BOLB   NC1 3745   9.857  28.571   8.823  0.0070  0.2101 -0.3249
  157BOLB   PO1 3746  10.170  28.120   8.795  0.1456 -0.1220 -0.2906
  157BOLB   GL1 3747  10.340  28.434   8.626  0.0988  0.1419  0.1384
  157BOLB   GL2 3748  10.618  28.477   8.779  0.0520  0.1046 -0.0673
  157BOLB   C1A 3749  10.393  28.853   8.494  0.1614 -0.0888  0.3245
  157BOLB   C2A 3750  10.691  29.217   8.586  0.0738  0.3152 -0.2500
  157BOLB   C3A 3751  10.919  29.534   8.774 -0.5406 -0.0331 -0.1978
  157BOLB   C4A 3752  10.940  29.907   9.063 -0.5215 -0.0575  0.3349
  157BOLB   C1B 3753  10.973  28.793   8.600 -0.1162 -0.3555 -0.1651
  157BOLB   C2B 3754  11.082  29.247   8.259  0.0788 -0.4294  0.1206
  157BOLB   C3B 3755  11.453  29.539   8.099  0.1054 -0.1123 -0.1243
  157BOLB   C4B 3756  11.531  29.952   7.860  0.1415  0.1310  0.0968
  157BOLB   NC2 3757  11.633  31.873   7.557 -0.0780 -0.0524  0.1703
  157BOLB   PO2 3758  11.447  31.691   7.991 -0.0224 -0.1198  0.2216
  157BOLB   GL3 3759  11.549  31.420   8.343  0.0522 -0.2699  0.1077
  157BOLB   GL4 3760  11.338  31.171   8.261  0.1739  0.0875  0.0768
  157BOLB   C1C 3761  11.647  31.321   8.782 -0.2518  0.2025  0.2049
  157BOLB   C2C 3762  11.435  30.912   8.970 -0.1908 -0.2165  0.2021
  157BOLB   C3C 3763  11.265  30.582   9.224 -0.0869  0.0681  0.1901
  157BOLB   C4C 3764  11.079  30.253   9.290 -0.0027 -0.1388 -0.0839
  157BOLB   C1D 3765  11.104  30.803   8.132  0.1889  0.0361 -0.2128
  157BOLB   C2D 3766  10.797  30.538   8.283  0.1987 -0.2596 -0.3280
  157BOLB   C3D 3767  10.709  30.245   8.033 -0.4060  0.2538  0.0511
  157BOLB   C4D 3768  10.651  29.919   7.771 -0.1330  0.1612 -0.2476
  158BOLB   NC1 3769   4.775  12.532   1.164 -0.1603  0.1394 -0.0075
  158BOLB   PO1 3770   4.778  12.329   1.624 -0.0437  0.1986  0.2879
  158BOLB   GL1 3771   4.599  12.561   1.846 -0.6054 -0.4252  0.1702
  158BOLB   GL2 3772   4.640  12.371   2.221  0.1249 -0.1353  0.1320
  158BOLB   C1A 3773   4.295  12.782   2.217  0.1398  0.0408 -0.2757
  158BOLB   C2A 3774   4.080  13.084   2.545  0.0265 -0.0075  0.2753
  158BOLB   C3A 3775   3.939  13.412   2.791 -0.0204 -0.0867 -0.0888
  158BOLB   C4A 3776   4.062  13.663   3.257 -0.1728  0.2241  0.5147
  158BOLB   C1B 3777   5.057  12.418   2.170  0.1554  0.0425  0.0504
  158BOLB   C2B 3778   5.504  12.320   2.175  0.2717  0.3560  0.0783
  158BOLB   C3B 3779   5.887  12.488   2.281 -0.1028 -0.0855 -0.1542
  158BOLB   C4B 3780   6.312  12.518   2.574 -0.2251 -0.2273  0.0127
  158BOLB   NC2 3781   4.223  15.585   5.547 -0.0669  0.0781 -0.0203
  158BOLB   PO2 3782   4.035  15.339   5.317  0.1994 -0.1201  0.2255
  158BOLB   GL3 3783   3.830  14.992   5.079  0.0778  0.1702 -0.2505
  158BOLB   GL4 3784   3.896  15.226   4.879  0.1100 -0.1341 -0.1751
  158BOLB   C1C 3785   3.973  14.807   4.683 -0.1262 -0.1667  0.0542
  158BOLB   C2C 3786   3.768  14.590   4.384 -0.0163  0.3387 -0.1035
  158BOLB   C3C 3787   3.940  14.408   3.919  0.3243 -0.0685 -0.1097
  158BOLB   C4C 3788   4.103  14.047   3.623  0.0540 -0.2456 -0.0873
  158BOLB   C1D 3789   3.483  15.031   4.696 -0.1112 -0.1893  0.0508
  158BOLB   C2D 3790   3.330  15.030   5.093 -0.0746  0.0799 -0.2430
  158BOLB   C3D 3791   3.416  14.839   5.493 -0.0858 -0.2110  0.0078
  158BOLB   C4D 3792   3.190  14.857   5.852 -0.1613  0.1525 -0.2020
  159BOLB   NC1 3793   6.996  28.746   7.969 -0.0304 -0.1130 -0.0547
  159BOLB   PO1 3794   6.512  28.788   8.036 -0.1200 -0.0485 -0.1528
  159BOLB   GL1 3795   6.557  29.218   7.928 -0.5006  0.3236 -0.0212
  159BOLB   GL2 3796   6.633  29.263   7.610  0.0312  0.0962  0.2557
  159BOLB   C1A 3797   6.850  29.535   7.938  0.4860 -0.2473 -0.2302
  159BOLB   C2A 3798   7.083  29.992   7.834  0.2405 -0.2380 -0.1639
  159BOLB   C3A 3799   7.345  30.266   7.890  0.0459  0.3495  0.1253
  159BOLB   C4A 3800   7.613  30.698   8.001  0.0878 -0.2809  0.3598
  159BOLB   C1B 3801   6.494  29.625   7.602 -0.6080  0.1355  0.3823
  159BOLB   C2B 3802   6.615  29.978   7.680 -0.1405 -0.2252 -0.3715
  159BOLB   C3B 3803   6.681  30.282   7.485  0.0953 -0.3929 -0.2277
  159BOLB   C4B 3804   6.882  30.632   7.521 -0.2841 -0.1320  0.1506
  159BOLB   NC2 3805   8.091  32.816   7.564 -0.0134  0.0780 -0.3224
  159BOLB   PO2 3806   7.924  32.913   7.993  0.0895 -0.5061 -0.3339
  159BOLB   GL3 3807   8.172  32.509   8.035 -0.1744 -0.2321 -0.0764
  159BOLB   GL4 3808   8.435  32.488   7.780  0.1526 -0.1989  0.3672
  159BOLB   C1C 3809   8.130  32.152   8.299 -0.0447  0.1518  0.2723
  159BOLB   C2C 3810   8.085  31.796   8.288  0.0458  0.1198 -0.4555
  159BOLB   C3C 3811   8.115  31.311   8.209 -0.0925  0.2281 -0.1841
  159BOLB   C4C 3812   7.901  31.009   8.245 -0.2650 -0.3373 -0.0170
  159BOLB   C1D 3813   8.418  32.296   7.359  0.0945 -0.3186 -0.2519
  159BOLB   C2D 3814   8.608  31.925   7.172  0.0806  0.1639  0.0707
  159BOLB   C3D 3815   8.570  31.644   7.386 -0.1857  0.0321 -0.2736
  159BOLB   C4D 3816   8.694  31.188   7.314  0.2550 -0.1145 -0.5348
  160BOLB   NC1 3817   9.559  20.897  18.442  0.3031 -0.1135  0.0037
  160BOLB   PO1 3818   9.192  20.912  18.518 -0.0240 -0.0133 -0.1848
  160BOLB   GL1 3819   8.980  20.799  18.922  0.0248 -0.0991 -0.1025
  160BOLB   GL2 3820   9.160  20.992  19.097  0.0145  0.0781 -0.0297
  160BOLB   C1A 3821   8.850  20.654  19.268 -0.1686 -0.0564  0.3706
  160BOLB   C2A 3822   9.011  20.533  19.652  0.0911  0.2671 -0.1776
  160BOLB   C3A 3823   9.245  20.242  19.724  0.3157 -0.1955  0.0523
  160BOLB   C4A 3824   9.290  19.955  20.009  0.0736 -0.0170 -0.4860
  160BOLB   C1B 3825   9.268  21.086  19.503  0.0285 -0.2062  0.2486
  160BOLB   C2B 3826   9.138  20.999  19.901  0.1594 -0.1547  0.0013
  160BOLB   C3B 3827   8.900  21.174  20.261  0.1469 -0.2138  0.0221
  160BOLB   C4B 3828   8.881  21.539  20.582 -0.1783  0.2721 -0.0721
  160BOLB   NC2 3829   9.554  19.024  22.216  0.2053 -0.0092  0.0316
  160BOLB   PO2 3830   9.791  18.673  22.075 -0.1818  0.1851  0.4735
  160BOLB   GL3 3831   9.640  18.931  21.673  0.1098 -0.0452 -0.1343
  160BOLB   GL4 3832   9.861  19.117  21.510  0.2733 -0.3212  0.1942
  160BOLB   C1C 3833   9.482  18.763  21.226 -0.1278 -0.3050  0.1548
  160BOLB   C2C 3834   9.476  18.935  20.819  0.0554 -0.0002 -0.2136
  160BOLB   C3C 3835   9.425  19.316  20.546 -0.0327 -0.0728 -0.0688
  160BOLB   C4C 3836   9.479  19.718  20.331  0.0996 -0.1774 -0.0824
  160BOLB   C1D 3837   9.542  19.301  21.115  0.0639 -0.1066 -0.1315
  160BOLB   C2D 3838   9.645  19.678  20.837 -0.1016  0.1450 -0.0478
  160BOLB   C3D 3839   9.450  20.060  20.720 -0.1035  0.2285 -0.1237
  160BOLB   C4D 3840   9.109  20.053  20.495 -0.0380  0.1051 -0.1261
  161BOLB   NC1 3841  14.498  12.113   8.224 -0.0911  0.3221  0.1649
  161BOLB   PO1 3842  14.398  11.920   7.775  0.0860  0.1820 -0.4231
  161BOLB   GL1 3843  14.033  12.029   7.560 -0.0182 -0.1304  0.2280
  161BOLB   GL2 3844  13.961  12.343   7.433 -0.1197 -0.3070  0.1598
  161BOLB   C1A 3845  13.609  12.227   7.691  0.2353  0.0884  0.6270
  161BOLB   C2A 3846  13.390  12.591   7.573 -0.1388  0.1543 -0.1392
  161BOLB   C3A 3847  13.268  12.830   7.926 -0.1235 -0.2401 -0.0911
  161BOLB   C4A 3848  13.057  13.243   8.015  0.0303  0.1783  0.2734
  161BOLB   C1B 3849  13.835  12.787   7.410 -0.3921 -0.1041  0.1155
  161BOLB   C2B 3850  14.188  13.048   7.276 -0.0581 -0.1889  0.1301
  161BOLB   C3B 3851  14.357  13.390   7.585  0.2032 -0.0988 -0.0176
  161BOLB   C4B 3852  14.342  13.725   7.960 -0.2549 -0.0931  0.0122
  161BOLB   NC2 3853  11.556  15.394   8.251 -0.3011 -0.1364 -0.3152
  161BOLB   PO2 3854  11.616  15.097   8.571  0.5845  0.4324 -0.0768
  161BOLB   GL3 3855  11.766  14.661   8.484 -0.1852  0.1059  0.0344
  161BOLB   GL4 3856  11.550  14.421   8.445  0.3178  0.1842 -0.1577
  161BOLB   C1C 3857  12.161  14.400   8.309 -0.1975 -0.4414  0.6819
  161BOLB   C2C 3858  12.505  14.206   8.122 -0.2823 -0.2738  0.1036
  161BOLB   C3C 3859  12.420  13.785   7.950 -0.0768 -0.0186 -0.2433
  161BOLB   C4C 3860  12.749  13.468   7.809 -0.1851  0.0692 -0.2370
  161BOLB   C1D 3861  11.695  14.168   8.342  0.1245  0.2602  0.1089
  161BOLB   C2D 3862  11.778  13.701   8.283 -0.1827  0.0030  0.0717
  161BOLB   C3D 3863  12.054  13.440   8.103 -0.2987 -0.2428  0.1862
  161BOLB   C4D 3864  12.047  13.124   7.854  0.2670  0.0312  0.2720
  162BOLB   NC1 3865   0.000  23.827   6.920 -0.0448  0.1702  0.1043
  162BOLB   PO1 3866  -0.124  24.010   6.542  0.4515 -0.2210 -0.0643
  162BOLB   GL1 3867  -0.389  24.279   6.318  0.0648  0.1740 -0.2429
  162BOLB   GL2 3868  -0.709  24.437   6.592 -0.0474  0.2143 -0.1901
  162BOLB   C1A 3869  -0.670  24.563   6.114  0.3508  0.2061  0.1444
  162BOLB   C2A 3870  -1.044  24.732   5.887  0.0843 -0.0381  0.1539
  162BOLB   C3A 3871  -1.319  24.844   5.552 -0.0985 -0.0501  0.0787
  162BOLB   C4A 3872  -1.433  25.158   5.403 -0.0839 -0.1469  0.2738
  162BOLB   C1B 3873  -1.114  24.509   6.420 -0.0363  0.1625 -0.2747
  162BOLB   C2B 3874  -1.461  24.739   6.227 -0.1023 -0.2529  0.0960
  162BOLB   C3B 3875  -1.853  24.997   6.329 -0.2377 -0.3312  0.0623
  162BOLB   C4B 3876  -1.941  25.462   6.357 -0.0969 -0.1167  0.0785
  162BOLB   NC2 3877  -2.681  27.439   5.426  0.0578 -0.1004  0.0898
  162BOLB   PO2 3878  -2.465  27.386   4.976  0.0586  0.1092 -0.1791
  162BOLB   GL3 3879  -2.402  27.057   5.195 -0.1116 -0.0825 -0.0275
  162BOLB   GL4 3880  -2.535  26.988   5.530 -0.1482  0.0173 -0.1625
  162BOLB   C1C 3881  -2.183  26.681   5.132 -0.1889  0.0595 -0.3441
  162BOLB   C2C 3882  -2.175  26.218   5.262 -0.3466 -0.2922 -0.1037
  162BOLB   C3C 3883  -1.845  25.793   5.414  0.0271  0.2068 -0.1051
  162BOLB   C4C 3884  -1.761  25.409   5.364 -0.0106  0.1347 -0.2327
  162BOLB   C1D 3885  -2.177  26.676   5.655  0.1088 -0.1607 -0.1312
  162BOLB   C2D 3886  -1.839  26.378   5.707 -0.4938  0.0620 -0.3225
  162BOLB   C3D 3887  -1.491  26.087   5.697  0.0529 -0.0751 -0.1501
  162BOLB   C4D 3888  -1.383  25.636   5.706 -0.1070  0.2385  0.1733
  163BOLB   NC1 3889   3.994  17.600  17.109 -0.4320  0.0973 -0.0371
  163BOLB   PO1 3890   3.768  17.260  16.892 -0.1261  0.0097  0.1405
  163BOLB   GL1 3891   3.524  16.994  17.155  0.1234 -0.3936 -0.0031
  163BOLB   GL2 3892   3.159  16.837  17.091  0.2414  0.2725 -0.0887
  163BOLB   C1A 3893   3.435  16.789  17.553 -0.2514  0.0762  0.0507
  163BOLB   C2A 3894   3.437  16.463  17.996 -0.1001 -0.3185  0.2060
  163BOLB   C3A 3895   3.619  16.207  18.212  0.1428  0.3058  0.1486
  163BOLB   C4A 3896   3.693  15.962  18.579 -0.1721  0.1508  0.0430
  163BOLB   C1B 3897   3.011  16.468  17.235  0.1789 -0.1659 -0.0634
  163BOLB   C2B 3898   3.078  16.297  17.620 -0.1986 -0.2524  0.2909
  163BOLB   C3B 3899   3.160  16.065  18.004  0.3495  0.0608 -0.2674
  163BOLB   C4B 3900   3.187  15.658  18.081 -0.0867 -0.1766 -0.2807
  163BOLB   NC2 3901   3.530  14.904  20.976  0.1248 -0.3237  0.0388
  163BOLB   PO2 3902   3.773  15.046  20.593 -0.0228 -0.5756 -0.2587
  163BOLB   GL3 3903   3.760  15.369  20.237  0.2046  0.1844 -0.3255
  163BOLB   GL4 3904   3.463  15.567  20.163  0.0306  0.2195  0.2339
  163BOLB   C1C 3905   3.693  15.293  19.825  0.4953 -0.0616  0.2574
  163BOLB   C2C 3906   3.592  15.517  19.548  0.1609 -0.2517 -0.1957
  163BOLB   C3C 3907   3.715  15.606  19.143 -0.1159 -0.2045 -0.1427
  163BOLB   C4C 3908   3.774  15.668  18.817 -0.1729  0.1629  0.2269
  163BOLB   C1D 3909   3.344  15.845  19.885  0.2519  0.2672  0.1284
  163BOLB   C2D 3910   3.456  16.079  19.404 -0.0661  0.4597 -0.1744
  163BOLB   C3D 3911   3.757  16.162  19.134  0.0767 -0.2338  0.0380
  163BOLB   C4D 3912   4.115  16.264  19.144 -0.2003  0.1585 -0.3465
  164BOLB   NC1 3913   3.796  27.025  15.121 -0.1994  0.0573 -0.1886
  164BOLB   PO1 3914   3.498  26.673  15.315  0.1032 -0.2459  0.0393
  164BOLB   GL1 3915   3.384  27.043  15.633 -0.2373 -0.3111 -0.1367
  164BOLB   GL2 3916   3.535  27.349  15.476  0.4859  0.3354 -0.1901
  164BOLB   C1A 3917   3.493  27.319  16.027  0.3181  0.1486 -0.1018
  164BOLB   C2A 3918   3.309  27.577  16.321 -0.0462 -0.1173  0.1301
  164BOLB   C3A 3919   3.222  28.036  16.327 -0.0361 -0.2347  0.0923
  164BOLB   C4A 3920   3.300  28.513  16.447  0.3048 -0.1483 -0.0975
  164BOLB   C1B 3921   3.396  27.646  15.526  0.0240  0.0376  0.2926
  164BOLB   C2B 3922   3.001  27.913  15.426 -0.1317  0.3244 -0.1384
  164BOLB   C3B 3923   2.800  28.095  15.656  0.0644 -0.2006  0.2409
  164BOLB   C4B 3924   2.827  28.488  15.772 -0.0917  0.3999 -0.3143
  164BOLB   NC2 3925   4.022  31.019  16.696  0.2860  0.2160 -0.1147
  164BOLB   PO2 3926   3.795  30.738  16.927 -0.4912 -0.0333 -0.2444
  164BOLB   GL3 3927   3.799  30.480  16.671 -0.2323  0.0106  0.0407
  164BOLB   GL4 3928   4.063  30.609  16.379 -0.2297  0.0443  0.1249
  164BOLB   C1C 3929   3.667  30.002  16.763  0.0300 -0.1748 -0.0255
  164BOLB   C2C 3930   3.575  29.613  16.943 -0.0910 -0.0196  0.0843
  164BOLB   C3C 3931   3.485  29.274  16.721  0.0058 -0.1222 -0.4383
  164BOLB   C4C 3932   3.468  28.878  16.520 -0.0111 -0.1968 -0.2693
  164BOLB   C1D 3933   4.080  30.153  16.490  0.1457  0.1232  0.3212
  164BOLB   C2D 3934   4.217  29.722  16.379  0.1408 -0.1047  0.0239
  164BOLB   C3D 3935   4.100  29.361  16.037  0.2589  0.1074 -0.0699
  164BOLB   C4D 3936   4.175  28.868  15.917  0.0029 -0.0486 -0.1895
  165BOLB   NC1 3937  10.713  13.227  18.147 -0.0637  0.0192 -0.2195
  165BOLB   PO1 3938  10.550  12.909  17.895 -0.0363  0.2473  0.0779
  165BOLB   GL1 3939  10.343  13.236  17.632  0.2471 -0.2456  0.2293
  165BOLB   GL2 3940  10.032  13.131  17.614 -0.1304  0.0144  0.0941
  165BOLB   C1A 3941  10.158  13.656  17.607  0.2875  0.0476  0.1738
  165BOLB   C2A 3942   9.926  13.935  17.370  0.1088 -0.0552 -0.2582
  165BOLB   C3A 3943  10.026  14.200  17.013  0.2039  0.4361 -0.1053
  165BOLB   C4A 3944  10.046  14.401  16.682 -0.2161 -0.1188 -0.2573
  165BOLB   C1B 3945  10.009  13.315  17.222  0.3097 -0.1397 -0.3598
  165BOLB   C2B 3946  10.169  13.663  17.001  0.0945  0.1332  0.0663
  165BOLB   C3B 3947  10.405  13.792  16.610  0.0971  0.0405 -0.1881
  165BOLB   C4B 3948  10.721  13.968  16.401 -0.1558 -0.1503  0.2736
  165BOLB   NC2 3949   8.744  15.096  14.453 -0.1735  0.3323 -0.3494
  165BOLB   PO2 3950   9.229  15.054  14.308  0.0375 -0.1475  0.0029
  165BOLB   GL3 3951   9.556  14.898  14.531 -0.1135 -0.0862 -0.0251
  165BOLB   GL4 3952   9.700  14.784  14.339  0.1570  0.0306  0.0346
  165BOLB   C1C 3953   9.697  14.888  14.981 -0.0251  0.2480 -0.2500
  165BOLB   C2C 3954  10.022  14.854  15.274 -0.0302  0.0740  0.0695
  165BOLB   C3C 3955   9.891  14.846  15.843  0.0042  0.0501  0.0976
  165BOLB   C4C 3956   9.971  14.623  16.258 -0.0807 -0.0093  0.0777
  165BOLB   C1D 3957   9.847  14.546  14.638  0.0498 -0.1302 -0.2228
  165BOLB   C2D 3958   9.832  14.378  15.018  0.1168  0.2225  0.2395
  165BOLB   C3D 3959  10.286  14.331  15.395  0.4640 -0.2587  0.1668
  165BOLB   C4D 3960  10.639  14.287  15.691  0.0275  0.2792  0.0053
  166BOLB   NC1 3961   5.396  32.624   8.936  0.0264  0.0873 -0.4799
  166BOLB   PO1 3962   5.006  32.496   8.943  0.1583 -0.0055  0.0030
  166BOLB   GL1 3963   5.079  32.112   8.727 -0.0572 -0.1051  0.0626
  166BOLB   GL2 3964   5.305  32.119   8.966 -0.0618 -0.1519 -0.0329
  166BOLB   C1A 3965   4.728  31.870   8.572 -0.4298 -0.1043 -0.1118
  166BOLB   C2A 3966   4.619  31.498   8.347  0.0984  0.0756 -0.1134
  166BOLB   C3A 3967   4.502  31.102   8.463  0.0118 -0.2270  0.0523
  166BOLB   C4A 3968   4.274  30.790   8.608 -0.1849  0.2655 -0.1483
  166BOLB   C1B 3969   5.450  32.157   9.390  0.1768  0.0491  0.0319
  166BOLB   C2B 3970   5.717  31.760   9.625  0.1719 -0.1887 -0.1055
  166BOLB   C3B 3971   5.950  31.425   9.449  0.2946 -0.2442  0.0956
  166BOLB   C4B 3972   6.117  31.039   9.495  0.1744  0.1500  0.2522
  166BOLB   NC2 3973   4.447  28.603   9.601  0.1567 -0.0441  0.0269
  166BOLB   PO2 3974   4.707  28.891   9.277  0.0296 -0.2266  0.0236
  166BOLB   GL3 3975   4.520  29.286   9.364 -0.3022 -0.1783  0.0159
  166BOLB   GL4 3976   4.283  29.178   9.493 -0.1139 -0.1211  0.0315
  166BOLB   C1C 3977   4.595  29.697   9.194 -0.2735  0.3695 -0.0732
  166BOLB   C2C 3978   4.247  29.900   9.073  0.1734 -0.1151 -0.0999
  166BOLB   C3C 3979   4.108  30.240   9.044 -0.0824  0.2718  0.2567
  166BOLB   C4C 3980   4.144  30.347   8.676 -0.2016  0.0281 -0.1988
  166BOLB   C1D 3981   4.105  29.601   9.400 -0.2423 -0.2074  0.1745
  166BOLB   C2D 3982   4.118  30.028   9.558 -0.1040 -0.0101 -0.1388
  166BOLB   C3D 3983   4.028  30.475   9.626  0.1685 -0.0303  0.0366
  166BOLB   C4D 3984   4.117  30.882   9.649 -0.1504 -0.0018  0.0631
  167BOLB   NC1 3985   6.718  13.100   8.035  0.0687 -0.1500  0.0707
  167BOLB   PO1 3986   6.713  13.269   7.633  0.0950 -0.0152 -0.1945
  167BOLB   GL1 3987   6.943  12.921   7.497  0.2858 -0.0792  0.0613
  167BOLB   GL2 3988   6.629  12.609   7.496 -0.3380  0.0110 -0.0837
  167BOLB   C1A 3989   7.135  12.402   7.410  0.2203 -0.0377 -0.3000
  167BOLB   C2A 3990   7.095  11.975   7.454  0.1230 -0.0251 -0.2573
  167BOLB   C3A 3991   7.048  11.575   7.438  0.1838  0.3147  0.1897
  167BOLB   C4A 3992   7.067  11.196   7.429 -0.1568  0.0475  0.0633
  167BOLB   C1B 3993   6.475  12.186   7.527 -0.1453  0.0043 -0.0802
  167BOLB   C2B 3994   6.561  11.738   7.309  0.6671  0.2526 -0.3734
  167BOLB   C3B 3995   6.605  11.299   7.062 -0.1110 -0.0718 -0.0202
  167BOLB   C4B 3996   6.231  11.083   6.802  0.3788 -0.3201  0.0562
  167BOLB   NC2 3997   7.029   8.691   7.024 -0.2948  0.0421  0.1806
  167BOLB   PO2 3998   7.211   9.039   7.365  0.2337  0.1840 -0.5249
  167BOLB   GL3 3999   7.368   9.511   7.423  0.4259 -0.0260 -0.1278
  167BOLB   GL4 4000   7.761   9.432   7.304  0.0691  0.1991  0.0659
  167BOLB   C1C 4001   7.593   9.834   7.586 -0.1768  0.0221 -0.4890
  167BOLB   C2C 4002   7.767  10.187   7.524  0.1483 -0.1690 -0.1341
  167BOLB   C3C 4003   7.596  10.514   7.331 -0.0024 -0.1238 -0.1372
  167BOLB   C4C 4004   7.411  10.873   7.562 -0.1063 -0.3283 -0.1937
  167BOLB   C1D 4005   8.089   9.792   7.437 -0.1422  0.0286  0.1961
  167BOLB   C2D 4006   8.601   9.771   7.593 -0.0719 -0.1866 -0.0516
  167BOLB   C3D 4007   8.826  10.126   7.755 -0.1003  0.0762  0.2651
  167BOLB   C4D 4008   8.965  10.477   7.875 -0.2756  0.1911  0.0133
  168BOLB   NC1 4009  13.911  16.970   8.206 -0.0775 -0.3247 -0.0996
  168BOLB   PO1 4010  13.756  17.035   7.859 -0.2339 -0.0966 -0.0083
  168BOLB   GL1 4011  14.086  16.688   7.777 -0.2844  0.1649  0.3196
  168BOLB   GL2 4012  14.435  16.683   7.769 -0.1257 -0.3033 -0.0624
  168BOLB   C1A 4013  14.251  16.235   7.767 -0.1428  0.0762 -0.0935
  168BOLB   C2A 4014  14.503  15.956   7.532  0.3263  0.2585 -0.1806
  168BOLB   C3A 4015  14.874  15.815   7.378  0.0156  0.1456  0.2548
  168BOLB   C4A 4016  15.445  15.745   7.293 -0.0332  0.0206 -0.0014
  168BOLB   C1B 4017  14.714  16.400   7.736 -0.2341 -0.0489 -0.1894
  168BOLB   C2B 4018  14.920  16.119   7.727  0.2115 -0.4873 -0.3593
  168BOLB   C3B 4019  15.401  16.088   7.700  0.2495 -0.0604 -0.1940
  168BOLB   C4B 4020  15.763  16.164   7.509 -0.1784  0.0357  0.0931
  168BOLB   NC2 4021  17.797  15.204   6.457 -0.2148 -0.0671  0.4272
  168BOLB   PO2 4022  17.607  15.486   6.580  0.3144  0.0437 -0.1352
  168BOLB   GL3 4023  17.294  15.582   6.894 -0.1475  0.1743  0.1479
  168BOLB   GL4 4024  17.190  15.847   7.038  0.1303 -0.0578  0.1370
  168BOLB   C1C 4025  16.898  15.444   7.044  0.0648 -0.1312 -0.0796
  168BOLB   C2C 4026  16.520  15.765   7.138 -0.1199 -0.3583  0.0684
  168BOLB   C3C 4027  16.193  15.635   7.154  0.1807 -0.0434 -0.0712
  168BOLB   C4C 4028  15.779  15.712   7.310  0.1094 -0.3233 -0.0603
  168BOLB   C1D 4029  16.896  16.237   7.130 -0.0866  0.1826 -0.2607
  168BOLB   C2D 4030  16.812  16.515   7.410 -0.2317  0.0205 -0.2339
  168BOLB   C3D 4031  16.627  16.841   7.355 -0.0632  0.0067  0.2323
  168BOLB   C4D 4032  16.385  17.269   7.419 -0.0487 -0.0034 -0.2244
  169BOLB   NC1 4033   7.292  13.858  19.995 -0.0264  0.1512  0.3684
  169BOLB   PO1 4034   6.993  13.812  19.692 -0.0537 -0.0434 -0.1816
  169BOLB   GL1 4035   7.179  13.807  19.228  0.2327  0.0873  0.2457
  169BOLB   GL2 4036   7.080  13.822  18.897 -0.1958  0.4188 -0.0029
  169BOLB   C1A 4037   7.310  14.258  19.088  0.0510 -0.2789 -0.1859
  169BOLB   C2A 4038   7.336  14.564  18.655 -0.0381 -0.3137 -0.0278
  169BOLB   C3A 4039   7.446  14.593  18.207  0.1824 -0.1978 -0.0313
  169BOLB   C4A 4040   7.622  14.838  17.865  0.0843 -0.1408  0.1218
  169BOLB   C1B 4041   6.978  14.194  18.678  0.1148 -0.1708 -0.2021
  169BOLB   C2B 4042   6.720  14.628  18.651 -0.0326  0.0914 -0.2433
  169BOLB   C3B 4043   6.537  15.033  18.865 -0.0406 -0.0124 -0.1036
  169BOLB   C4B 4044   6.365  15.340  19.125 -0.2152  0.4619 -0.1508
  169BOLB   NC2 4045   7.455  15.952  15.896  0.2324  0.1044  0.3394
  169BOLB   PO2 4046   7.531  16.310  16.199 -0.0561  0.0835 -0.2584
  169BOLB   GL3 4047   7.773  15.919  16.399  0.3317  0.0389  0.1878
  169BOLB   GL4 4048   8.144  16.003  16.363 -0.1951 -0.2151  0.2656
  169BOLB   C1C 4049   7.761  15.726  16.696  0.0976 -0.0304  0.0387
  169BOLB   C2C 4050   7.627  15.889  17.154  0.2191 -0.0978  0.1417
  169BOLB   C3C 4051   7.631  15.611  17.578 -0.2843 -0.1725  0.1084
  169BOLB   C4C 4052   7.583  15.210  17.743 -0.0826 -0.1841 -0.1216
  169BOLB   C1D 4053   8.164  15.646  16.474 -0.0366  0.1449 -0.2220
  169BOLB   C2D 4054   8.099  15.185  16.595  0.1010  0.4656 -0.1267
  169BOLB   C3D 4055   8.379  14.743  16.660  0.1311 -0.0185  0.0779
  169BOLB   C4D 4056   8.420  14.289  16.758 -0.3200 -0.3721 -0.0250
  170BOLB   NC1 4057  10.605  26.081  16.801  0.0652 -0.3956  0.0061
  170BOLB   PO1 4058  10.572  26.489  16.718 -0.0863  0.1991  0.1353
  170BOLB   GL1 4059  10.842  26.495  17.045  0.0011 -0.0353  0.0835
  170BOLB   GL2 4060  11.172  26.484  17.022  0.0853  0.0729  0.1808
  170BOLB   C1A 4061  10.880  26.443  17.518 -0.1288 -0.0138 -0.1066
  170BOLB   C2A 4062  10.962  26.523  17.954 -0.0660 -0.2552 -0.1712
  170BOLB   C3A 4063  11.154  26.780  18.243 -0.1069 -0.4648  0.2281
  170BOLB   C4A 4064  11.484  27.078  18.269  0.2733 -0.0820 -0.1858
  170BOLB   C1B 4065  11.153  26.859  17.284  0.1107 -0.1570 -0.1667
  170BOLB   C2B 4066  11.353  26.852  17.667  0.0073  0.1173 -0.0369
  170BOLB   C3B 4067  11.778  26.790  17.893 -0.1233 -0.2106 -0.0314
  170BOLB   C4B 4068  12.057  26.783  18.183  0.1712 -0.1401  0.0027
  170BOLB   NC2 4069  12.275  28.946  18.928  0.2068 -0.0700 -0.3061
  170BOLB   PO2 4070  12.721  28.705  19.098  0.1175 -0.0890 -0.0442
  170BOLB   GL3 4071  12.661  28.374  18.706  0.1569 -0.1825 -0.0299
  170BOLB   GL4 4072  12.342  28.388  18.715 -0.0340 -0.2516 -0.2022
  170BOLB   C1C 4073  12.775  27.876  18.565  0.1693 -0.1305 -0.1235
  170BOLB   C2C 4074  12.452  27.521  18.580 -0.0064  0.0520 -0.1417
  170BOLB   C3C 4075  12.225  27.148  18.497 -0.0785 -0.1110  0.2943
  170BOLB   C4C 4076  11.856  27.233  18.386  0.0332 -0.0372 -0.0091
  170BOLB   C1D 4077  12.387  28.042  18.912 -0.0905  0.3325 -0.0772
  170BOLB   C2D 4078  12.684  27.697  18.999 -0.0324 -0.0109 -0.1175
  170BOLB   C3D 4079  12.628  27.259  18.980  0.0757  0.0572  0.0272
  170BOLB   C4D 4080  12.402  26.864  18.883  0.4187 -0.0582  0.3075
  171BOLB   NC1 4081  10.521  20.942   2.394  0.2011 -0.0518  0.1990
  171BOLB   PO1 4082  10.237  21.086   2.614 -0.0106  0.2892 -0.2073
  171BOLB   GL1 4083  10.215  21.301   2.120 -0.0758 -0.1448 -0.0448
  171BOLB   GL2 4084   9.874  21.377   2.074 -0.0754 -0.3547  0.1624
  171BOLB   C1A 4085  10.347  21.596   1.851  0.2175  0.1405  0.1324
  171BOLB   C2A 4086  10.482  21.756   1.448 -0.0547  0.1219 -0.1703
  171BOLB   C3A 4087  10.293  21.538   1.107 -0.2966 -0.1852  0.2966
  171BOLB   C4A 4088  10.340  21.339   0.750  0.1218 -0.0304 -0.0753
  171BOLB   C1B 4089   9.897  21.685   1.592  0.1220 -0.0892 -0.0400
  171BOLB   C2B 4090   9.877  21.610   1.264  0.0977  0.2154 -0.0220
  171BOLB   C3B 4091   9.919  21.723   0.855  0.0849 -0.2194 -0.1547
  171BOLB   C4B 4092  10.045  21.745   0.287  0.2744  0.1182  0.2347
  171BOLB   NC2 4093  12.289  21.029  -1.162 -0.1239 -0.0543 -0.2349
  171BOLB   PO2 4094  11.947  21.341  -1.146  0.3628  0.0145 -0.1656
  171BOLB   GL3 4095  11.785  21.157  -0.776  0.1811  0.2230  0.2159
  171BOLB   GL4 4096  12.074  21.034  -0.683  0.2846 -0.2347  0.2854
  171BOLB   C1C 4097  11.592  21.160  -0.418 -0.0134 -0.1002 -0.0674
  171BOLB   C2C 4098  11.264  21.065  -0.151  0.1031  0.0337  0.0989
  171BOLB   C3C 4099  10.982  21.183   0.192  0.1569  0.2215 -0.3235
  171BOLB   C4C 4100  10.792  21.206   0.605 -0.0652  0.3782 -0.2002
  171BOLB   C1D 4101  12.178  21.101  -0.345  0.2925  0.0878 -0.3784
  171BOLB   C2D 4102  12.258  21.113   0.084  0.0281  0.1157  0.1845
  171BOLB   C3D 4103  12.092  21.249   0.505 -0.1856 -0.0140  0.0127
  171BOLB   C4D 4104  11.820  21.230   0.845  0.0789 -0.0420  0.0337
  172BOLB   NC1 4105   8.729  24.440  22.055 -0.1269  0.1153 -0.2634
  172BOLB   PO1 4106   8.707  24.080  22.325  0.0739  0.1223 -0.3809
  172BOLB   GL1 4107   8.519  23.903  21.915 -0.3337  0.5882  0.0539
  172BOLB   GL2 4108   8.805  23.692  21.694 -0.1424  0.2804  0.0652
  172BOLB   C1A 4109   8.302  23.739  21.588 -0.2425  0.1695 -0.3711
  172BOLB   C2A 4110   8.326  23.508  21.283 -0.1262  0.0239  0.1655
  172BOLB   C3A 4111   8.302  23.721  20.937 -0.1058 -0.0536  0.0681
  172BOLB   C4A 4112   8.487  23.793  20.582 -0.0881 -0.0438 -0.0157
  172BOLB   C1B 4113   8.739  23.777  21.337 -0.1370 -0.1643  0.1399
  172BOLB   C2B 4114   8.582  24.265  21.424  0.2826 -0.3041  0.2272
  172BOLB   C3B 4115   8.296  24.728  21.332 -0.1252 -0.1132 -0.1042
  172BOLB   C4B 4116   7.996  25.014  21.318 -0.0637 -0.1404 -0.0810
  172BOLB   NC2 4117   7.905  23.152  18.018  0.0107  0.3566  0.3440
  172BOLB   PO2 4118   7.855  23.236  18.458 -0.0459 -0.0741  0.2631
  172BOLB   GL3 4119   7.976  23.098  18.851  0.1017  0.0495  0.0110
  172BOLB   GL4 4120   8.098  22.799  18.862 -0.1001  0.4014 -0.0665
  172BOLB   C1C 4121   7.894  23.074  19.279  0.0667 -0.0909 -0.2025
  172BOLB   C2C 4122   7.866  23.127  19.696  0.2780 -0.5901  0.0760
  172BOLB   C3C 4123   8.030  23.226  19.951 -0.2402  0.1817  0.0698
  172BOLB   C4C 4124   8.344  23.587  20.145 -0.2245 -0.2150 -0.1657
  172BOLB   C1D 4125   8.276  22.747  19.207  0.1010  0.3773  0.2719
  172BOLB   C2D 4126   8.564  22.590  19.491  0.1933  0.0055  0.0516
  172BOLB   C3D 4127   8.775  22.654  19.819  0.0489  0.0655  0.2586
  172BOLB   C4D 4128   8.971  22.362  20.072 -0.0510 -0.2643 -0.1794
  173BOLB   NC1 4129   7.067  13.092   7.010 -0.0831  0.1005  0.1938
  173BOLB   PO1 4130   6.832  13.112   6.668  0.1156  0.1266  0.0941
  173BOLB   GL1 4131   7.020  12.755   6.503 -0.2068 -0.0312  0.0601
  173BOLB   GL2 4132   6.802  12.661   6.231  0.1396  0.2475  0.0947
  173BOLB   C1A 4133   7.053  12.316   6.520  0.0360  0.1037  0.3577
  173BOLB   C2A 4134   6.964  11.870   6.596 -0.0935  0.1116  0.4248
  173BOLB   C3A 4135   6.943  11.538   6.821  0.0446  0.2291 -0.2343
  173BOLB   C4A 4136   7.129  11.201   6.804 -0.0577 -0.0451 -0.0399
  173BOLB   C1B 4137   6.918  12.750   5.927 -0.3560 -0.2010 -0.0592
  173BOLB   C2B 4138   7.161  12.752   5.541 -0.2142  0.0705  0.1542
  173BOLB   C3B 4139   7.301  12.426   5.269  0.2685  0.2155  0.0630
  173BOLB   C4B 4140   7.548  12.250   4.969  0.0128 -0.1947 -0.3522
  173BOLB   NC2 4141   7.664   8.977   7.037 -0.1665 -0.0410  0.1290
  173BOLB   PO2 4142   7.951   8.856   6.620  0.3300 -0.1977 -0.1435
  173BOLB   GL3 4143   7.878   9.296   6.645 -0.0810  0.0742 -0.0534
  173BOLB   GL4 4144   7.485   9.376   6.435  0.3200 -0.0491  0.0080
  173BOLB   C1C 4145   7.711   9.746   6.868 -0.2177  0.1242 -0.3164
  173BOLB   C2C 4146   7.512  10.041   7.076 -0.2181 -0.2996  0.0112
  173BOLB   C3C 4147   7.270  10.357   6.928 -0.1169  0.0988 -0.1490
  173BOLB   C4C 4148   7.118  10.811   7.037 -0.3576  0.0320  0.0695
  173BOLB   C1D 4149   7.116   9.704   6.679 -0.0461 -0.1297 -0.2805
  173BOLB   C2D 4150   6.658   9.660   6.681  0.2823 -0.0551 -0.0591
  173BOLB   C3D 4151   6.244   9.741   6.786  0.1721 -0.2263  0.3411
  173BOLB   C4D 4152   5.927   9.852   7.081 -0.0451 -0.0430  0.0621
  174BOLB   NC1 4153   2.569  22.984   3.660 -0.1639 -0.1815 -0.0824
  174BOLB   PO1 4154   2.167  22.565   3.739  0.1488  0.2330 -0.0463
  174BOLB   GL1 4155   2.016  22.522   3.311 -0.2683 -0.0124  0.0182
  174BOLB   GL2 4156   2.177  22.295   3.010  0.0020  0.5505 -0.0533
  174BOLB   C1A 4157   1.708  22.635   3.027 -0.2102 -0.0110 -0.0690
  174BOLB   C2A 4158   1.347  22.837   2.940 -0.1373 -0.0564 -0.4565
  174BOLB   C3A 4159   0.901  22.762   2.930 -0.2010  0.1378 -0.2779
  174BOLB   C4A 4160   0.613  22.806   2.589  0.1115 -0.3170  0.1154
  174BOLB   C1B 4161   2.078  22.344   2.644 -0.3182 -0.0886  0.1603
  174BOLB   C2B 4162   1.813  22.617   2.312  0.2758  0.0466  0.0201
  174BOLB   C3B 4163   1.644  22.942   2.071 -0.1499  0.1358  0.0056
  174BOLB   C4B 4164   1.302  23.091   1.936 -0.0411  0.1373  0.2560
  174BOLB   NC2 4165   0.046  22.576   0.553 -0.0104  0.1998  0.3779
  174BOLB   PO2 4166   0.152  22.163   0.429  0.1163  0.0578 -0.1179
  174BOLB   GL3 4167   0.071  21.985   0.877  0.1528 -0.1142 -0.0032
  174BOLB   GL4 4168  -0.005  21.707   0.948 -0.2165 -0.2969  0.2931
  174BOLB   C1C 4169   0.221  21.996   1.288 -0.3100 -0.0431  0.1242
  174BOLB   C2C 4170   0.405  22.317   1.468 -0.0743  0.2260 -0.3021
  174BOLB   C3C 4171   0.625  22.569   1.673  0.0239  0.0331 -0.4196
  174BOLB   C4C 4172   0.488  22.681   2.119  0.0147  0.0388  0.0407
  174BOLB   C1D 4173   0.097  21.397   1.131  0.2160  0.1473 -0.1606
  174BOLB   C2D 4174   0.434  21.039   1.136 -0.0417 -0.1712  0.2917
  174BOLB   C3D 4175   0.821  21.082   1.350  0.0051 -0.3344 -0.0430
  174BOLB   C4D 4176   1.311  21.107   1.503  0.0525 -0.0032  0.0221
  175BOLB   NC1 4177  11.650  19.276  16.741 -0.1517 -0.0049 -0.0740
  175BOLB   PO1 4178  11.860  19.453  16.439  0.2372  0.2607 -0.0146
  175BOLB   GL1 4179  12.134  19.434  16.745 -0.1101 -0.3862  0.2048
  175BOLB   GL2 4180  12.365  19.741  16.658  0.3736  0.0047 -0.0460
  175BOLB   C1A 4181  12.269  19.492  17.069 -0.0108 -0.3399 -0.1188
  175BOLB   C2A 4182  12.684  19.556  17.294  0.3822 -0.1259  0.1188
  175BOLB   C3A 4183  13.158  19.421  17.281 -0.2957  0.0569 -0.2784
  175BOLB   C4A 4184  13.591  19.222  17.112 -0.0087 -0.2528 -0.0555
  175BOLB   C1B 4185  12.790  19.574  16.791  0.3074  0.0123  0.0387
  175BOLB   C2B 4186  13.180  19.767  16.911 -0.1931 -0.0224 -0.4016
  175BOLB   C3B 4187  13.535  19.777  17.346 -0.0945 -0.0090  0.1448
  175BOLB   C4B 4188  13.398  19.950  17.759  0.1089  0.3486 -0.4600
  175BOLB   NC2 4189  15.570  19.568  19.048  0.0863 -0.2587 -0.1534
  175BOLB   PO2 4190  15.121  19.500  19.065  0.0537 -0.1500 -0.0525
  175BOLB   GL3 4191  14.813  19.400  18.883 -0.0991  0.0205 -0.5126
  175BOLB   GL4 4192  14.540  19.320  19.075 -0.1637  0.0807  0.3609
  175BOLB   C1C 4193  14.616  19.278  18.411 -0.4176  0.2473 -0.1915
  175BOLB   C2C 4194  14.458  19.357  18.016 -0.0934  0.1530 -0.1309
  175BOLB   C3C 4195  14.275  19.123  17.683 -0.0045 -0.0328  0.0473
  175BOLB   C4C 4196  13.971  19.013  17.289 -0.0355 -0.0225 -0.1947
  175BOLB   C1D 4197  14.301  19.403  18.796 -0.1565 -0.2050 -0.2029
  175BOLB   C2D 4198  14.154  19.503  18.435  0.1878 -0.3295 -0.0310
  175BOLB   C3D 4199  13.963  19.415  18.022 -0.0517  0.2780  0.0740
  175BOLB   C4D 4200  13.836  19.427  17.637  0.0599 -0.2461  0.0023
  176BOLB   NC1 4201  14.944  22.988  10.327  0.1625  0.1929 -0.4361
  176BOLB   PO1 4202  14.755  23.376  10.284  0.2095  0.1329 -0.0080
  176BOLB   GL1 4203  15.171  23.465  10.284 -0.0673 -0.1842 -0.2771
  176BOLB   GL2 4204  15.196  23.786  10.414  0.0339  0.2137  0.0177
  176BOLB   C1A 4205  15.515  23.537  10.208 -0.1649 -0.0178  0.0594
  176BOLB   C2A 4206  15.969  23.785  10.352 -0.3197  0.0065  0.1403
  176BOLB   C3A 4207  16.372  23.883  10.295  0.2531  0.1999 -0.1433
  176BOLB   C4A 4208  16.705  23.857  10.685 -0.3164 -0.0090 -0.1817
  176BOLB   C1B 4209  15.521  24.001  10.608 -0.0491  0.2800  0.2812
  176BOLB   C2B 4210  15.862  24.055  10.791  0.2812  0.0849 -0.0217
  176BOLB   C3B 4211  16.281  24.114  10.887 -0.1389 -0.4056  0.1816
  176BOLB   C4B 4212  16.631  24.069  11.196 -0.2736  0.2161 -0.0146
  176BOLB   NC2 4213  18.749  23.115  10.820 -0.1984  0.0482 -0.0133
  176BOLB   PO2 4214  18.709  23.441  11.233  0.3224 -0.1710  0.1963
  176BOLB   GL3 4215  18.357  23.195  11.299 -0.0797 -0.0198  0.6679
  176BOLB   GL4 4216  18.096  23.463  11.428 -0.3869 -0.1451  0.3774
  176BOLB   C1C 4217  18.060  23.150  10.966  0.0031 -0.1069 -0.2335
  176BOLB   C2C 4218  17.786  23.267  10.840  0.0028  0.0620 -0.0947
  176BOLB   C3C 4219  17.485  23.463  10.731 -0.3842 -0.1586 -0.0336
  176BOLB   C4C 4220  17.082  23.712  10.650 -0.0208  0.0202 -0.1706
  176BOLB   C1D 4221  17.819  23.324  11.607  0.0126  0.4586  0.2372
  176BOLB   C2D 4222  17.554  23.036  11.703  0.0862 -0.1393  0.2492
  176BOLB   C3D 4223  17.309  23.229  11.736  0.1807  0.1729  0.1747
  176BOLB   C4D 4224  16.916  23.177  11.567 -0.1758 -0.0269 -0.3075
  177BOLB   NC1 4225  10.319  27.558   8.276  0.2337 -0.0422  0.0368
  177BOLB   PO1 4226  10.237  27.592   7.921  0.0691 -0.2800 -0.0464
  177BOLB   GL1 4227  10.413  28.162   7.871 -0.2085  0.1736  0.1170
  177BOLB   GL2 4228  10.418  28.292   7.476  0.1417  0.2337  0.0307
  177BOLB   C1A 4229  10.872  28.360   7.774  0.3131  0.0773 -0.0529
  177BOLB   C2A 4230  11.274  28.473   7.418 -0.1941  0.1565  0.0700
  177BOLB   C3A 4231  11.551  28.600   7.138  0.1470  0.0741  0.0215
  177BOLB   C4A 4232  11.667  28.982   7.017 -0.1743 -0.0581  0.0147
  177BOLB   C1B 4233  10.826  28.292   7.264  0.4249 -0.2121  0.0448
  177BOLB   C2B 4234  11.188  28.320   6.942 -0.1162 -0.3416  0.1637
  177BOLB   C3B 4235  11.554  28.521   6.642  0.0339  0.1347  0.0214
  177BOLB   C4B 4236  11.843  28.769   6.539 -0.1429 -0.1377 -0.3091
  177BOLB   NC2 4237  12.830  30.598   6.073 -0.0078 -0.2587 -0.1118
  177BOLB   PO2 4238  12.955  30.841   6.412 -0.2562  0.1665  0.2718
  177BOLB   GL3 4239  12.694  30.478   6.646  0.0536 -0.3212  0.2955
  177BOLB   GL4 4240  12.451  30.444   6.443 -0.2099 -0.1445  0.1593
  177BOLB   C1C 4241  12.674  30.010   6.563 -0.2784  0.2792  0.1448
  177BOLB   C2C 4242  12.387  29.769   6.319 -0.1444 -0.0429  0.2193
  177BOLB   C3C 4243  12.099  29.394   6.484  0.1647 -0.0976  0.0491
  177BOLB   C4C 4244  11.833  29.200   6.750 -0.0919 -0.0739 -0.0804
  177BOLB   C1D 4245  12.198  30.098   6.720 -0.0143 -0.0283 -0.1627
  177BOLB   C2D 4246  11.914  29.801   6.922  0.3297  0.2278 -0.0642
  177BOLB   C3D 4247  11.643  29.557   7.075 -0.0260  0.0279 -0.2690
  177BOLB   C4D 4248  11.974  29.352   7.271 -0.3682 -0.1863 -0.2008
  178BOLB   NC1 4249  11.820  14.975   8.135  0.4826  0.1960  0.0914
  178BOLB   PO1 4250  11.466  14.785   8.059 -0.4003  0.0873 -0.1831
  178BOLB   GL1 4251  11.633  14.421   7.731 -0.0966 -0.1028 -0.0375
  178BOLB   GL2 4252  11.349  14.328   7.506 -0.1037 -0.0470 -0.0344
  178BOLB   C1A 4253  11.908  14.334   7.355  0.3174 -0.0399 -0.1363
  178BOLB   C2A 4254  12.141  14.044   7.100  0.1882  0.0617 -0.1650
  178BOLB   C3A 4255  12.464  13.756   7.003 -0.3029  0.1890  0.2203
  178BOLB   C4A 4256  12.878  13.782   6.693  0.0197  0.2751 -0.0218
  178BOLB   C1B 4257  11.595  13.993   7.462  0.1108  0.0573 -0.1470
  178BOLB   C2B 4258  11.700  13.603   7.213  0.1748  0.2490 -0.1307
  178BOLB   C3B 4259  11.448  13.229   7.195  0.4124  0.0884  0.1804
  178BOLB   C4B 4260  11.612  12.888   7.260 -0.1538 -0.1103  0.1101
  178BOLB   NC2 4261  15.125  13.035   5.578 -0.0593  0.1814 -0.1217
  178BOLB   PO2 4262  15.349  13.433   5.793 -0.2597  0.0867 -0.0488
  178BOLB   GL3 4263  14.876  13.388   5.840 -0.0169 -0.1425  0.0762
  178BOLB   GL4 4264  14.707  13.363   5.623 -0.2084  0.0590  0.1574
  178BOLB   C1C 4265  14.420  13.473   6.004  0.2361  0.0086 -0.2874
  178BOLB   C2C 4266  13.903  13.505   5.887 -0.0340 -0.0290 -0.0665
  178BOLB   C3C 4267  13.533  13.652   6.048  0.0574  0.1006 -0.1553
  178BOLB   C4C 4268  13.207  13.831   6.431 -0.0483  0.2514 -0.2035
  178BOLB   C1D 4269  14.361  13.493   5.487 -0.0864 -0.0245 -0.1014
  178BOLB   C2D 4270  14.057  13.818   5.559 -0.0098 -0.3440  0.1643
  178BOLB   C3D 4271  13.809  14.001   5.802  0.0272  0.1334  0.2014
  178BOLB   C4D 4272  13.964  14.221   6.065  0.0749  0.0169 -0.1797
  179BOLB   NC1 4273  13.640  28.226   3.177  0.4051  0.1596  0.1001
  179BOLB   PO1 4274  13.406  27.941   2.914  0.0429 -0.0236 -0.0832
  179BOLB   GL1 4275  13.211  27.817   3.288 -0.1164  0.0359 -0.2220
  179BOLB   GL2 4276  13.080  27.550   3.163  0.0110  0.3288 -0.1199
  179BOLB   C1A 4277  13.255  27.793   3.854 -0.0959 -0.1266  0.1763
  179BOLB   C2A 4278  12.952  27.888   4.219 -0.2847 -0.0492  0.0446
  179BOLB   C3A 4279  12.665  27.597   4.514  0.0877  0.0471 -0.0363
  179BOLB   C4A 4280  12.594  27.351   4.820  0.0691 -0.1447 -0.1286
  179BOLB   C1B 4281  13.300  27.175   3.239 -0.0692 -0.2253  0.0395
  179BOLB   C2B 4282  13.158  26.782   3.291  0.2713 -0.1723 -0.1326
  179BOLB   C3B 4283  12.918  26.460   3.103 -0.0413 -0.1454  0.0479
  179BOLB   C4B 4284  12.900  26.059   3.055  0.2562  0.3167  0.1870
  179BOLB   NC2 4285  11.356  26.498   6.973  0.1230  0.2328  0.0285
  179BOLB   PO2 4286  11.555  26.154   7.063 -0.1605 -0.2220 -0.0524
  179BOLB   GL3 4287  11.740  26.489   6.667  0.2475  0.0786 -0.1008
  179BOLB   GL4 4288  11.990  26.408   6.824  0.4660 -0.0208  0.0870
  179BOLB   C1C 4289  11.896  26.633   6.303  0.0304 -0.0859  0.0468
  179BOLB   C2C 4290  11.932  26.876   5.839  0.1817 -0.1970 -0.2580
  179BOLB   C3C 4291  12.248  27.155   5.459  0.0362  0.0059  0.1510
  179BOLB   C4C 4292  12.449  27.344   5.173  0.1817  0.0236 -0.0346
  179BOLB   C1D 4293  12.276  26.606   6.577  0.0661 -0.3677  0.1015
  179BOLB   C2D 4294  12.473  26.842   6.248 -0.1285  0.0132 -0.0625
  179BOLB   C3D 4295  12.786  27.155   6.100 -0.3394 -0.0616 -0.1923
  179BOLB   C4D 4296  13.087  27.404   5.875  0.2536 -0.0837 -0.3837
  180BOLB   NC1 4297   2.153  18.761  21.702 -0.0045  0.0846 -0.0241
  180BOLB   PO1 4298   2.311  19.139  21.679  0.1505 -0.1866 -0.0953
  180BOLB   GL1 4299   2.178  19.044  21.320  0.0772  0.1310 -0.0696
  180BOLB   GL2 4300   2.333  19.335  21.193 -0.0031  0.0150  0.3945
  180BOLB   C1A 4301   1.876  19.000  20.908  0.0791 -0.3159  0.2739
  180BOLB   C2A 4302   1.932  19.058  20.459 -0.2268 -0.2003  0.3090
  180BOLB   C3A 4303   1.931  19.117  19.994  0.1299  0.1897 -0.4261
  180BOLB   C4A 4304   1.800  18.970  19.640  0.4659 -0.0535 -0.1580
  180BOLB   C1B 4305   2.416  19.259  20.784 -0.0069  0.0966 -0.1287
  180BOLB   C2B 4306   2.741  19.366  20.364  0.0917 -0.0785 -0.2816
  180BOLB   C3B 4307   2.779  19.623  19.945  0.0240  0.3890  0.0786
  180BOLB   C4B 4308   3.070  19.886  19.688  0.0584 -0.3113  0.0372
  180BOLB   NC2 4309   3.000  19.342  17.720  0.0945  0.0093 -0.1542
  180BOLB   PO2 4310   3.451  19.363  17.659  0.2443  0.0199  0.1837
  180BOLB   GL3 4311   3.360  19.388  18.132  0.0601 -0.3912 -0.0318
  180BOLB   GL4 4312   3.572  19.416  18.297 -0.3235  0.1762 -0.0864
  180BOLB   C1C 4313   2.982  19.315  18.400 -0.2679 -0.0085  0.2648
  180BOLB   C2C 4314   2.643  19.105  18.623  0.0148  0.1153  0.1113
  180BOLB   C3C 4315   2.440  18.851  19.003  0.0267 -0.1326 -0.1189
  180BOLB   C4C 4316   2.083  18.803  19.334  0.0059  0.2571  0.1518
  180BOLB   C1D 4317   3.562  19.524  18.679  0.1766  0.0318  0.1552
  180BOLB   C2D 4318   3.589  19.332  19.065  0.0790 -0.0783  0.4029
  180BOLB   C3D 4319   3.461  19.512  19.455 -0.1269  0.0707  0.3104
  180BOLB   C4D 4320   3.474  19.644  19.869  0.0191 -0.2460  0.3324
  181BOLB   NC1 4321  12.520  25.851   7.526 -0.1999  0.0536 -0.0120
  181BOLB   PO1 4322  12.290  25.837   7.889 -0.1331 -0.1577 -0.3941
  181BOLB   GL1 4323  12.501  26.290   7.795  0.0013 -0.0450 -0.1189
  181BOLB   GL2 4324  12.862  26.335   7.731 -0.1705  0.0766  0.1227
  181BOLB   C1A 4325  12.579  26.657   7.502 -0.0611 -0.1853 -0.0910
  181BOLB   C2A 4326  12.740  27.045   7.432 -0.1040 -0.2363 -0.0213
  181BOLB   C3A 4327  13.093  27.402   7.398  0.0646 -0.4950  0.3103
  181BOLB   C4A 4328  13.417  27.707   7.319  0.3312 -0.2390 -0.2197
  181BOLB   C1B 4329  13.191  26.465   7.534 -0.0113 -0.0967  0.0298
  181BOLB   C2B 4330  13.485  26.559   7.127 -0.2459 -0.1139 -0.3259
  181BOLB   C3B 4331  13.777  26.688   6.845 -0.0351 -0.1541 -0.0095
  181BOLB   C4B 4332  13.987  27.094   6.765 -0.0348 -0.1039 -0.0333
  181BOLB   NC2 4333  15.162  29.671   7.075  0.1310 -0.3075  0.0646
  181BOLB   PO2 4334  14.921  29.632   7.393  0.1036  0.0860 -0.0867
  181BOLB   GL3 4335  14.590  29.186   7.535 -0.3417  0.3578 -0.2721
  181BOLB   GL4 4336  14.466  29.161   7.277  0.2618 -0.1141 -0.2322
  181BOLB   C1C 4337  14.495  28.860   7.698 -0.1068 -0.0386 -0.3836
  181BOLB   C2C 4338  14.528  28.434   7.534  0.1399  0.1949  0.1235
  181BOLB   C3C 4339  14.124  28.162   7.458 -0.0594 -0.0330  0.4706
  181BOLB   C4C 4340  13.744  27.932   7.187  0.4547 -0.1741  0.0470
  181BOLB   C1D 4341  14.042  29.084   7.396 -0.0424 -0.1728  0.5241
  181BOLB   C2D 4342  13.735  29.044   7.221 -0.2103  0.2798 -0.2274
  181BOLB   C3D 4343  13.359  28.685   7.069 -0.0491 -0.1252 -0.1270
  181BOLB   C4D 4344  13.194  28.516   7.446 -0.3906  0.2422 -0.1452
  182BOLB   NC1 4345  11.398  10.369   7.395 -0.3238  0.1105 -0.0229
  182BOLB   PO1 4346  11.275  10.346   7.030 -0.1615 -0.2520  0.2146
  182BOLB   GL1 4347  11.141  10.733   7.099  0.0771  0.1883  0.1482
  182BOLB   GL2 4348  10.811  10.711   7.059  0.1370  0.0254 -0.1189
  182BOLB   C1A 4349  10.999  10.939   7.489 -0.0995  0.0630 -0.0278
  182BOLB   C2A 4350  11.070  11.255   7.675  0.0642  0.1064 -0.1595
  182BOLB   C3A 4351  11.131  11.454   8.042  0.2623 -0.2600  0.1330
  182BOLB   C4A 4352  11.120  11.833   8.288 -0.2358 -0.0496  0.1695
  182BOLB   C1B 4353  10.476  10.883   6.933 -0.1387 -0.2007 -0.0269
  182BOLB   C2B 4354   9.934  10.793   6.849 -0.1646  0.2966  0.0050
  182BOLB   C3B 4355   9.740  10.384   6.836  0.0757  0.0901  0.1227
  182BOLB   C4B 4356   9.251  10.257   6.986 -0.0087 -0.1080 -0.0664
  182BOLB   NC2 4357   8.916  13.603   7.536 -0.4553  0.0393 -0.3827
  182BOLB   PO2 4358   9.295  13.378   7.716  0.0697  0.0349  0.4322
  182BOLB   GL3 4359   9.388  13.050   8.001 -0.4317 -0.0290 -0.0636
  182BOLB   GL4 4360   9.242  12.776   7.967  0.2081 -0.1396 -0.3750
  182BOLB   C1C 4361   9.658  12.731   8.206  0.1039 -0.1086  0.0043
  182BOLB   C2C 4362  10.029  12.683   8.374 -0.0056 -0.1755 -0.0272
  182BOLB   C3C 4363  10.405  12.381   8.347  0.0596  0.1237  0.2711
  182BOLB   C4C 4364  10.837  12.131   8.262  0.0609  0.2285  0.0254
  182BOLB   C1D 4365   9.554  12.651   7.703 -0.0473  0.0918  0.0430
  182BOLB   C2D 4366   9.589  12.430   7.316  0.1453 -0.1157  0.0824
  182BOLB   C3D 4367   9.704  12.335   6.918 -0.1681 -0.2373  0.0916
  182BOLB   C4D 4368   9.766  11.858   6.748 -0.1125 -0.0434  0.2108
  183BOLB   NC1 4369   2.948  14.187  20.032  0.0674  0.1855  0.1146
  183BOLB   PO1 4370   2.604  13.944  19.970 -0.2028 -0.0651 -0.1507
  183BOLB   GL1 4371   2.501  14.147  19.552  0.1281 -0.0259  0.0914
  183BOLB   GL2 4372   2.766  14.442  19.610 -0.0126 -0.1397  0.0593
  183BOLB   C1A 4373   2.234  14.256  19.261 -0.1646 -0.4031  0.0767
  183BOLB   C2A 4374   1.941  14.417  19.059  0.1468  0.0303  0.2003
  183BOLB   C3A 4375   1.491  14.467  18.940 -0.0952  0.4569 -0.2291
  183BOLB   C4A 4376   1.170  14.210  18.890 -0.0556 -0.1234  0.0493
  183BOLB   C1B 4377   2.555  14.635  19.364  0.1932 -0.2986 -0.0117
  183BOLB   C2B 4378   2.352  14.722  19.043 -0.2020 -0.0456 -0.1034
  183BOLB   C3B 4379   2.221  14.563  18.626  0.1457 -0.0310 -0.2047
  183BOLB   C4B 4380   2.322  14.369  18.179  0.0992  0.0053  0.1115
  183BOLB   NC2 4381   1.024  13.972  21.584 -0.3120 -0.1130  0.0253
  183BOLB   PO2 4382   1.088  13.925  21.153  0.3451 -0.1164 -0.3398
  183BOLB   GL3 4383   0.823  13.865  20.807 -0.2793  0.1526 -0.1032
  183BOLB   GL4 4384   0.691  14.206  20.722  0.1208 -0.2956 -0.0326
  183BOLB   C1C 4385   0.846  13.713  20.457 -0.0646 -0.2111  0.1269
  183BOLB   C2C 4386   0.931  13.642  19.991  0.0097  0.1157 -0.2245
  183BOLB   C3C 4387   0.854  13.773  19.533  0.1710 -0.0527 -0.2403
  183BOLB   C4C 4388   0.927  13.966  19.183  0.0177 -0.0887 -0.3224
  183BOLB   C1D 4389   0.546  14.099  20.329  0.0708 -0.1971  0.0639
  183BOLB   C2D 4390   0.192  14.356  19.982  0.4050 -0.0117 -0.0605
  183BOLB   C3D 4391   0.003  14.262  19.585  0.3272 -0.2674  0.1273
  183BOLB   C4D 4392  -0.401  14.185  19.449 -0.2549  0.5740 -0.1820
  184BOLB   NC1 4393  38.255  19.945  20.807 -0.1924  0.0854  0.1343
  184BOLB   PO1 4394  38.399  20.294  20.616 -0.2092  0.1681 -0.0469
  184BOLB   GL1 4395  38.438  20.368  20.198 -0.1505  0.0744  0.2089
  184BOLB   GL2 4396  38.487  20.685  20.251 -0.1494 -0.1927 -0.0170
  184BOLB   C1A 4397  38.236  20.254  19.809  0.1027 -0.1301 -0.2531
  184BOLB   C2A 4398  38.223  20.288  19.372 -0.0200  0.0859  0.2321
  184BOLB   C3A 4399  38.243  20.230  18.873 -0.1524  0.0585  0.1354
  184BOLB   C4A 4400  38.413  20.284  18.412 -0.1590 -0.1414  0.0073
  184BOLB   C1B 4401  38.764  20.784  19.890  0.0510  0.0063  0.2805
  184BOLB   C2B 4402  38.664  20.274  19.628 -0.0547 -0.2252  0.0723
  184BOLB   C3B 4403  38.648  20.007  19.253  0.1058  0.0233 -0.0471
  184BOLB   C4B 4404  38.753  19.822  18.915 -0.3328 -0.3286 -0.2009
  184BOLB   NC2 4405  39.964  20.026  16.549  0.2258  0.1764  0.0276
  184BOLB   PO2 4406  39.518  19.888  16.277  0.1634  0.2958 -0.2248
  184BOLB   GL3 4407  39.123  19.961  16.579  0.4180 -0.0468 -0.0377
  184BOLB   GL4 4408  38.905  19.828  16.350 -0.3973 -0.0589  0.0661
  184BOLB   C1C 4409  39.000  19.980  16.981 -0.1035 -0.2291  0.0883
  184BOLB   C2C 4410  39.023  20.229  17.407  0.0027  0.2530 -0.0018
  184BOLB   C3C 4411  38.779  20.271  17.720 -0.3466 -0.1753  0.2922
  184BOLB   C4C 4412  38.675  20.125  18.082  0.2117 -0.4857 -0.0721
  184BOLB   C1D 4413  38.518  19.870  16.400 -0.0551 -0.1054 -0.1928
  184BOLB   C2D 4414  38.153  19.858  16.545 -0.0369  0.5161 -0.1306
  184BOLB   C3D 4415  38.110  19.497  16.676 -0.1451  0.0629 -0.0065
  184BOLB   C4D 4416  37.805  19.395  16.918 -0.2626 -0.1172 -0.0586
  185BOLB   NC1 4417  10.893  18.236  16.523  0.1547 -0.0373  0.1262
  185BOLB   PO1 4418  10.866  17.783  16.524 -0.2126 -0.1352  0.0450
  185BOLB   GL1 4419  11.265  17.844  16.634 -0.5434 -0.2058  0.0198
  185BOLB   GL2 4420  11.364  18.180  16.672 -0.0457  0.2656 -0.0725
  185BOLB   C1A 4421  11.632  17.651  16.769  0.1215  0.1581 -0.2221
  185BOLB   C2A 4422  11.995  17.422  16.996  0.1028 -0.0534  0.0528
  185BOLB   C3A 4423  12.271  17.287  17.303  0.0551 -0.2226  0.1019
  185BOLB   C4A 4424  12.707  17.247  17.681  0.0783  0.1913  0.3244
  185BOLB   C1B 4425  11.705  18.062  16.990 -0.1022  0.4269 -0.1186
  185BOLB   C2B 4426  12.035  17.916  17.126 -0.1578 -0.3855  0.0814
  185BOLB   C3B 4427  12.254  17.816  17.503 -0.2771 -0.0118 -0.0010
  185BOLB   C4B 4428  12.245  18.079  17.926 -0.1165  0.1101  0.0505
  185BOLB   NC2 4429  13.904  15.834  19.054 -0.0171  0.1619 -0.0636
  185BOLB   PO2 4430  13.696  16.091  19.223  0.2576 -0.0630 -0.0951
  185BOLB   GL3 4431  13.399  16.393  18.988 -0.2769  0.1316  0.0827
  185BOLB   GL4 4432  13.023  16.362  18.825 -0.2666 -0.3837  0.0791
  185BOLB   C1C 4433  13.436  16.477  18.601 -0.0010 -0.0194  0.2266
  185BOLB   C2C 4434  13.501  16.899  18.423  0.0688 -0.1994  0.5123
  185BOLB   C3C 4435  13.306  17.188  18.138 -0.3227 -0.0940  0.2051
  185BOLB   C4C 4436  13.038  17.186  17.877  0.0199  0.0168 -0.3292
  185BOLB   C1D 4437  12.955  16.547  18.313  0.1218  0.1773 -0.0857
  185BOLB   C2D 4438  12.888  16.638  17.880  0.1688  0.2745  0.1814
  185BOLB   C3D 4439  12.751  16.499  17.466  0.1355 -0.5561  0.1465
  185BOLB   C4D 4440  12.394  16.509  17.198 -0.3652  0.1493 -0.0709
  186BOLB   NC1 4441  12.183  25.788  21.010 -0.1950  0.2357 -0.1716
  186BOLB   PO1 4442  12.503  25.969  20.709  0.2547 -0.1940  0.0717
  186BOLB   GL1 4443  12.282  25.854  20.364 -0.1900  0.0314 -0.0868
  186BOLB   GL2 4444  12.555  25.647  20.322 -0.1603 -0.4249  0.0802
  186BOLB   C1A 4445  12.031  25.923  20.054  0.0361 -0.1581  0.2775
  186BOLB   C2A 4446  11.698  25.844  19.741  0.1348  0.0932  0.0037
  186BOLB   C3A 4447  11.316  25.602  19.856 -0.1339  0.3341 -0.1053
  186BOLB   C4A 4448  11.042  25.267  19.956 -0.1269 -0.1183 -0.1242
  186BOLB   C1B 4449  12.283  25.457  20.125  0.1411  0.2779 -0.1173
  186BOLB   C2B 4450  12.190  25.158  19.852 -0.2692 -0.0466  0.1398
  186BOLB   C3B 4451  12.393  24.781  19.578 -0.0108 -0.2136 -0.1349
  186BOLB   C4B 4452  12.523  24.871  19.083 -0.1330  0.2872 -0.1281
  186BOLB   NC2 4453  11.813  25.038  22.104  0.1773 -0.1121 -0.0037
  186BOLB   PO2 4454  11.403  24.908  21.931  0.2128  0.0257 -0.3265
  186BOLB   GL3 4455  11.196  25.136  21.574  0.3278  0.0239 -0.1130
  186BOLB   GL4 4456  11.369  25.445  21.324 -0.1170 -0.0775  0.2397
  186BOLB   C1C 4457  11.002  25.096  21.130 -0.0392 -0.0134 -0.0159
  186BOLB   C2C 4458  10.768  24.926  20.800 -0.1373 -0.2410  0.1613
  186BOLB   C3C 4459  10.676  24.759  20.514 -0.0881 -0.1664  0.0032
  186BOLB   C4C 4460  10.721  24.945  20.128 -0.0834  0.0257 -0.4107
  186BOLB   C1D 4461  11.422  25.349  20.849 -0.2003  0.1067 -0.0870
  186BOLB   C2D 4462  11.328  25.118  20.436 -0.2904  0.1966  0.0410
  186BOLB   C3D 4463  11.128  24.785  20.388  0.0296  0.4019  0.3003
  186BOLB   C4D 4464  11.006  24.549  20.130 -0.0752  0.1213  0.1435
  187BOLB   NC1 4465   2.929  21.741  22.423  0.0714 -0.1294  0.4639
  187BOLB   PO1 4466   2.851  22.224  22.335  0.0645 -0.0932 -0.0725
  187BOLB   GL1 4467   3.241  22.259  22.077  0.0052 -0.1449  0.1585
  187BOLB   GL2 4468   3.586  22.302  22.139 -0.1154 -0.2093  0.1860
  187BOLB   C1A 4469   3.317  22.449  21.697  0.0225 -0.1642 -0.2715
  187BOLB   C2A 4470   3.438  22.298  21.207 -0.0499  0.0593 -0.1617
  187BOLB   C3A 4471   3.757  22.330  20.940 -0.4624  0.1405 -0.1717
  187BOLB   C4A 4472   4.147  22.152  20.711  0.0552  0.1679  0.0647
  187BOLB   C1B 4473   3.617  22.062  21.761  0.0967 -0.1482  0.3706
  187BOLB   C2B 4474   3.600  21.871  21.257 -0.3134 -0.0664 -0.0904
  187BOLB   C3B 4475   3.594  21.830  20.824 -0.2256 -0.1829 -0.0690
  187BOLB   C4B 4476   3.347  21.898  20.488 -0.3017  0.1817  0.0354
  187BOLB   NC2 4477   4.300  21.742  18.374  0.0490 -0.0309 -0.0894
  187BOLB   PO2 4478   4.150  21.433  18.625 -0.1338  0.0665  0.1821
  187BOLB   GL3 4479   4.092  21.691  19.039  0.0010 -0.2093  0.0581
  187BOLB   GL4 4480   3.671  21.693  19.216 -0.0739 -0.1109 -0.1540
  187BOLB   C1C 4481   4.120  21.686  19.496 -0.1030  0.3519  0.0979
  187BOLB   C2C 4482   4.301  21.905  19.701  0.2980  0.0038 -0.0546
  187BOLB   C3C 4483   4.440  22.005  20.149 -0.1518 -0.3070 -0.1798
  187BOLB   C4C 4484   4.348  22.190  20.478  0.2196 -0.2470 -0.1553
  187BOLB   C1D 4485   3.675  21.861  19.680 -0.0222 -0.0144 -0.3225
  187BOLB   C2D 4486   3.932  21.998  20.030 -0.1130 -0.0970 -0.0869
  187BOLB   C3D 4487   3.959  21.857  20.332 -0.2309 -0.4969  0.1669
  187BOLB   C4D 4488   3.991  21.454  20.461  0.0730  0.0431  0.3428
  188BOLB   NC1 4489   9.100  23.064  22.401 -0.1103 -0.1362 -0.1619
  188BOLB   PO1 4490   8.854  22.656  22.492  0.1354 -0.0474 -0.0489
  188BOLB   GL1 4491   8.857  22.799  22.028  0.0503  0.1059 -0.2484
  188BOLB   GL2 4492   8.986  23.134  21.917  0.2884  0.2705  0.2501
  188BOLB   C1A 4493   8.638  22.768  21.731 -0.0569  0.2288 -0.1812
  188BOLB   C2A 4494   8.595  22.539  21.382  0.1453  0.0259 -0.1019
  188BOLB   C3A 4495   8.502  22.551  20.919  0.1140 -0.2188 -0.2204
  188BOLB   C4A 4496   8.406  22.185  20.624  0.0994 -0.1251 -0.1746
  188BOLB   C1B 4497   9.141  22.902  21.535 -0.0078 -0.2728 -0.1117
  188BOLB   C2B 4498   9.420  22.888  21.217 -0.0401 -0.1076  0.0860
  188BOLB   C3B 4499   9.667  22.801  20.943 -0.3766 -0.3576  0.1910
  188BOLB   C4B 4500   9.943  23.091  20.676  0.0831 -0.0040  0.2712
  188BOLB   NC2 4501   8.462  21.348  18.196  0.0073  0.1641 -0.0665
  188BOLB   PO2 4502   9.043  21.350  18.290 -0.1305 -0.1973  0.2548
  188BOLB   GL3 4503   9.184  21.398  18.760  0.2437  0.1208  0.1556
  188BOLB   GL4 4504   9.481  21.224  18.810  0.2755  0.0560 -0.2858
  188BOLB   C1C 4505   9.010  21.692  19.077 -0.0616  0.2005  0.1315
  188BOLB   C2C 4506   9.043  21.709  19.507  0.0377  0.2803 -0.2071
  188BOLB   C3C 4507   8.859  21.917  19.863 -0.0243  0.1097 -0.2042
  188BOLB   C4C 4508   8.589  22.086  20.277  0.0827  0.0836  0.0089
  188BOLB   C1D 4509   9.484  21.398  19.185 -0.1912 -0.3329  0.0431
  188BOLB   C2D 4510   9.473  21.529  19.674  0.1656  0.0130  0.1035
  188BOLB   C3D 4511   9.457  21.921  19.910  0.0385 -0.0710  0.1585
  188BOLB   C4D 4512   9.587  22.204  20.242 -0.0254 -0.2933 -0.1266
  189BOLB   NC1 4513   9.431  15.559  21.438 -0.0128  0.3075  0.0337
  189BOLB   PO1 4514   9.466  15.982  21.387  0.3512  0.1010  0.0169
  189BOLB   GL1 4515   9.336  16.236  21.050  0.0059 -0.2340 -0.0186
  189BOLB   GL2 4516   9.533  16.453  20.822  0.0674  0.0881  0.3576
  189BOLB   C1A 4517   9.101  16.160  20.680 -0.1079 -0.1276 -0.0314
  189BOLB   C2A 4518   8.890  16.132  20.321  0.2046 -0.1828  0.3926
  189BOLB   C3A 4519   8.939  16.082  19.915 -0.0937 -0.0179 -0.2358
  189BOLB   C4A 4520   8.957  15.838  19.563 -0.2297  0.1627 -0.0452
  189BOLB   C1B 4521   9.228  16.658  20.519 -0.0725 -0.0115  0.1605
  189BOLB   C2B 4522   8.910  16.670  20.322 -0.2842 -0.1888 -0.1267
  189BOLB   C3B 4523   8.561  16.481  20.023  0.0406  0.1839 -0.1157
  189BOLB   C4B 4524   8.291  16.553  19.612 -0.0601  0.1581 -0.1343
  189BOLB   NC2 4525  10.936  14.655  20.439 -0.0894 -0.0176  0.0540
  189BOLB   PO2 4526  10.751  14.898  20.149  0.1189 -0.1013  0.1061
  189BOLB   GL3 4527  10.546  15.149  19.921  0.1829  0.0394  0.1710
  189BOLB   GL4 4528  10.813  15.396  19.997 -0.3175 -0.1128 -0.0069
  189BOLB   C1C 4529  10.260  15.347  19.598 -0.3505  0.0206  0.1258
  189BOLB   C2C 4530   9.942  15.520  19.228 -0.0809 -0.0894  0.0628
  189BOLB   C3C 4531   9.513  15.534  18.991  0.0921 -0.1137  0.1357
  189BOLB   C4C 4532   9.079  15.692  19.107 -0.0439  0.2899 -0.0540
  189BOLB   C1D 4533  11.087  15.373  19.609  0.3718 -0.2387 -0.1909
  189BOLB   C2D 4534  11.171  15.240  19.133 -0.1095 -0.4303  0.2269
  189BOLB   C3D 4535  11.229  15.250  18.668 -0.1438 -0.1367 -0.1302
  189BOLB   C4D 4536  11.262  15.174  18.241 -0.0900 -0.1835  0.2250
  190BOLB   NC1 4537  16.124  16.362  15.332 -0.0842  0.0058  0.3196
  190BOLB   PO1 4538  15.854  16.273  15.598 -0.0607  0.2449  0.2132
  190BOLB   GL1 4539  15.568  16.428  15.313  0.2040  0.0093 -0.3054
  190BOLB   GL2 4540  15.457  16.576  15.578  0.2558  0.1923  0.1267
  190BOLB   C1A 4541  15.231  16.571  15.068  0.0720 -0.0133  0.0042
  190BOLB   C2A 4542  14.883  16.824  14.940  0.1630  0.1223 -0.0025
  190BOLB   C3A 4543  14.670  16.927  15.296  0.2112  0.0611  0.2275
  190BOLB   C4A 4544  14.280  16.890  15.457 -0.1280  0.0575  0.0785
  190BOLB   C1B 4545  15.196  16.766  15.577 -0.0028 -0.1427 -0.0699
  190BOLB   C2B 4546  14.942  17.037  15.776 -0.1279  0.2563  0.3504
  190BOLB   C3B 4547  14.550  17.226  15.687  0.0624 -0.0109  0.0205
  190BOLB   C4B 4548  14.090  17.319  15.598  0.1766 -0.1182  0.0200
  190BOLB   NC2 4549  12.694  17.876  13.579  0.1676  0.1110 -0.0320
  190BOLB   PO2 4550  12.419  17.865  14.023  0.1727 -0.1876 -0.1026
  190BOLB   GL3 4551  12.873  17.644  14.048  0.0288  0.1499 -0.0188
  190BOLB   GL4 4552  13.113  17.659  13.777 -0.4783  0.0998  0.0215
  190BOLB   C1C 4553  13.215  17.376  14.282  0.3129 -0.0374 -0.1931
  190BOLB   C2C 4554  13.405  17.075  14.536 -0.0049 -0.0384 -0.0608
  190BOLB   C3C 4555  13.603  16.796  14.840  0.0764  0.4543 -0.2406
  190BOLB   C4C 4556  13.860  16.808  15.223 -0.0316 -0.1415 -0.2171
  190BOLB   C1D 4557  13.549  17.536  13.801  0.0841 -0.1670 -0.0285
  190BOLB   C2D 4558  13.737  17.277  14.109  0.2633 -0.1577  0.3256
  190BOLB   C3D 4559  14.059  17.039  13.991 -0.1102 -0.1487  0.0521
  190BOLB   C4D 4560  14.381  17.187  13.754 -0.0817  0.0283  0.1823
  191BOLB   NC1 4561  13.443  17.484  11.479 -0.0020  0.1402  0.5779
  191BOLB   PO1 4562  13.691  17.785  11.784 -0.3938 -0.1678 -0.0114
  191BOLB   GL1 4563  13.980  17.470  11.906  0.4656  0.1206 -0.0033
  191BOLB   GL2 4564  14.278  17.473  12.078  0.1602 -0.2305 -0.0179
  191BOLB   C1A 4565  14.054  16.999  12.063  0.0830  0.0812  0.1251
  191BOLB   C2A 4566  14.430  17.029  12.283 -0.2201 -0.0207 -0.2009
  191BOLB   C3A 4567  14.839  16.946  12.393 -0.4313 -0.2478  0.0161
  191BOLB   C4A 4568  15.137  16.660  12.503  0.1167  0.2054 -0.0613
  191BOLB   C1B 4569  14.448  17.610  12.409  0.0770  0.3790  0.0339
  191BOLB   C2B 4570  14.741  17.370  12.758 -0.1888 -0.1910 -0.1299
  191BOLB   C3B 4571  15.090  17.087  12.928 -0.0964  0.3644  0.0160
  191BOLB   C4B 4572  15.289  17.131  13.311  0.1384  0.2254 -0.1599
  191BOLB   NC2 4573  16.300  14.714  14.198  0.3289 -0.0648  0.1863
  191BOLB   PO2 4574  16.204  14.842  13.689 -0.2917  0.3999 -0.3665
  191BOLB   GL3 4575  15.922  15.019  13.508  0.1842 -0.1774  0.2275
  191BOLB   GL4 4576  15.614  14.860  13.473  0.0892  0.4901  0.0702
  191BOLB   C1C 4577  15.698  15.331  13.166  0.0451  0.1251  0.1610
  191BOLB   C2C 4578  15.684  15.410  12.754  0.1125 -0.1365  0.0553
  191BOLB   C3C 4579  15.496  15.799  12.565  0.2309 -0.0882  0.0111
  191BOLB   C4C 4580  15.343  16.277  12.560 -0.0057 -0.0355 -0.0817
  191BOLB   C1D 4581  15.185  14.870  13.423 -0.2410 -0.0864  0.0015
  191BOLB   C2D 4582  14.869  15.020  13.665 -0.0962 -0.2330 -0.0446
  191BOLB   C3D 4583  14.380  15.241  13.882 -0.0432  0.1146 -0.2855
  191BOLB   C4D 4584  14.166  15.512  13.797  0.0442  0.1056  0.0169
  192BOLB   NC1 4585   7.303  20.864   2.024  0.3675 -0.1487  0.2847
  192BOLB   PO1 4586   6.849  20.988   1.986  0.2215  0.0262  0.2441
  192BOLB   GL1 4587   6.735  21.047   1.548  0.5570 -0.0221  0.0307
  192BOLB   GL2 4588   7.129  20.979   1.422 -0.3321 -0.0447  0.0747
  192BOLB   C1A 4589   6.626  20.981   1.166 -0.1832  0.3932  0.7316
  192BOLB   C2A 4590   6.623  21.145   0.734 -0.1219  0.0271  0.1722
  192BOLB   C3A 4591   6.771  21.597   0.585  0.0707 -0.0148  0.3664
  192BOLB   C4A 4592   6.933  21.848   0.326  0.1350  0.5043  0.0482
  192BOLB   C1B 4593   7.130  20.773   1.048  0.1354 -0.1051 -0.3232
  192BOLB   C2B 4594   7.305  20.531   0.765 -0.0575  0.1882 -0.2234
  192BOLB   C3B 4595   7.713  20.479   0.522 -0.2850 -0.3018 -0.1006
  192BOLB   C4B 4596   7.926  20.682   0.140  0.0914 -0.1036  0.3632
  192BOLB   NC2 4597   8.221  23.256  -1.339 -0.0009  0.1088  0.1077
  192BOLB   PO2 4598   8.169  22.844  -1.418  0.2145  0.1766 -0.0933
  192BOLB   GL3 4599   7.925  22.493  -1.199  0.0432 -0.0625  0.0272
  192BOLB   GL4 4600   7.985  22.157  -1.033 -0.2118  0.0230  0.0851
  192BOLB   C1C 4601   7.637  22.450  -1.006  0.3475  0.0495 -0.1767
  192BOLB   C2C 4602   7.484  22.366  -0.700  0.2134  0.0575  0.0486
  192BOLB   C3C 4603   7.496  22.269  -0.253 -0.0347  0.0096 -0.0927
  192BOLB   C4C 4604   7.207  21.929  -0.004 -0.0683  0.2199 -0.1278
  192BOLB   C1D 4605   7.846  21.915  -0.600 -0.1127  0.0224  0.1836
  192BOLB   C2D 4606   7.734  21.739  -0.201  0.1663 -0.1671  0.3271
  192BOLB   C3D 4607   7.640  21.727   0.179  0.2274  0.1613  0.1509
  192BOLB   C4D 4608   8.033  21.578   0.490 -0.0525  0.1692 -0.1076
  193BOLB   NC1 4609  10.501  15.570   5.540 -0.0320 -0.1068  0.1358
  193BOLB   PO1 4610  10.236  15.259   5.333 -0.0195 -0.0121 -0.0346
  193BOLB   GL1 4611  10.515  15.281   5.007  0.2184 -0.1706 -0.2099
  193BOLB   GL2 4612  10.777  15.441   5.011  0.0261 -0.0872  0.2425
  193BOLB   C1A 4613  10.656  15.268   4.519  0.0281 -0.1781  0.1398
  193BOLB   C2A 4614  10.705  15.000   4.125 -0.4161 -0.0133  0.0842
  193BOLB   C3A 4615  10.578  14.874   3.689 -0.1186 -0.2725 -0.0731
  193BOLB   C4A 4616  10.368  14.683   3.394  0.2899  0.0189 -0.2341
  193BOLB   C1B 4617  11.035  15.030   4.950  0.0828  0.2135 -0.0575
  193BOLB   C2B 4618  11.425  14.841   4.890 -0.0641  0.3121  0.1726
  193BOLB   C3B 4619  11.820  14.681   4.789 -0.2515  0.0473  0.2449
  193BOLB   C4B 4620  12.064  14.278   4.673 -0.0940  0.0663  0.2190
  193BOLB   NC2 4621  10.533  13.324   1.079  0.0453 -0.0471  0.0517
  193BOLB   PO2 4622  10.757  13.273   1.375  0.3890 -0.2740 -0.2355
  193BOLB   GL3 4623  10.909  13.465   1.723  0.1582  0.0071  0.0335
  193BOLB   GL4 4624  11.252  13.467   1.780 -0.1319  0.1218  0.1472
  193BOLB   C1C 4625  10.744  13.382   2.245  0.1587 -0.1410  0.2919
  193BOLB   C2C 4626  10.520  13.648   2.596  0.0118 -0.0831 -0.0229
  193BOLB   C3C 4627  10.530  14.017   2.867 -0.0234 -0.1207 -0.1841
  193BOLB   C4C 4628  10.411  14.323   3.113  0.0295  0.1295  0.3605
  193BOLB   C1D 4629  11.207  13.742   2.030  0.2655  0.0105  0.1108
  193BOLB   C2D 4630  11.157  14.009   2.348 -0.2866  0.1146  0.1631
  193BOLB   C3D 4631  10.989  14.250   2.607  0.0334  0.0468 -0.2369
  193BOLB   C4D 4632  10.834  14.578   2.862  0.3126  0.0590  0.4061
  194BOLB   NC1 4633   8.368  26.939  16.271 -0.1262  0.0552  0.3655
  194BOLB   PO1 4634   8.634  26.770  16.640 -0.2001  0.0150  0.1920
  194BOLB   GL1 4635   8.682  27.147  16.825  0.1378 -0.4924  0.1232
  194BOLB   GL2 4636   8.636  27.156  17.210  0.2439 -0.3432  0.2664
  194BOLB   C1A 4637   9.099  27.218  17.005  0.2738  0.1739 -0.2030
  194BOLB   C2A 4638   9.353  27.294  17.322  0.0291  0.0159 -0.2354
  194BOLB   C3A 4639   9.293  27.700  17.613 -0.0634  0.1144  0.2575
  194BOLB   C4A 4640   8.917  27.975  17.750  0.1096  0.1958  0.1805
  194BOLB   C1B 4641   8.788  27.567  17.102  0.3658  0.0952 -0.0961
  194BOLB   C2B 4642   8.971  28.063  17.233  0.0493  0.1122  0.3346
  194BOLB   C3B 4643   8.752  28.322  17.489 -0.0133 -0.2009 -0.0465
  194BOLB   C4B 4644   8.559  28.623  17.789 -0.2601 -0.0502 -0.1899
  194BOLB   NC2 4645   9.189  29.581  19.296  0.0806  0.0263  0.0017
  194BOLB   PO2 4646   8.759  29.480  19.126 -0.3990 -0.2207  0.2855
  194BOLB   GL3 4647   8.521  29.120  18.964  0.2768  0.0317 -0.0358
  194BOLB   GL4 4648   8.340  28.947  18.967  0.0862 -0.1955  0.1245
  194BOLB   C1C 4649   8.735  28.874  18.652  0.0427  0.1404  0.0824
  194BOLB   C2C 4650   8.705  28.609  18.370  0.2501  0.3480 -0.0746
  194BOLB   C3C 4651   8.489  28.267  18.265 -0.3729  0.0104  0.4046
  194BOLB   C4C 4652   8.489  28.096  17.921 -0.3735 -0.0642  0.1897
  194BOLB   C1D 4653   8.334  28.502  18.861 -0.2251 -0.0100  0.1475
  194BOLB   C2D 4654   8.071  28.239  18.627  0.4386  0.0812  0.1763
  194BOLB   C3D 4655   7.847  27.860  18.568 -0.2173 -0.3008  0.4263
  194BOLB   C4D 4656   7.681  27.618  18.219 -0.3742 -0.3229  0.4473
  195BOLB   NC1 4657   2.358  21.302  17.305 -0.1438 -0.0562  0.0566
  195BOLB   PO1 4658   2.400  20.829  17.458  0.0280  0.0001  0.1255
  195BOLB   GL1 4659   1.887  20.960  17.474 -0.1125  0.0282 -0.1579
  195BOLB   GL2 4660   1.933  20.738  17.731 -0.0661 -0.0392  0.1285
  195BOLB   C1A 4661   1.563  21.145  17.733 -0.2823 -0.0993  0.0922
  195BOLB   C2A 4662   1.227  21.105  17.943  0.1529  0.4622  0.0472
  195BOLB   C3A 4663   0.817  21.129  17.983 -0.1569  0.0127  0.3809
  195BOLB   C4A 4664   0.344  21.100  18.066 -0.2184 -0.1232 -0.3514
  195BOLB   C1B 4665   1.894  20.816  18.171 -0.0724  0.1134  0.1295
  195BOLB   C2B 4666   1.611  20.987  18.394  0.0769 -0.0461  0.1306
  195BOLB   C3B 4667   1.331  20.942  18.753  0.1097  0.4876 -0.2566
  195BOLB   C4B 4668   1.066  20.728  19.125  0.1600 -0.1283 -0.0894
  195BOLB   NC2 4669  -1.281  21.604  20.158 -0.0071 -0.0080 -0.4199
  195BOLB   PO2 4670  -0.944  21.384  20.326  0.4377 -0.1663  0.0653
  195BOLB   GL3 4671  -0.983  21.578  19.739 -0.0769  0.1600  0.0494
  195BOLB   GL4 4672  -1.232  21.337  19.686  0.1857  0.2255  0.1841
  195BOLB   C1C 4673  -0.653  21.573  19.402  0.3090  0.1378 -0.1499
  195BOLB   C2C 4674  -0.491  21.346  19.136 -0.0711 -0.1749  0.1045
  195BOLB   C3C 4675  -0.188  21.412  18.786  0.0848 -0.0075  0.3286
  195BOLB   C4C 4676   0.079  21.276  18.425  0.1109 -0.0012 -0.0422
  195BOLB   C1D 4677  -1.195  21.111  19.247 -0.0501 -0.0181 -0.0911
  195BOLB   C2D 4678  -0.908  20.940  18.994 -0.1248 -0.0653 -0.2353
  195BOLB   C3D 4679  -0.576  20.891  18.635  0.2298 -0.2040  0.0719
  195BOLB   C4D 4680  -0.258  20.736  18.329 -0.0107  0.0778  0.0673
  196BOLB   NC1 4681  33.640  15.420   1.085  0.1032  0.0585 -0.1206
  196BOLB   PO1 4682  33.495  15.754   1.266  0.2388 -0.2611 -0.2261
  196BOLB   GL1 4683  33.750  15.636   1.527 -0.1031  0.3459 -0.2098
  196BOLB   GL2 4684  34.010  15.401   1.439 -0.1610  0.2107  0.2698
  196BOLB   C1A 4685  34.111  15.761   1.787  0.1185  0.0723 -0.0258
  196BOLB   C2A 4686  34.511  15.902   1.810  0.1606  0.0911 -0.3017
  196BOLB   C3A 4687  34.791  15.971   1.621  0.0343 -0.2702  0.0569
  196BOLB   C4A 4688  34.994  16.148   1.318  0.1575  0.0063 -0.1663
  196BOLB   C1B 4689  34.242  14.996   1.384 -0.2432  0.1645 -0.3995
  196BOLB   C2B 4690  34.654  14.656   1.410  0.1364  0.2626 -0.0063
  196BOLB   C3B 4691  34.996  14.387   1.596 -0.2614 -0.1446  0.2132
  196BOLB   C4B 4692  35.313  14.162   1.717  0.1755 -0.2550 -0.0009
  196BOLB   NC2 4693  35.329  17.214  -0.392 -0.5495  0.0927 -0.5099
  196BOLB   PO2 4694  35.504  16.848  -0.401 -0.1424 -0.2329 -0.1883
  196BOLB   GL3 4695  35.787  16.753  -0.067  0.0332  0.0570 -0.1456
  196BOLB   GL4 4696  36.030  16.949   0.003 -0.0359  0.0701  0.0220
  196BOLB   C1C 4697  35.744  16.460   0.255 -0.0820  0.0801  0.2336
  196BOLB   C2C 4698  35.838  16.149   0.534  0.0434  0.2110  0.1812
  196BOLB   C3C 4699  35.634  16.013   0.822 -0.0845 -0.1272  0.0384
  196BOLB   C4C 4700  35.250  15.955   1.074 -0.0237 -0.2338  0.2843
  196BOLB   C1D 4701  36.488  17.238  -0.012  0.0184  0.3627 -0.3152
  196BOLB   C2D 4702  36.882  17.344   0.252 -0.0929 -0.1200  0.0044
  196BOLB   C3D 4703  37.082  17.064   0.642 -0.1034 -0.1915  0.2167
  196BOLB   C4D 4704  37.220  17.158   0.984  0.1806  0.0493  0.4347
  197BOLB   NC1 4705  11.514  29.038  19.623 -0.0799  0.0994  0.0052
  197BOLB   PO1 4706  11.467  29.232  19.208  0.1250  0.1747 -0.3868
  197BOLB   GL1 4707  11.401  29.316  18.751 -0.1187  0.4562  0.1197
  197BOLB   GL2 4708  11.142  29.321  18.595  0.1952 -0.0768 -0.2009
  197BOLB   C1A 4709  11.522  28.941  18.558 -0.1992 -0.1330  0.1943
  197BOLB   C2A 4710  11.571  28.543  18.269  0.0408 -0.0321 -0.2522
  197BOLB   C3A 4711  11.744  28.087  18.122  0.1640 -0.0902 -0.0089
  197BOLB   C4A 4712  11.767  27.888  17.720  0.4613  0.0315 -0.1357
  197BOLB   C1B 4713  11.051  28.982  18.446  0.1108 -0.3908 -0.0830
  197BOLB   C2B 4714  10.994  28.626  18.211 -0.0062 -0.0556  0.0724
  197BOLB   C3B 4715  10.683  28.454  17.913 -0.1736  0.1490  0.1826
  197BOLB   C4B 4716  10.354  28.359  17.693 -0.0073 -0.0082 -0.0817
  197BOLB   NC2 4717  13.605  28.745  17.814 -0.0400  0.3702 -0.0261
  197BOLB   PO2 4718  13.728  28.500  18.110 -0.4101  0.1084 -0.6357
  197BOLB   GL3 4719  13.407  28.319  17.764 -0.4034  0.0195 -0.1599
  197BOLB   GL4 4720  13.272  28.091  17.888 -0.2733 -0.0887 -0.1264
  197BOLB   C1C 4721  13.177  28.058  17.410  0.4160  0.4771 -0.0727
  197BOLB   C2C 4722  12.979  27.727  17.217 -0.1858 -0.0472  0.2326
  197BOLB   C3C 4723  12.532  27.500  17.345  0.1810 -0.0822 -0.0577
  197BOLB   C4C 4724  12.096  27.732  17.509 -0.1263 -0.3439  0.1231
  197BOLB   C1D 4725  12.991  28.199  18.206  0.2969 -0.1328  0.1246
  197BOLB   C2D 4726  12.514  28.434  18.184  0.2870  0.0633  0.1189
  197BOLB   C3D 4727  12.095  28.452  18.181  0.1040 -0.1300  0.0988
  197BOLB   C4D 4728  11.836  28.465  17.843  0.0436  0.2743 -0.0899
  198BOLB   NC1 4729  11.511  16.365  12.155  0.0719  0.0969 -0.0760
  198BOLB   PO1 4730  11.247  16.039  12.157  0.1158  0.3195  0.4272
  198BOLB   GL1 4731  11.702  15.849  12.283 -0.1210 -0.1036  0.3407
  198BOLB   GL2 4732  11.523  15.689  12.625  0.3589 -0.1359 -0.1944
  198BOLB   C1A 4733  12.054  15.650  12.601 -0.0428  0.1614 -0.0104
  198BOLB   C2A 4734  12.423  15.597  12.742 -0.0873 -0.0291 -0.1914
  198BOLB   C3A 4735  12.804  15.403  12.997 -0.1108  0.0977 -0.2190
  198BOLB   C4A 4736  12.838  15.285  13.384 -0.3233 -0.0756  0.2487
  198BOLB   C1B 4737  11.780  15.261  12.568  0.1995 -0.1705  0.1122
  198BOLB   C2B 4738  11.936  14.930  12.576 -0.7505  0.0981  0.1539
  198BOLB   C3B 4739  12.393  14.642  12.484  0.1178 -0.3745 -0.0639
  198BOLB   C4B 4740  12.754  14.485  12.361  0.0433  0.0115  0.3694
  198BOLB   NC2 4741  14.277  13.466  15.034  0.2014  0.3199  0.1937
  198BOLB   PO2 4742  13.871  13.481  14.757  0.2822 -0.1572 -0.0028
  198BOLB   GL3 4743  13.734  13.827  14.672  0.1639 -0.2818  0.2509
  198BOLB   GL4 4744  13.764  14.108  14.784  0.2813  0.1216 -0.1022
  198BOLB   C1C 4745  13.445  13.942  14.438  0.2717 -0.1441 -0.0952
  198BOLB   C2C 4746  13.205  14.221  14.097 -0.2319 -0.0041 -0.3420
  198BOLB   C3C 4747  12.966  14.517  13.838 -0.0707  0.1941 -0.1052
  198BOLB   C4C 4748  12.941  15.000  13.660 -0.1357  0.1921  0.0858
  198BOLB   C1D 4749  13.458  14.414  14.629 -0.0759 -0.1230  0.1280
  198BOLB   C2D 4750  13.079  14.665  14.402  0.3033 -0.0381 -0.3510
  198BOLB   C3D 4751  12.890  15.062  14.630  0.1907  0.0415  0.1395
  198BOLB   C4D 4752  12.441  15.247  14.835  0.3504  0.1358  0.0569
  199BOLB   NC1 4753  15.065  14.974   3.349 -0.0990 -0.1551 -0.2764
  199BOLB   PO1 4754  15.253  14.817   3.702 -0.3480 -0.5144  0.0267
  199BOLB   GL1 4755  14.930  15.205   3.797  0.3066 -0.1086  0.1723
  199BOLB   GL2 4756  15.059  15.355   4.051 -0.1966  0.0928  0.0486
  199BOLB   C1A 4757  14.508  15.273   3.830 -0.1557 -0.1095 -0.2772
  199BOLB   C2A 4758  14.163  15.589   3.971 -0.2454 -0.0996  0.0023
  199BOLB   C3A 4759  13.942  15.763   4.311 -0.1346 -0.1628  0.3485
  199BOLB   C4A 4760  14.076  15.969   4.585  0.3506 -0.0198 -0.1837
  199BOLB   C1B 4761  14.783  15.307   4.264  0.1638 -0.1567  0.2020
  199BOLB   C2B 4762  14.307  15.293   4.379  0.1321  0.4663 -0.3345
  199BOLB   C3B 4763  13.935  15.437   4.636 -0.1669  0.5525  0.1684
  199BOLB   C4B 4764  13.503  15.512   4.864 -0.4897 -0.2469  0.1998
  199BOLB   NC2 4765  16.187  15.096   3.965  0.0475 -0.0543  0.0036
  199BOLB   PO2 4766  16.088  15.502   3.972  0.0769  0.1267 -0.0090
  199BOLB   GL3 4767  15.612  15.628   4.165  0.0483 -0.2426  0.0647
  199BOLB   GL4 4768  15.336  15.785   3.984  0.1015  0.4630  0.4356
  199BOLB   C1C 4769  15.465  15.629   4.588  0.2795 -0.2217 -0.1003
  199BOLB   C2C 4770  15.248  15.755   4.794  0.2061  0.0955  0.1039
  199BOLB   C3C 4771  14.741  15.906   4.853 -0.2294 -0.3657 -0.0903
  199BOLB   C4C 4772  14.395  16.181   4.745 -0.1103  0.3509  0.2233
  199BOLB   C1D 4773  15.050  16.202   4.004  0.4934  0.0309  0.2908
  199BOLB   C2D 4774  14.795  16.513   3.968  0.1207  0.1573  0.0077
  199BOLB   C3D 4775  14.708  17.027   4.061  0.2594  0.0933  0.0204
  199BOLB   C4D 4776  14.511  17.528   4.144 -0.2692 -0.1266  0.0243
  200BOLB   NC1 4777   9.024  19.617  17.983 -0.2838 -0.1997  0.0597
  200BOLB   PO1 4778   8.854  19.663  18.334  0.1520 -0.0191 -0.1036
  200BOLB   GL1 4779   9.248  19.494  18.464  0.0065  0.3928  0.2749
  200BOLB   GL2 4780   9.237  19.734  18.746  0.2240  0.1807 -0.1791
  200BOLB   C1A 4781   9.378  19.211  18.673 -0.1112 -0.0828 -0.2716
  200BOLB   C2A 4782   9.684  19.132  19.059 -0.0112  0.0851  0.0616
  200BOLB   C3A 4783  10.034  18.957  19.299  0.1800  0.3518  0.0288
  200BOLB   C4A 4784  10.293  18.923  19.626 -0.2951 -0.4216  0.1281
  200BOLB   C1B 4785   9.649  19.718  18.988  0.3991  0.4425  0.1904
  200BOLB   C2B 4786   9.956  19.567  19.214  0.5945  0.2502 -0.0693
  200BOLB   C3B 4787  10.305  19.463  19.524 -0.0235  0.0293  0.0659
  200BOLB   C4B 4788  10.429  19.372  19.928 -0.4302 -0.2659  0.2672
  200BOLB   NC2 4789  11.688  18.073  21.758 -0.0711 -0.4447 -0.0490
  200BOLB   PO2 4790  11.397  18.124  21.377 -0.6355 -0.0278 -0.1956
  200BOLB   GL3 4791  11.527  18.181  21.046 -0.3087  0.0419 -0.0550
  200BOLB   GL4 4792  11.737  18.448  21.014  0.2570 -0.1207 -0.0743
  200BOLB   C1C 4793  11.269  18.444  20.796 -0.0313  0.2966  0.1682
  200BOLB   C2C 4794  10.821  18.521  20.659 -0.2653  0.2342  0.2001
  200BOLB   C3C 4795  10.761  18.846  20.319 -0.1689  0.3778 -0.3202
  200BOLB   C4C 4796  10.416  18.913  20.130 -0.0100  0.0570  0.1200
  200BOLB   C1D 4797  11.689  18.599  20.550  0.0724 -0.1305  0.0559
  200BOLB   C2D 4798  11.569  18.836  20.212  0.1057  0.1301  0.0127
  200BOLB   C3D 4799  11.152  18.982  20.040  0.0137 -0.3660  0.0530
  200BOLB   C4D 4800  10.803  19.122  19.760 -0.2310 -0.2686  0.3793
  201BOLB   NC1 4801   5.869   8.455  10.337 -0.3831  0.0489  0.2242
  201BOLB   PO1 4802   5.475   8.380  10.157  0.0668  0.1036 -0.0137
  201BOLB   GL1 4803   5.186   8.682  10.039  0.0881  0.2163 -0.0130
  201BOLB   GL2 4804   5.182   8.955  10.132  0.3148  0.2694 -0.2315
  201BOLB   C1A 4805   4.713   8.721  10.098 -0.3927 -0.0673  0.0223
  201BOLB   C2A 4806   4.346   8.961  10.147 -0.0496  0.1819 -0.1437
  201BOLB   C3A 4807   4.000   9.257  10.216  0.0033  0.1161 -0.2090
  201BOLB   C4A 4808   3.607   9.290  10.453 -0.3003 -0.2190 -0.2459
  201BOLB   C1B 4809   5.064   9.326  10.107  0.3339  0.1605 -0.0069
  201BOLB   C2B 4810   4.941   9.679  10.007  0.0592 -0.1118 -0.1512
  201BOLB   C3B 4811   4.697  10.022   9.883 -0.2171  0.0611  0.2555
  201BOLB   C4B 4812   4.540   9.897   9.511  0.2149 -0.1501 -0.2993
  201BOLB   NC2 4813   4.251   7.621   9.508 -0.0974  0.2315  0.3901
  201BOLB   PO2 4814   3.889   7.327   9.790  0.2697 -0.1689  0.0749
  201BOLB   GL3 4815   3.679   7.440  10.050  0.1234 -0.2183  0.1970
  201BOLB   GL4 4816   3.709   7.725  10.301  0.3762  0.0201  0.1954
  201BOLB   C1C 4817   3.295   7.761   9.964  0.0627  0.0369  0.0276
  201BOLB   C2C 4818   3.246   8.125  10.229 -0.0764  0.0676  0.0057
  201BOLB   C3C 4819   3.423   8.542  10.266 -0.4472 -0.0550 -0.4410
  201BOLB   C4C 4820   3.376   9.022  10.351  0.0399 -0.0622 -0.1168
  201BOLB   C1D 4821   3.544   7.867  10.685 -0.0704 -0.1185  0.0062
  201BOLB   C2D 4822   3.588   8.249  10.774 -0.0368  0.0285 -0.0400
  201BOLB   C3D 4823   3.703   8.536  11.118 -0.0657 -0.1241  0.8460
  201BOLB   C4D 4824   3.876   8.911  11.135  0.0350 -0.1088  0.0169
  202BOLB   NC1 4825   3.233  22.292   2.908  0.2271 -0.1959 -0.0035
  202BOLB   PO1 4826   3.666  22.567   3.090 -0.1181  0.1072  0.0966
  202BOLB   GL1 4827   3.649  22.421   2.688  0.2553  0.0710 -0.2995
  202BOLB   GL2 4828   3.864  22.297   2.372 -0.1101  0.0187 -0.0919
  202BOLB   C1A 4829   3.397  22.349   2.251 -0.2286  0.0663 -0.0921
  202BOLB   C2A 4830   3.243  22.366   1.835  0.1448  0.2908 -0.3957
  202BOLB   C3A 4831   3.027  22.482   1.430 -0.2945 -0.2172 -0.2329
  202BOLB   C4A 4832   3.169  22.413   0.988  0.3817 -0.1998  0.0412
  202BOLB   C1B 4833   3.785  22.184   1.959 -0.0115 -0.0917  0.0805
  202BOLB   C2B 4834   3.625  22.266   1.423 -0.0239  0.2728  0.4227
  202BOLB   C3B 4835   3.604  22.126   1.073  0.1440 -0.0019 -0.3715
  202BOLB   C4B 4836   3.684  21.890   0.767 -0.0449  0.0114  0.3298
  202BOLB   NC2 4837   4.093  23.060  -1.274 -0.3588  0.0845 -0.0998
  202BOLB   PO2 4838   3.628  23.056  -1.453 -0.6092 -0.5792  0.3572
  202BOLB   GL3 4839   3.721  22.964  -0.894 -0.0819 -0.3880  0.0290
  202BOLB   GL4 4840   3.998  23.134  -0.766 -0.0856 -0.1467  0.0705
  202BOLB   C1C 4841   3.477  22.787  -0.563 -0.1986  0.2739 -0.2742
  202BOLB   C2C 4842   3.423  22.617  -0.149 -0.2264  0.2922  0.1678
  202BOLB   C3C 4843   3.258  22.535   0.247  0.3215  0.0449 -0.1799
  202BOLB   C4C 4844   3.383  22.501   0.599  0.4239  0.1478  0.2681
  202BOLB   C1D 4845   4.041  22.776  -0.504 -0.2655 -0.0229  0.0823
  202BOLB   C2D 4846   4.086  22.648  -0.167  0.1481 -0.1547 -0.1027
  202BOLB   C3D 4847   4.227  22.389   0.196  0.0950 -0.0045  0.0753
  202BOLB   C4D 4848   4.444  22.468   0.652 -0.2155 -0.1792 -0.1883
  203BOLB   NC1 4849  29.090  20.413  11.874 -0.1838  0.2269  0.1657
  203BOLB   PO1 4850  29.140  19.995  11.769  0.0442 -0.3766  0.1041
  203BOLB   GL1 4851  29.553  20.067  11.773  0.0983  0.1370 -0.1867
  203BOLB   GL2 4852  29.606  19.897  12.211 -0.2962 -0.4532  0.2755
  203BOLB   C1A 4853  30.023  20.033  11.673 -0.0983 -0.3647 -0.3607
  203BOLB   C2A 4854  30.457  19.981  11.827  0.1326 -0.2487 -0.0237
  203BOLB   C3A 4855  30.767  20.251  12.150 -0.3912  0.2262 -0.0817
  203BOLB   C4A 4856  30.649  20.572  12.377  0.0934 -0.0373  0.1413
  203BOLB   C1B 4857  29.996  19.726  12.097  0.0442  0.0504 -0.1438
  203BOLB   C2B 4858  30.244  19.397  12.144 -0.0243 -0.1344  0.1000
  203BOLB   C3B 4859  30.363  19.070  11.992  0.2831  0.0795  0.1016
  203BOLB   C4B 4860  30.648  18.787  12.037  0.0435 -0.0373 -0.1987
  203BOLB   NC2 4861  28.760  22.276  11.764 -0.0543  0.1476  0.2049
  203BOLB   PO2 4862  29.114  22.175  11.562 -0.0106  0.0331 -0.2064
  203BOLB   GL3 4863  29.518  22.178  11.726 -0.2194  0.2540 -0.3097
  203BOLB   GL4 4864  29.602  22.498  11.766  0.2856 -0.3533  0.0594
  203BOLB   C1C 4865  29.937  22.137  11.900 -0.0675 -0.3907  0.2955
  203BOLB   C2C 4866  30.141  21.835  12.034  0.3949 -0.2205 -0.4035
  203BOLB   C3C 4867  30.374  21.372  12.091  0.1183  0.3740  0.1156
  203BOLB   C4C 4868  30.556  20.933  12.150 -0.1324 -0.2815  0.3239
  203BOLB   C1D 4869  29.874  22.555  12.131  0.2885 -0.0127 -0.0724
  203BOLB   C2D 4870  30.228  22.669  12.305  0.2455  0.1618 -0.3184
  203BOLB   C3D 4871  30.738  22.587  12.270 -0.2015 -0.1221 -0.0248
  203BOLB   C4D 4872  31.167  22.695  12.235  0.2576  0.0525 -0.2058
  204BOLB   NC1 4873  35.447  15.756   0.056  0.1897  0.2221  0.1855
  204BOLB   PO1 4874  35.026  16.010  -0.174  0.2957 -0.4467  0.1197
  204BOLB   GL1 4875  35.015  16.322   0.067 -0.3348 -0.3189  0.3248
  204BOLB   GL2 4876  35.238  16.326   0.252  0.2559  0.2082 -0.1017
  204BOLB   C1A 4877  35.106  16.759   0.050 -0.2378 -0.0434  0.1814
  204BOLB   C2A 4878  35.482  16.851   0.395  0.0179 -0.0160 -0.0816
  204BOLB   C3A 4879  35.813  17.045   0.466 -0.4760  0.0812 -0.1763
  204BOLB   C4A 4880  36.310  17.032   0.421 -0.0254  0.0716  0.3409
  204BOLB   C1B 4881  35.288  16.334   0.726 -0.1171 -0.2811 -0.0241
  204BOLB   C2B 4882  35.503  16.465   1.090 -0.1515 -0.0845  0.1680
  204BOLB   C3B 4883  35.642  16.858   1.426  0.0842  0.2638  0.0299
  204BOLB   C4B 4884  35.825  17.229   1.580  0.3183 -0.0981 -0.1913
  204BOLB   NC2 4885  37.736  17.771  -1.376 -0.5139 -0.1904 -0.0116
  204BOLB   PO2 4886  37.757  17.796  -0.920 -0.0406  0.3740 -0.3293
  204BOLB   GL3 4887  37.615  17.688  -0.498  0.1266 -0.0761 -0.0218
  204BOLB   GL4 4888  37.884  17.680  -0.369  0.1831  0.1325 -0.0912
  204BOLB   C1C 4889  37.349  17.421  -0.254  0.0710 -0.0079  0.0835
  204BOLB   C2C 4890  37.086  17.082  -0.167  0.0237  0.2513  0.0414
  204BOLB   C3C 4891  37.016  16.771   0.164  0.0163 -0.2043  0.4572
  204BOLB   C4C 4892  36.617  16.769   0.357  0.1185  0.5028  0.2081
  204BOLB   C1D 4893  37.874  17.666   0.085  0.2691  0.0348 -0.1823
  204BOLB   C2D 4894  37.670  17.800   0.323 -0.0428 -0.1113  0.1161
  204BOLB   C3D 4895  37.679  17.794   0.719  0.0105  0.1398 -0.2237
  204BOLB   C4D 4896  37.663  17.347   0.867  0.0717  0.2361 -0.0383
  205BOLB   NC1 4897  38.150  24.762  11.894  0.0987  0.0990 -0.0482
  205BOLB   PO1 4898  37.955  24.969  12.286 -0.1811  0.2257  0.0646
  205BOLB   GL1 4899  37.690  25.183  12.222  0.1946 -0.2203 -0.0259
  205BOLB   GL2 4900  37.341  25.036  12.196  0.1289 -0.0506 -0.5550
  205BOLB   C1A 4901  37.231  25.497  12.210  0.3633 -0.1341  0.0103
  205BOLB   C2A 4902  36.814  25.755  12.181  0.4261 -0.0579  0.1937
  205BOLB   C3A 4903  36.431  25.819  12.000  0.1189 -0.1242 -0.0640
  205BOLB   C4A 4904  36.098  26.150  11.992 -0.1358  0.2395 -0.3182
  205BOLB   C1B 4905  36.948  25.140  12.031  0.1955 -0.1701 -0.2155
  205BOLB   C2B 4906  36.504  25.287  12.090  0.3372  0.1155  0.1041
  205BOLB   C3B 4907  36.218  25.421  12.315 -0.0202  0.1540 -0.0647
  205BOLB   C4B 4908  35.914  25.749  12.424 -0.2740 -0.2278  0.0983
  205BOLB   NC2 4909  34.438  27.618  12.951  0.0339 -0.2887 -0.0801
  205BOLB   PO2 4910  34.338  27.356  12.656 -0.1097  0.5236 -0.3597
  205BOLB   GL3 4911  34.769  27.344  12.555 -0.0274 -0.3387  0.0617
  205BOLB   GL4 4912  34.802  27.036  12.589  0.1503 -0.2550 -0.0766
  205BOLB   C1C 4913  35.166  27.271  12.265 -0.3668 -0.0747  0.1776
  205BOLB   C2C 4914  35.523  27.127  12.070 -0.2139  0.0515 -0.0932
  205BOLB   C3C 4915  35.589  26.826  11.834 -0.0678 -0.2866  0.1217
  205BOLB   C4C 4916  35.778  26.373  11.780  0.0631  0.2195  0.1832
  205BOLB   C1D 4917  34.973  26.803  12.866  0.2290  0.2229  0.0922
  205BOLB   C2D 4918  35.307  26.782  13.240  0.0736 -0.0863  0.1425
  205BOLB   C3D 4919  35.337  26.381  13.515 -0.1233  0.3813 -0.1994
  205BOLB   C4D 4920  35.611  26.391  13.838 -0.1634  0.0956 -0.2464
  206BOLB   NC1 4921  16.873  16.357   2.963  0.2167 -0.1511 -0.2755
  206BOLB   PO1 4922  16.433  16.574   3.053 -0.2657 -0.0322  0.1328
  206BOLB   GL1 4923  16.109  16.776   3.139  0.0493  0.1911 -0.0462
  206BOLB   GL2 4924  16.044  17.108   3.331 -0.0687 -0.0194  0.1171
  206BOLB   C1A 4925  15.764  16.702   3.397 -0.2032  0.1876  0.0763
  206BOLB   C2A 4926  15.259  16.806   3.421  0.1405 -0.1473  0.2667
  206BOLB   C3A 4927  14.768  16.893   3.579 -0.1283 -0.6487 -0.2799
  206BOLB   C4A 4928  14.302  17.087   3.694 -0.1230 -0.1530  0.2334
  206BOLB   C1B 4929  15.717  17.428   3.359  0.0039  0.2434 -0.1984
  206BOLB   C2B 4930  15.744  17.859   3.439  0.1450  0.0011 -0.1753
  206BOLB   C3B 4931  15.717  18.143   3.826  0.2313 -0.0482  0.2823
  206BOLB   C4B 4932  15.553  18.449   4.059  0.1902 -0.0850 -0.0970
  206BOLB   NC2 4933  13.376  18.283   5.321 -0.2975  0.5799  0.0150
  206BOLB   PO2 4934  13.827  18.122   5.461  0.0708 -0.1142  0.1691
  206BOLB   GL3 4935  13.938  18.077   5.014  0.0241  0.1665 -0.3172
  206BOLB   GL4 4936  13.791  18.288   4.764 -0.0295 -0.2752  0.0851
  206BOLB   C1C 4937  14.263  18.011   4.774 -0.3145  0.0894 -0.0218
  206BOLB   C2C 4938  14.391  18.016   4.331  0.0246  0.0829 -0.0052
  206BOLB   C3C 4939  14.198  17.830   3.930  0.0559 -0.0343 -0.1319
  206BOLB   C4C 4940  14.129  17.396   3.889  0.1352 -0.3324  0.2228
  206BOLB   C1D 4941  13.856  18.058   4.288  0.0575 -0.0058  0.1022
  206BOLB   C2D 4942  13.688  17.662   4.096  0.0902  0.2855 -0.1250
  206BOLB   C3D 4943  13.695  17.196   4.156  0.1232  0.2541  0.1887
  206BOLB   C4D 4944  13.941  16.857   3.987 -0.1813 -0.0320  0.1986
  207BOLB   NC1 4945   9.987  10.499   4.575 -0.0236 -0.2092  0.1876
  207BOLB   PO1 4946   9.671  10.198   4.667  0.1491 -0.0453  0.2301
  207BOLB   GL1 4947   9.709  10.519   4.986  0.1091 -0.3550 -0.3645
  207BOLB   GL2 4948   9.608  10.422   5.320  0.0145  0.1122  0.1263
  207BOLB   C1A 4949   9.462  10.837   5.206  0.0282 -0.0980  0.1734
  207BOLB   C2A 4950   9.564  11.300   5.220 -0.3275  0.4281 -0.4401
  207BOLB   C3A 4951   9.362  11.511   5.596 -0.0755  0.0821  0.2242
  207BOLB   C4A 4952   9.278  11.781   5.892 -0.2552 -0.1864 -0.4249
  207BOLB   C1B 4953   9.665  10.713   5.647 -0.1343 -0.1696  0.0318
  207BOLB   C2B 4954   9.384  10.851   6.047 -0.0108  0.0894  0.3110
  207BOLB   C3B 4955   9.036  10.994   6.258  0.0117  0.3127  0.2359
  207BOLB   C4B 4956   9.115  11.209   6.692 -0.2946  0.0144  0.2010
  207BOLB   NC2 4957   8.528  13.552   6.727 -0.3577  0.0978 -0.1871
  207BOLB   PO2 4958   8.196  13.747   6.581  0.3907 -0.1433  0.1844
  207BOLB   GL3 4959   8.142  13.210   6.576  0.2246  0.2640 -0.1857
  207BOLB   GL4 4960   7.873  13.054   6.659  0.1682 -0.3081 -0.0971
  207BOLB   C1C 4961   8.301  12.735   6.518  0.0747 -0.3113 -0.1932
  207BOLB   C2C 4962   8.501  12.370   6.681 -0.1762 -0.0793 -0.2804
  207BOLB   C3C 4963   8.923  12.290   6.440  0.0518  0.2035 -0.3351
  207BOLB   C4C 4964   8.976  11.977   6.161  0.2751  0.0912 -0.2303
  207BOLB   C1D 4965   7.814  12.710   6.303 -0.3895 -0.1336 -0.3157
  207BOLB   C2D 4966   7.655  12.259   6.164 -0.2018 -0.0896  0.2435
  207BOLB   C3D 4967   7.645  11.947   5.954  0.0865  0.1598 -0.1687
  207BOLB   C4D 4968   7.961  11.693   5.866  0.1762 -0.3298  0.1308
  208BOLB   NC1 4969  30.827  15.382  16.071  0.2328  0.1837 -0.0473
  208BOLB   PO1 4970  30.600  15.730  15.838  0.0171  0.1239  0.2543
  208BOLB   GL1 4971  30.865  15.844  15.727 -0.1906  0.1946 -0.0578
  208BOLB   GL2 4972  30.771  15.937  15.375  0.2883 -0.1968 -0.2351
  208BOLB   C1A 4973  31.129  16.239  15.627 -0.2164  0.1690  0.5192
  208BOLB   C2A 4974  31.371  16.596  15.562 -0.2746 -0.0265  0.0979
  208BOLB   C3A 4975  31.703  16.946  15.658 -0.2187  0.0200  0.1093
  208BOLB   C4A 4976  32.114  16.949  15.718 -0.2951  0.1497 -0.0819
  208BOLB   C1B 4977  31.222  15.785  15.324 -0.3603  0.0298  0.1553
  208BOLB   C2B 4978  31.583  15.705  15.159 -0.0373  0.1706  0.0436
  208BOLB   C3B 4979  31.926  15.922  15.063 -0.1329 -0.3700  0.0414
  208BOLB   C4B 4980  32.296  16.266  14.912  0.1583  0.1607  0.3982
  208BOLB   NC2 4981  31.447  14.700  15.972  0.0357 -0.2404 -0.0308
  208BOLB   PO2 4982  31.107  14.935  16.028 -0.1483 -0.0642 -0.0399
  208BOLB   GL3 4983  31.344  15.308  15.928 -0.2197 -0.0693 -0.2436
  208BOLB   GL4 4984  31.176  15.487  15.751  0.0285 -0.0608  0.1902
  208BOLB   C1C 4985  31.688  15.338  15.768 -0.1267  0.4188  0.0888
  208BOLB   C2C 4986  31.853  15.740  15.574 -0.1488  0.3219  0.1067
  208BOLB   C3C 4987  32.134  16.214  15.449 -0.0300  0.2425  0.1781
  208BOLB   C4C 4988  32.202  16.617  15.519  0.0638 -0.0338 -0.1527
  208BOLB   C1D 4989  31.429  15.891  15.893 -0.6409  0.1489  0.3086
  208BOLB   C2D 4990  31.671  16.180  15.696 -0.0618 -0.1471 -0.5686
  208BOLB   C3D 4991  31.852  16.529  15.894 -0.0538 -0.0866 -0.0721
  208BOLB   C4D 4992  31.719  16.851  16.140 -0.0414 -0.1593 -0.0149
  209BOLB   NC1 4993   5.058  28.158   7.122  0.0866 -0.2397 -0.2787
  209BOLB   PO1 4994   4.992  27.938   6.876  0.0951  0.1132 -0.0549
  209BOLB   GL1 4995   4.949  28.293   6.575  0.0273  0.2546  0.3757
  209BOLB   GL2 4996   5.075  28.521   6.807 -0.0094  0.0048 -0.0503
  209BOLB   C1A 4997   5.052  28.715   6.357  0.1351 -0.4440 -0.0925
  209BOLB   C2A 4998   4.958  29.057   6.109  0.2861 -0.2926 -0.1002
  209BOLB   C3A 4999   4.968  29.210   5.589  0.2078  0.2845  0.1766
  209BOLB   C4A 5000   5.010  29.140   5.112  0.1183  0.0866 -0.2488
  209BOLB   C1B 5001   5.356  28.930   6.726  0.0429  0.2489 -0.2909
  209BOLB   C2B 5002   5.285  29.256   6.567  0.3001 -0.1072 -0.0321
  209BOLB   C3B 5003   5.151  29.547   6.249  0.0306  0.1907 -0.0865
  209BOLB   C4B 5004   4.984  29.908   6.204 -0.1211  0.0128  0.0847
  209BOLB   NC2 5005   4.118  30.913   4.243  0.1884 -0.0211 -0.0075
  209BOLB   PO2 5006   3.919  31.201   4.580 -0.2540  0.1175 -0.1273
  209BOLB   GL3 5007   4.045  30.773   4.706 -0.0979  0.0825  0.1482
  209BOLB   GL4 5008   4.015  30.546   5.073 -0.0966 -0.0370  0.0882
  209BOLB   C1C 5009   4.264  30.424   4.699  0.0254 -0.0762 -0.1656
  209BOLB   C2C 5010   4.489  30.137   4.631 -0.2150 -0.0779 -0.0581
  209BOLB   C3C 5011   4.708  29.708   4.689 -0.1469 -0.0058  0.2585
  209BOLB   C4C 5012   4.840  29.310   4.793  0.0662  0.2237 -0.1195
  209BOLB   C1D 5013   4.193  30.250   5.344  0.2456  0.1371 -0.1348
  209BOLB   C2D 5014   4.480  30.003   5.535 -0.1209  0.1550  0.1444
  209BOLB   C3D 5015   4.829  29.905   5.666 -0.2424  0.0311  0.1072
  209BOLB   C4D 5016   5.140  29.796   5.712 -0.4575 -0.2912  0.3275
  210BOLB   NC1 5017  12.833  25.399  10.573  0.0140  0.0962 -0.0008
  210BOLB   PO1 5018  13.219  25.656  10.543  0.1317 -0.2364 -0.0476
  210BOLB   GL1 5019  13.521  26.106  10.416  0.1662 -0.2457  0.0001
  210BOLB   GL2 5020  13.434  26.446  10.395 -0.1519 -0.1270 -0.1063
  210BOLB   C1A 5021  13.902  26.168  10.351  0.2725 -0.1903 -0.1676
  210BOLB   C2A 5022  14.339  25.902  10.504 -0.0397  0.3499 -0.2987
  210BOLB   C3A 5023  14.744  25.894  10.477  0.0613 -0.0469 -0.5753
  210BOLB   C4A 5024  15.180  26.148  10.321  0.3812 -0.2898  0.0002
  210BOLB   C1B 5025  13.861  26.651  10.275 -0.1537  0.0570 -0.0906
  210BOLB   C2B 5026  14.218  26.850  10.060  0.2786  0.1545 -0.0041
  210BOLB   C3B 5027  14.598  26.967  10.292 -0.0598  0.1100 -0.0363
  210BOLB   C4B 5028  14.623  26.990  10.709  0.0349 -0.1348 -0.3545
  210BOLB   NC2 5029  17.853  27.164   9.951  0.0113  0.1433  0.0591
  210BOLB   PO2 5030  17.500  27.351  10.169  0.0601  0.3467 -0.4175
  210BOLB   GL3 5031  17.019  27.143  10.241  0.0430 -0.1496 -0.0696
  210BOLB   GL4 5032  16.698  27.323  10.110  0.0332  0.0149 -0.0347
  210BOLB   C1C 5033  16.711  26.847   9.972 -0.1023  0.1515  0.0548
  210BOLB   C2C 5034  16.418  26.484   9.871 -0.5438 -0.0071  0.1484
  210BOLB   C3C 5035  15.972  26.454  10.106 -0.2560 -0.0542  0.0213
  210BOLB   C4C 5036  15.588  26.298  10.208 -0.1235 -0.4017  0.0574
  210BOLB   C1D 5037  16.428  27.251  10.508 -0.1719 -0.0237  0.0349
  210BOLB   C2D 5038  16.028  27.171  10.751  0.0386  0.0008  0.2624
  210BOLB   C3D 5039  15.655  27.322  10.771 -0.1288  0.5758  0.1491
  210BOLB   C4D 5040  15.403  27.572  10.909 -0.2641  0.0557 -0.1339
  211BOLB   NC1 5041   2.547  17.518  16.588 -0.0944 -0.2845 -0.3316
  211BOLB   PO1 5042   2.584  17.923  16.935  0.1499  0.2623  0.4927
  211BOLB   GL1 5043   2.574  17.490  17.149  0.0502 -0.2666 -0.0123
  211BOLB   GL2 5044   2.280  17.406  16.981  0.3919  0.1123 -0.0761
  211BOLB   C1A 5045   2.500  17.349  17.588  0.0010 -0.1057  0.0375
  211BOLB   C2A 5046   2.552  17.079  17.926  0.4944  0.1074  0.3469
  211BOLB   C3A 5047   2.566  16.769  18.259 -0.0618  0.2655  0.0408
  211BOLB   C4A 5048   2.745  16.728  18.549 -0.0459 -0.1973  0.1873
  211BOLB   C1B 5049   2.200  17.069  17.278 -0.5059 -0.1083  0.2185
  211BOLB   C2B 5050   1.929  16.801  17.256  0.1642  0.0665  0.1017
  211BOLB   C3B 5051   1.503  16.680  17.358 -0.0976  0.3105 -0.2095
  211BOLB   C4B 5052   1.041  16.938  17.341  0.0392 -0.1392  0.1494
  211BOLB   NC2 5053   3.040  15.781  21.426  0.1094  0.0602 -0.1553
  211BOLB   PO2 5054   3.012  15.704  20.890  0.0404 -0.3687 -0.1029
  211BOLB   GL3 5055   2.998  15.649  20.439  0.0035 -0.2183 -0.0160
  211BOLB   GL4 5056   2.788  15.382  20.318 -0.2252 -0.1234  0.2788
  211BOLB   C1C 5057   2.871  15.756  19.999  0.1665  0.0520  0.1018
  211BOLB   C2C 5058   2.944  15.997  19.616  0.2554  0.0656 -0.4448
  211BOLB   C3C 5059   2.926  16.337  19.280  0.0696  0.4014  0.2807
  211BOLB   C4C 5060   2.884  16.643  18.995  0.1361  0.0234 -0.0909
  211BOLB   C1D 5061   2.600  15.349  19.876 -0.1246  0.2768 -0.1367
  211BOLB   C2D 5062   2.682  15.600  19.475  0.2388  0.2354  0.0613
  211BOLB   C3D 5063   2.707  15.903  19.092 -0.0901  0.0362 -0.4491
  211BOLB   C4D 5064   2.750  16.158  18.766 -0.1483  0.3143 -0.2393
  212BOLB   NC1 5065   3.319  23.739  17.206  0.0259 -0.0286 -0.0112
  212BOLB   PO1 5066   3.472  23.530  17.562 -0.1227 -0.3243 -0.1071
  212BOLB   GL1 5067   3.262  23.551  17.954 -0.1278 -0.0640  0.2136
  212BOLB   GL2 5068   3.169  23.469  18.232 -0.1090  0.3666  0.3435
  212BOLB   C1A 5069   3.172  23.937  18.167  0.2041  0.1633  0.2624
  212BOLB   C2A 5070   2.902  24.053  18.412  0.1407 -0.1799  0.2917
  212BOLB   C3A 5071   2.755  24.454  18.567  0.1291  0.0881  0.0060
  212BOLB   C4A 5072   2.422  24.777  18.677  0.1277 -0.1677  0.0063
  212BOLB   C1B 5073   2.881  23.492  18.549 -0.0588 -0.2066 -0.0784
  212BOLB   C2B 5074   2.826  23.410  19.071  0.0248  0.1617 -0.0743
  212BOLB   C3B 5075   2.528  23.400  19.415 -0.2303 -0.0113  0.4825
  212BOLB   C4B 5076   2.206  23.268  19.611 -0.2116 -0.0345  0.1147
  212BOLB   NC2 5077   1.224  26.975  20.084 -0.4067 -0.0571 -0.1140
  212BOLB   PO2 5078   0.997  26.518  19.873 -0.2072 -0.0239 -0.0453
  212BOLB   GL3 5079   1.140  26.100  19.734 -0.3459  0.0220  0.1682
  212BOLB   GL4 5080   1.197  25.851  19.880 -0.0731 -0.4365  0.1371
  212BOLB   C1C 5081   1.403  25.813  19.409  0.2640 -0.0501 -0.2543
  212BOLB   C2C 5082   1.759  25.790  19.123  0.2418  0.1809 -0.0705
  212BOLB   C3C 5083   1.984  25.369  18.883 -0.0256  0.1393  0.1875
  212BOLB   C4C 5084   2.004  24.948  18.826  0.2503  0.0532  0.1831
  212BOLB   C1D 5085   1.661  26.032  19.867  0.3431 -0.0257 -0.2515
  212BOLB   C2D 5086   1.881  26.184  19.582 -0.2726  0.4411  0.0552
  212BOLB   C3D 5087   1.775  26.305  19.231 -0.0875  0.3599  0.1104
  212BOLB   C4D 5088   1.517  26.183  18.754 -0.2209 -0.0316 -0.3745
  213BOLB   NC1 5089   3.664  18.756  17.796 -0.0129  0.1946  0.2813
  213BOLB   PO1 5090   3.315  18.924  17.916 -0.0372  0.2982  0.1898
  213BOLB   GL1 5091   3.007  18.855  18.231  0.2155  0.1151 -0.2138
  213BOLB   GL2 5092   2.841  18.555  18.139 -0.0636 -0.2034  0.0938
  213BOLB   C1A 5093   3.013  18.750  18.723 -0.0270 -0.3144  0.2165
  213BOLB   C2A 5094   2.824  18.571  19.065 -0.2078  0.0792  0.2966
  213BOLB   C3A 5095   2.904  18.674  19.463  0.3195 -0.1834  0.0765
  213BOLB   C4A 5096   3.211  18.775  19.754  0.0226  0.0361  0.0742
  213BOLB   C1B 5097   2.967  18.273  18.559  0.3295  0.0919 -0.3775
  213BOLB   C2B 5098   3.195  18.132  18.918  0.0878 -0.2619  0.2204
  213BOLB   C3B 5099   3.267  18.371  19.300 -0.2293  0.0791  0.1917
  213BOLB   C4B 5100   3.680  18.518  19.561 -0.0445  0.4966 -0.1026
  213BOLB   NC2 5101   3.989  17.782  22.217 -0.1744  0.0326 -0.0721
  213BOLB   PO2 5102   4.173  18.067  22.033 -0.2119 -0.0877 -0.5470
  213BOLB   GL3 5103   4.285  18.137  21.561 -0.1315 -0.0360  0.0872
  213BOLB   GL4 5104   4.478  17.889  21.438  0.3907 -0.2115  0.2590
  213BOLB   C1C 5105   4.042  18.206  21.243  0.5147 -0.1148  0.0663
  213BOLB   C2C 5106   3.807  18.460  20.950  0.0217  0.1328 -0.0448
  213BOLB   C3C 5107   3.616  18.600  20.601  0.0131  0.0189 -0.0722
  213BOLB   C4C 5108   3.425  18.826  20.238  0.0992 -0.0350  0.0254
  213BOLB   C1D 5109   4.263  17.841  21.023 -0.1690  0.0751 -0.0524
  213BOLB   C2D 5110   4.249  17.684  20.563  0.3688  0.1714 -0.2003
  213BOLB   C3D 5111   4.079  17.886  20.004  0.1926 -0.3103 -0.1489
  213BOLB   C4D 5112   4.175  17.725  19.628 -0.0343  0.1225 -0.0289
  214BOLB   NC1 5113   7.551  17.991   2.693 -0.1400  0.0866 -0.0243
  214BOLB   PO1 5114   7.160  17.929   2.541  0.0752 -0.0351  0.2143
  214BOLB   GL1 5115   7.050  17.567   2.082  0.1964 -0.0030  0.0702
  214BOLB   GL2 5116   6.726  17.803   1.885 -0.1521 -0.2472  0.1317
  214BOLB   C1A 5117   7.185  17.506   1.666 -0.0826 -0.0929 -0.0328
  214BOLB   C2A 5118   7.400  17.201   1.429  0.2030 -0.0237  0.1271
  214BOLB   C3A 5119   7.670  17.008   1.130 -0.0188 -0.2226 -0.1528
  214BOLB   C4A 5120   8.110  17.038   0.955  0.1861 -0.0971 -0.2140
  214BOLB   C1B 5121   6.815  17.839   1.431 -0.3394 -0.4815  0.0871
  214BOLB   C2B 5122   6.893  17.880   0.948 -0.1947  0.2539  0.2005
  214BOLB   C3B 5123   6.797  17.652   0.474  0.1598 -0.1252 -0.0758
  214BOLB   C4B 5124   6.776  17.329   0.147  0.2942  0.0157  0.2920
  214BOLB   NC2 5125   9.401  17.060  -1.259 -0.1611 -0.2806 -0.2645
  214BOLB   PO2 5126   9.400  16.676  -1.115  0.2556 -0.0254 -0.1299
  214BOLB   GL3 5127   9.037  16.847  -0.884  0.0483  0.0084 -0.2305
  214BOLB   GL4 5128   8.812  17.113  -0.906  0.0131  0.0503 -0.0646
  214BOLB   C1C 5129   8.823  16.866  -0.463 -0.2737  0.0173  0.1270
  214BOLB   C2C 5130   8.601  17.014  -0.128 -0.4765 -0.2115  0.1414
  214BOLB   C3C 5131   8.378  16.897   0.262 -0.2181  0.2881  0.1183
  214BOLB   C4C 5132   8.170  16.916   0.592  0.0914 -0.0185 -0.0789
  214BOLB   C1D 5133   8.631  17.373  -0.623  0.0873 -0.1359  0.0167
  214BOLB   C2D 5134   8.659  17.589  -0.161  0.4672  0.0266  0.4520
  214BOLB   C3D 5135   8.970  17.722   0.143  0.0934  0.0560  0.3161
  214BOLB   C4D 5136   9.090  17.626   0.599 -0.1284  0.1338 -0.0555
  215BOLB   NC1 5137  35.998  10.865  18.410 -0.1875 -0.1242  0.0398
  215BOLB   PO1 5138  35.698  11.114  18.686  0.1724  0.1583  0.2753
  215BOLB   GL1 5139  35.760  11.308  18.320 -0.2169  0.0412  0.4800
  215BOLB   GL2 5140  36.016  11.253  18.057  0.0926 -0.3007 -0.0517
  215BOLB   C1A 5141  35.628  11.608  18.141 -0.2710 -0.2854  0.1723
  215BOLB   C2A 5142  35.560  11.928  17.777 -0.1259  0.1148 -0.0692
  215BOLB   C3A 5143  35.739  12.430  17.705  0.4455 -0.1992 -0.2448
  215BOLB   C4A 5144  35.661  12.779  17.869  0.0492  0.3108  0.2544
  215BOLB   C1B 5145  35.641  11.250  17.755  0.2498 -0.0932 -0.0119
  215BOLB   C2B 5146  35.241  11.529  17.902 -0.0632 -0.2537  0.1694
  215BOLB   C3B 5147  34.964  11.894  17.844 -0.1435 -0.1071 -0.1381
  215BOLB   C4B 5148  35.219  12.229  17.748  0.0741  0.1898  0.1061
  215BOLB   NC2 5149  35.070  12.298  20.048 -0.0262  0.0259  0.0325
  215BOLB   PO2 5150  34.766  12.349  19.649 -0.1179  0.1224  0.3168
  215BOLB   GL3 5151  34.891  12.688  19.355  0.3260  0.0461 -0.0929
  215BOLB   GL4 5152  34.726  12.882  19.128  0.1250  0.1675  0.0132
  215BOLB   C1C 5153  35.075  13.177  19.313  0.0037  0.0803  0.2253
  215BOLB   C2C 5154  35.274  13.459  18.973  0.2502  0.1034  0.1077
  215BOLB   C3C 5155  35.404  13.397  18.510  0.1279 -0.0270 -0.1100
  215BOLB   C4C 5156  35.506  13.050  18.108  0.0673 -0.2661  0.4038
  215BOLB   C1D 5157  34.961  12.963  18.834 -0.0057  0.0263 -0.0007
  215BOLB   C2D 5158  35.011  13.213  18.338 -0.3449 -0.0899  0.0329
  215BOLB   C3D 5159  35.220  13.421  17.964 -0.2596  0.2238 -0.2940
  215BOLB   C4D 5160  35.271  13.648  17.442 -0.1317  0.2121 -0.0479
  216BOLB   NC1 5161   3.839  24.653  17.058 -0.0475 -0.4579 -0.2378
  216BOLB   PO1 5162   3.602  25.048  17.296 -0.0024 -0.1132  0.0577
  216BOLB   GL1 5163   3.640  25.250  17.653  0.1387 -0.2443  0.1659
  216BOLB   GL2 5164   3.824  25.472  17.435  0.3484  0.1418  0.1131
  216BOLB   C1A 5165   3.747  25.225  18.124  0.0572 -0.0504  0.1072
  216BOLB   C2A 5166   3.444  25.108  18.447 -0.2489 -0.2678  0.0160
  216BOLB   C3A 5167   3.182  25.437  18.635 -0.1163 -0.0845  0.0487
  216BOLB   C4A 5168   3.173  25.719  18.953 -0.0669 -0.0014  0.1755
  216BOLB   C1B 5169   3.798  25.746  17.765  0.0892  0.1589 -0.2675
  216BOLB   C2B 5170   3.858  26.000  18.181  0.1667  0.0244  0.0212
  216BOLB   C3B 5171   3.742  26.096  18.576 -0.0703  0.1485 -0.0735
  216BOLB   C4B 5172   3.660  26.186  19.072  0.0972 -0.0802 -0.2380
  216BOLB   NC2 5173   3.779  27.638  20.555 -0.2134  0.1673 -0.0890
  216BOLB   PO2 5174   3.434  27.363  20.536 -0.4325 -0.3844 -0.0702
  216BOLB   GL3 5175   3.413  27.110  20.153 -0.0420  0.1745 -0.1293
  216BOLB   GL4 5176   3.147  27.162  20.157 -0.1954  0.1803  0.0042
  216BOLB   C1C 5177   3.506  26.821  19.916  0.0093 -0.0950  0.1398
  216BOLB   C2C 5178   3.416  26.511  19.787 -0.3506  0.2910 -0.2077
  216BOLB   C3C 5179   3.395  26.405  19.401 -0.3193  0.0092 -0.3284
  216BOLB   C4C 5180   3.140  26.013  19.273  0.1723  0.2716 -0.1193
  216BOLB   C1D 5181   3.041  26.992  19.775  0.1410  0.3639 -0.0160
  216BOLB   C2D 5182   3.007  26.645  19.502  0.0247  0.0793 -0.3469
  216BOLB   C3D 5183   3.098  26.421  19.040  0.1560 -0.4574  0.4636
  216BOLB   C4D 5184   3.243  26.126  18.731 -0.0407 -0.1192 -0.0309
  217BOLB   NC1 5185  12.614  17.596  12.779  0.1245  0.0887  0.0285
  217BOLB   PO1 5186  12.865  17.440  12.968  0.0518  0.0491 -0.0045
  217BOLB   GL1 5187  13.353  17.346  12.846  0.1476 -0.0194  0.0811
  217BOLB   GL2 5188  13.491  17.589  12.648  0.2155 -0.0976  0.0235
  217BOLB   C1A 5189  13.735  17.092  12.905 -0.4430  0.2640  0.1223
  217BOLB   C2A 5190  13.951  16.793  13.152 -0.0965 -0.0035  0.1360
  217BOLB   C3A 5191  14.265  16.763  13.435 -0.6067 -0.0191  0.0094
  217BOLB   C4A 5192  14.496  16.660  13.674 -0.0787  0.2924 -0.1596
  217BOLB   C1B 5193  13.822  17.586  12.974 -0.0050 -0.0117  0.2771
  217BOLB   C2B 5194  14.178  17.607  12.894  0.1063  0.0501  0.0550
  217BOLB   C3B 5195  14.487  17.269  13.168  0.2732  0.3634 -0.0562
  217BOLB   C4B 5196  14.776  17.064  13.415  0.0506 -0.1988  0.0017
  217BOLB   NC2 5197  14.920  14.172  14.032  0.0615  0.0951 -0.1320
  217BOLB   PO2 5198  15.057  14.447  14.416 -0.0353  0.0471  0.1655
  217BOLB   GL3 5199  14.772  14.827  14.407 -0.2912 -0.2249  0.1530
  217BOLB   GL4 5200  14.776  15.005  14.743 -0.0568 -0.2788 -0.0323
  217BOLB   C1C 5201  14.699  15.287  14.250  0.0598  0.1322 -0.1807
  217BOLB   C2C 5202  14.618  15.615  14.123 -0.0600 -0.1815 -0.1482
  217BOLB   C3C 5203  14.801  15.934  14.000 -0.1146 -0.0145  0.0811
  217BOLB   C4C 5204  14.600  16.413  14.017 -0.2128  0.2395  0.0950
  217BOLB   C1D 5205  14.750  15.462  14.763  0.0678  0.0459 -0.0179
  217BOLB   C2D 5206  14.445  15.696  14.882  0.2276 -0.2407  0.0059
  217BOLB   C3D 5207  14.238  15.796  14.516 -0.0928  0.3304 -0.3881
  217BOLB   C4D 5208  14.268  16.053  14.147 -0.3351  0.3118 -0.1195
  218BOLB   NC1 5209  13.799  14.214   2.251  0.2266  0.0637  0.2153
  218BOLB   PO1 5210  13.736  13.880   2.561  0.2283  0.0405  0.0892
  218BOLB   GL1 5211  13.785  14.200   2.750  0.0821 -0.4387  0.0034
  218BOLB   GL2 5212  13.328  14.027   2.792  0.2176  0.0141 -0.1847
  218BOLB   C1A 5213  13.545  14.559   2.822 -0.3027  0.2084 -0.5071
  218BOLB   C2A 5214  13.271  14.811   3.152  0.1968 -0.0298 -0.0674
  218BOLB   C3A 5215  13.096  14.956   3.539  0.2208  0.2224  0.3333
  218BOLB   C4A 5216  12.966  15.267   3.904  0.4754 -0.1041  0.0644
  218BOLB   C1B 5217  13.006  14.093   3.073  0.3804  0.0107 -0.1544
  218BOLB   C2B 5218  12.983  14.110   3.566 -0.3447 -0.0444 -0.1055
  218BOLB   C3B 5219  13.002  14.522   3.752 -0.1195 -0.0171  0.0188
  218BOLB   C4B 5220  12.711  14.837   4.010 -0.2284 -0.0202  0.1784
  218BOLB   NC2 5221  11.975  16.812   5.118  0.0399 -0.0297  0.1015
  218BOLB   PO2 5222  12.373  16.759   5.611  0.0030  0.2762  0.0287
  218BOLB   GL3 5223  12.328  16.486   5.303 -0.0503 -0.1371 -0.0860
  218BOLB   GL4 5224  12.612  16.536   5.163  0.3484 -0.1073  0.0035
  218BOLB   C1C 5225  12.257  16.239   5.005  0.3884  0.0753  0.0097
  218BOLB   C2C 5226  12.534  16.054   4.769  0.0601  0.0606 -0.0465
  218BOLB   C3C 5227  12.659  15.706   4.514 -0.0971 -0.0679 -0.0754
  218BOLB   C4C 5228  12.679  15.509   4.143 -0.0960  0.0788 -0.0354
  218BOLB   C1D 5229  12.851  16.208   5.077 -0.2848  0.1202 -0.0350
  218BOLB   C2D 5230  13.053  15.940   4.866  0.2339 -0.0270 -0.3512
  218BOLB   C3D 5231  13.055  15.537   4.703 -0.0423  0.0241  0.4487
  218BOLB   C4D 5232  13.420  15.184   4.521 -0.0073  0.2271  0.0165
  219BOLB   NC1 5233  13.450  17.305   6.154  0.2643 -0.1179 -0.2899
  219BOLB   PO1 5234  13.639  17.626   6.327  0.3317  0.0859  0.1953
  219BOLB   GL1 5235  13.967  17.321   6.218 -0.3264 -0.0268  0.2444
  219BOLB   GL2 5236  13.944  17.094   6.294 -0.0470  0.4077  0.0936
  219BOLB   C1A 5237  14.455  17.104   6.108 -0.1933  0.1618 -0.1722
  219BOLB   C2A 5238  14.671  16.732   6.157 -0.1591 -0.1786  0.0041
  219BOLB   C3A 5239  14.518  16.309   6.260  0.0568 -0.1871  0.0148
  219BOLB   C4A 5240  14.583  15.971   5.994 -0.0375 -0.2444  0.1659
  219BOLB   C1B 5241  14.168  16.695   6.314  0.1325  0.0677 -0.0076
  219BOLB   C2B 5242  14.204  16.462   5.970  0.0786  0.0494  0.1120
  219BOLB   C3B 5243  14.290  16.247   5.685 -0.2619  0.1269 -0.0528
  219BOLB   C4B 5244  14.216  15.854   5.458  0.2433  0.4519  0.2113
  219BOLB   NC2 5245  16.958  15.134   5.975  0.1581  0.0389  0.0129
  219BOLB   PO2 5246  16.757  14.926   5.873 -0.2727  0.3874  0.0194
  219BOLB   GL3 5247  16.388  15.240   5.780 -0.0175  0.0630  0.1506
  219BOLB   GL4 5248  16.541  15.506   5.874  0.3773  0.0588 -0.1851
  219BOLB   C1C 5249  15.924  15.336   5.623 -0.1883  0.2123 -0.1116
  219BOLB   C2C 5250  15.611  15.526   5.830  0.0691  0.1530 -0.1136
  219BOLB   C3C 5251  15.114  15.640   5.909 -0.1840  0.2853  0.1316
  219BOLB   C4C 5252  14.654  15.677   5.726 -0.0592 -0.0368  0.1368
  219BOLB   C1D 5253  16.269  15.837   5.862 -0.0728 -0.1316 -0.0842
  219BOLB   C2D 5254  15.876  15.962   5.627 -0.1641  0.2354 -0.2967
  219BOLB   C3D 5255  15.433  16.026   5.650  0.1063 -0.0559 -0.0457
  219BOLB   C4D 5256  15.062  16.168   5.772 -0.5056  0.3347 -0.1114
  220BOLB   NC1 5257   2.428  24.412  16.565  0.0391  0.1323 -0.1437
  220BOLB   PO1 5258   2.177  24.085  16.735 -0.0549  0.4502  0.2893
  220BOLB   GL1 5259   1.951  24.261  16.936  0.0157  0.3504  0.1509
  220BOLB   GL2 5260   2.123  24.510  17.189  0.0555 -0.1343  0.1840
  220BOLB   C1A 5261   1.904  24.115  17.406 -0.1595 -0.1985  0.3383
  220BOLB   C2A 5262   1.653  24.070  17.781 -0.0800 -0.1181 -0.1165
  220BOLB   C3A 5263   1.659  24.015  18.322 -0.1141  0.1954 -0.0424
  220BOLB   C4A 5264   1.470  24.162  18.714  0.0174 -0.0777  0.1335
  220BOLB   C1B 5265   2.001  24.847  17.228 -0.0094 -0.1350  0.0033
  220BOLB   C2B 5266   1.673  24.988  17.449 -0.0762 -0.4709 -0.0505
  220BOLB   C3B 5267   1.221  25.051  17.539  0.3795  0.1324  0.1103
  220BOLB   C4B 5268   0.767  24.880  17.617  0.2049  0.1325 -0.0102
  220BOLB   NC2 5269   0.933  25.998  20.285 -0.1383 -0.1741  0.2816
  220BOLB   PO2 5270   1.082  25.658  20.649  0.1980  0.1811 -0.0013
  220BOLB   GL3 5271   1.105  25.433  20.205  0.3184  0.2028  0.0847
  220BOLB   GL4 5272   0.886  25.452  19.901  0.0290  0.1617 -0.0781
  220BOLB   C1C 5273   1.343  25.339  19.745 -0.2425  0.0275  0.2386
  220BOLB   C2C 5274   1.457  24.965  19.648 -0.3651 -0.1406 -0.0975
  220BOLB   C3C 5275   1.543  24.545  19.534  0.1741  0.2303  0.4623
  220BOLB   C4C 5276   1.382  24.383  19.082  0.0867  0.0554  0.1787
  220BOLB   C1D 5277   0.585  25.255  19.478 -0.0319  0.1321 -0.1238
  220BOLB   C2D 5278   0.635  24.909  19.244  0.1185  0.0655  0.1664
  220BOLB   C3D 5279   0.680  24.716  18.848 -0.0710  0.0775  0.1028
  220BOLB   C4D 5280   0.947  24.289  18.827  0.1957 -0.4186  0.1707
  221BOLB   NC1 5281   1.825  19.229  21.965 -0.0505  0.3429 -0.3485
  221BOLB   PO1 5282   1.659  18.958  21.642 -0.1705 -0.1077  0.0464
  221BOLB   GL1 5283   1.533  19.021  21.325 -0.1645 -0.4524  0.0499
  221BOLB   GL2 5284   1.468  19.293  21.143  0.0024 -0.0794 -0.0467
  221BOLB   C1A 5285   1.456  18.748  20.994 -0.4827  0.2096  0.1935
  221BOLB   C2A 5286   1.537  18.793  20.591 -0.3614 -0.1747  0.0463
  221BOLB   C3A 5287   1.136  18.778  20.278 -0.2244  0.0368 -0.0375
  221BOLB   C4A 5288   0.843  18.871  20.089 -0.0909 -0.0062  0.1936
  221BOLB   C1B 5289   1.431  19.242  20.711 -0.4275 -0.2867 -0.1028
  221BOLB   C2B 5290   1.439  19.275  20.326  0.1587 -0.0026 -0.0907
  221BOLB   C3B 5291   1.310  19.137  19.902  0.2957  0.1269 -0.1420
  221BOLB   C4B 5292   1.358  18.620  19.790 -0.0718 -0.0033  0.1144
  221BOLB   NC2 5293  -0.671  19.078  21.303 -0.0425 -0.1176  0.1362
  221BOLB   PO2 5294  -0.756  18.690  21.249 -0.0651  0.2968  0.1383
  221BOLB   GL3 5295  -0.784  18.363  20.923 -0.0372 -0.1887 -0.2382
  221BOLB   GL4 5296  -1.102  18.460  20.733  0.1180 -0.1094  0.0863
  221BOLB   C1C 5297  -0.577  18.421  20.543 -0.0496  0.4201 -0.0089
  221BOLB   C2C 5298  -0.332  18.582  20.118 -0.2178 -0.0775 -0.1046
  221BOLB   C3C 5299   0.079  18.630  20.038  0.3603  0.1732 -0.2013
  221BOLB   C4C 5300   0.498  18.745  19.960 -0.1451  0.0675 -0.1647
  221BOLB   C1D 5301  -1.041  18.265  20.317  0.0843 -0.2807  0.1107
  221BOLB   C2D 5302  -0.843  18.269  19.922 -0.1550  0.3011 -0.1202
  221BOLB   C3D 5303  -0.601  18.304  19.576 -0.2889 -0.2897 -0.2712
  221BOLB   C4D 5304  -0.449  18.324  19.116 -0.1454  0.4810  0.2993
  222BOLB   NC1 5305  13.058  17.093   9.414 -0.0810  0.0487 -0.0038
  222BOLB   PO1 5306  13.375  16.662   9.326  0.1969 -0.0817  0.1928
  222BOLB   GL1 5307  13.685  16.421   9.472 -0.3722 -0.3242 -0.1208
  222BOLB   GL2 5308  13.701  16.497   9.817  0.0733 -0.3018  0.2494
  222BOLB   C1A 5309  14.020  16.020   9.426  0.1412  0.0134  0.0504
  222BOLB   C2A 5310  14.205  15.568   9.515 -0.0374  0.0992 -0.0557
  222BOLB   C3A 5311  14.522  15.481   9.809  0.0488 -0.3059 -0.0358
  222BOLB   C4A 5312  14.595  15.678  10.218 -0.0351  0.1492 -0.0302
  222BOLB   C1B 5313  14.063  16.243   9.855  0.4419 -0.2021 -0.2839
  222BOLB   C2B 5314  14.376  15.970   9.889  0.1831  0.2549  0.0326
  222BOLB   C3B 5315  14.766  15.880   9.757  0.0032 -0.2906 -0.1658
  222BOLB   C4B 5316  14.994  16.081  10.115 -0.0857 -0.1025  0.3831
  222BOLB   NC2 5317  16.907  14.675  11.534  0.3502 -0.2851 -0.0306
  222BOLB   PO2 5318  16.729  14.605  11.153 -0.0592 -0.0614  0.1910
  222BOLB   GL3 5319  16.392  14.768  10.895 -0.0425  0.0838 -0.1139
  222BOLB   GL4 5320  16.027  14.545  10.747 -0.1149  0.2254 -0.1218
  222BOLB   C1C 5321  15.951  15.058  10.808 -0.3215 -0.1219  0.0649
  222BOLB   C2C 5322  15.575  15.081  10.556 -0.2410  0.0738 -0.2803
  222BOLB   C3C 5323  15.224  15.379  10.415  0.0428  0.0001 -0.1105
  222BOLB   C4C 5324  14.872  15.663  10.421  0.2899  0.3489 -0.1665
  222BOLB   C1D 5325  15.638  14.614  10.525 -0.2563 -0.1185 -0.0388
  222BOLB   C2D 5326  15.523  14.695  10.141  0.1422 -0.2540  0.0364
  222BOLB   C3D 5327  15.304  15.034  10.001 -0.1111 -0.0569  0.0074
  222BOLB   C4D 5328  15.419  15.263   9.700  0.1318 -0.1104 -0.0426
  223BOLB   NC1 5329  11.952  17.501  13.385 -0.0970  0.3795 -0.2154
  223BOLB   PO1 5330  12.074  17.104  13.429 -0.1628  0.4249 -0.0873
  223BOLB   GL1 5331  12.338  16.763  13.551  0.1450  0.1140  0.0030
  223BOLB   GL2 5332  12.166  16.496  13.556  0.0445  0.4005 -0.1419
  223BOLB   C1A 5333  12.516  16.621  13.985 -0.0114 -0.0483  0.0604
  223BOLB   C2A 5334  12.737  16.342  14.322 -0.0621 -0.0381 -0.0443
  223BOLB   C3A 5335  12.538  16.113  14.708  0.3378 -0.2251 -0.2663
  223BOLB   C4A 5336  12.804  15.982  15.037  0.0315  0.1434  0.2315
  223BOLB   C1B 5337  12.274  16.199  13.853 -0.2747 -0.0753  0.0665
  223BOLB   C2B 5338  12.324  16.027  14.238  0.4199 -0.0893 -0.2760
  223BOLB   C3B 5339  12.394  15.631  14.369  0.2503  0.0374  0.0822
  223BOLB   C4B 5340  12.441  15.168  14.354  0.1125  0.2470  0.0549
  223BOLB   NC2 5341  13.744  13.820  15.762  0.3025 -0.2764 -0.3285
  223BOLB   PO2 5342  13.860  14.076  16.092  0.2076 -0.0772  0.0477
  223BOLB   GL3 5343  13.469  14.227  15.840 -0.0377 -0.0022 -0.4139
  223BOLB   GL4 5344  13.374  14.465  15.762  0.1421 -0.0582  0.1473
  223BOLB   C1C 5345  12.935  14.446  15.759  0.1517 -0.1277  0.1759
  223BOLB   C2C 5346  12.745  14.842  15.821  0.2418 -0.1232 -0.0773
  223BOLB   C3C 5347  12.875  15.276  15.682 -0.0106 -0.2394  0.1200
  223BOLB   C4C 5348  12.744  15.680  15.392 -0.0735  0.1791 -0.1787
  223BOLB   C1D 5349  13.151  14.800  15.473  0.2884  0.0654  0.0557
  223BOLB   C2D 5350  13.173  15.207  15.232 -0.2822  0.0711  0.0876
  223BOLB   C3D 5351  12.887  15.450  14.987 -0.1474  0.2113 -0.1442
  223BOLB   C4D 5352  12.838  15.530  14.554 -0.1562 -0.0379 -0.3568
  224BOLB   NC1 5353  13.211  17.669  13.258  0.1158 -0.1557 -0.0953
  224BOLB   PO1 5354  13.312  17.945  12.895 -0.2530 -0.2409 -0.1799
  224BOLB   GL1 5355  13.687  18.067  13.092 -0.0754 -0.2841 -0.2078
  224BOLB   GL2 5356  13.666  17.938  13.362 -0.1275  0.1471  0.3320
  224BOLB   C1A 5357  14.089  18.135  13.118 -0.3899 -0.1405  0.1340
  224BOLB   C2A 5358  14.439  17.869  13.317 -0.2186  0.0119 -0.2144
  224BOLB   C3A 5359  14.596  17.661  13.637 -0.2230  0.0236  0.0610
  224BOLB   C4A 5360  14.714  17.573  14.059 -0.2096  0.0643 -0.1606
  224BOLB   C1B 5361  13.934  17.651  13.537  0.1658 -0.3076  0.2110
  224BOLB   C2B 5362  14.038  17.254  13.421 -0.1832  0.1165  0.0088
  224BOLB   C3B 5363  13.774  16.944  13.596  0.2499 -0.0287  0.0924
  224BOLB   C4B 5364  13.482  16.552  13.685 -0.3027  0.1584 -0.0241
  224BOLB   NC2 5365  15.895  16.779  16.505 -0.0809 -0.2842 -0.0462
  224BOLB   PO2 5366  15.988  17.077  16.233  0.0518  0.1164 -0.0441
  224BOLB   GL3 5367  15.894  17.263  15.890 -0.2635 -0.0795 -0.1516
  224BOLB   GL4 5368  15.691  17.539  15.917  0.0796 -0.1157  0.0100
  224BOLB   C1C 5369  15.510  17.175  15.655  0.2032  0.2573  0.3073
  224BOLB   C2C 5370  15.178  17.166  15.262 -0.0208 -0.0104  0.1339
  224BOLB   C3C 5371  14.880  17.343  14.968  0.0403 -0.0411  0.2041
  224BOLB   C4C 5372  14.803  17.508  14.457 -0.1949 -0.2234 -0.2761
  224BOLB   C1D 5373  15.341  17.601  15.533 -0.0077  0.3395  0.1139
  224BOLB   C2D 5374  14.888  17.469  15.477 -0.3533 -0.1495  0.0512
  224BOLB   C3D 5375  14.430  17.445  15.250  0.0244 -0.1636 -0.2859
  224BOLB   C4D 5376  13.993  17.305  15.058  0.0785  0.0128 -0.2301
  225BOLB   NC1 5377  14.492  24.026  12.220  0.0529 -0.4803  0.1480
  225BOLB   PO1 5378  14.420  24.205  12.574 -0.3251  0.1187 -0.1560
  225BOLB   GL1 5379  14.784  24.272  12.609 -0.0954  0.0399  0.1338
  225BOLB   GL2 5380  14.891  24.403  12.318 -0.0120 -0.1408 -0.1575
  225BOLB   C1A 5381  15.239  24.125  12.693 -0.2032  0.2083 -0.1024
  225BOLB   C2A 5382  15.654  24.271  12.767 -0.1703 -0.4505 -0.1560
  225BOLB   C3A 5383  16.027  24.023  12.659  0.1150 -0.3171 -0.3927
  225BOLB   C4A 5384  16.545  24.197  12.688  0.1794  0.2104  0.0271
  225BOLB   C1B 5385  15.309  24.587  12.531 -0.1153  0.0085 -0.0695
  225BOLB   C2B 5386  15.617  24.754  12.365  0.0991  0.2604  0.0028
  225BOLB   C3B 5387  15.959  25.010  12.437 -0.0431  0.0830 -0.4194
  225BOLB   C4B 5388  16.020  25.231  12.187 -0.1482 -0.0409 -0.0245
  225BOLB   NC2 5389  18.903  23.593  13.304  0.2652 -0.1172 -0.0740
  225BOLB   PO2 5390  18.551  23.649  13.363  0.0515 -0.3236 -0.1638
  225BOLB   GL3 5391  18.096  23.592  13.442 -0.0704 -0.1112  0.1524
  225BOLB   GL4 5392  18.169  23.540  13.067  0.0633  0.0802 -0.1652
  225BOLB   C1C 5393  17.734  23.651  13.245 -0.0658  0.1118 -0.0461
  225BOLB   C2C 5394  17.579  23.800  12.946 -0.1597  0.0704  0.2446
  225BOLB   C3C 5395  17.242  23.795  12.727  0.0321 -0.2947 -0.2229
  225BOLB   C4C 5396  16.940  24.117  12.586 -0.2347 -0.0040 -0.0147
  225BOLB   C1D 5397  18.092  23.122  12.894 -0.1057  0.3372  0.1579
  225BOLB   C2D 5398  17.858  23.002  12.546  0.1945  0.1029  0.0313
  225BOLB   C3D 5399  17.883  22.987  12.019 -0.0087  0.1176 -0.0897
  225BOLB   C4D 5400  18.205  22.972  11.686  0.3119  0.0846 -0.1205
  226BOLB   NC1 5401   7.185  17.899  17.872 -0.0600  0.0344  0.0077
  226BOLB   PO1 5402   7.602  18.015  17.742 -0.0812 -0.1507 -0.3457
  226BOLB   GL1 5403   7.780  18.002  18.211  0.0434  0.2651 -0.2181
  226BOLB   GL2 5404   7.951  18.244  18.316 -0.0243 -0.2248  0.0241
  226BOLB   C1A 5405   8.006  17.550  18.550  0.0427 -0.1379  0.0408
  226BOLB   C2A 5406   7.622  17.188  18.545 -0.1824 -0.0983 -0.0584
  226BOLB   C3A 5407   7.312  16.762  18.546 -0.1363 -0.3910  0.0611
  226BOLB   C4A 5408   7.422  16.523  18.823  0.1129 -0.2102  0.0635
  226BOLB   C1B 5409   7.852  18.001  18.702  0.1717  0.3317  0.0074
  226BOLB   C2B 5410   8.107  17.752  19.056  0.1532 -0.1113 -0.2881
  226BOLB   C3B 5411   8.502  17.895  19.207  0.5077  0.3426 -0.1790
  226BOLB   C4B 5412   8.664  17.877  19.653 -0.1950 -0.3764  0.2438
  226BOLB   NC2 5413   7.470  15.032  21.042  0.0807  0.0233 -0.0801
  226BOLB   PO2 5414   7.764  14.806  20.829 -0.1017  0.0122  0.1844
  226BOLB   GL3 5415   7.708  15.097  20.439  0.1738 -0.0645 -0.0660
  226BOLB   GL4 5416   7.910  15.263  20.406 -0.1080  0.4154  0.0419
  226BOLB   C1C 5417   7.768  15.106  19.952 -0.1157 -0.2510  0.1562
  226BOLB   C2C 5418   7.751  15.533  19.737 -0.2024  0.1911 -0.0655
  226BOLB   C3C 5419   7.622  15.829  19.390 -0.0228  0.0896  0.0761
  226BOLB   C4C 5420   7.592  16.122  19.010 -0.2054 -0.0164  0.2594
  226BOLB   C1D 5421   7.898  15.724  20.252  0.0573  0.0605 -0.1815
  226BOLB   C2D 5422   7.812  16.127  19.937 -0.3242 -0.0021 -0.4487
  226BOLB   C3D 5423   7.713  16.366  19.537  0.0279  0.1629  0.4430
  226BOLB   C4D 5424   7.308  16.400  19.302 -0.3632  0.0413 -0.0685
  227BOLB   NC1 5425   0.187  25.385  11.199  0.3647  0.1828 -0.0870
  227BOLB   PO1 5426  -0.162  25.246  10.956  0.0320  0.0854  0.3597
  227BOLB   GL1 5427  -0.516  25.488  10.879 -0.1905  0.0209 -0.1333
  227BOLB   GL2 5428  -0.465  25.815  11.002 -0.1014  0.1758 -0.3124
  227BOLB   C1A 5429  -0.936  25.768  10.818  0.1791 -0.2030 -0.1740
  227BOLB   C2A 5430  -1.152  26.147  10.884  0.0806 -0.1417 -0.1072
  227BOLB   C3A 5431  -1.422  26.313  11.037  0.0721  0.2849 -0.0023
  227BOLB   C4A 5432  -1.618  26.449  11.353 -0.1937 -0.0842 -0.1814
  227BOLB   C1B 5433  -0.730  26.061  11.241 -0.0280 -0.1511  0.1047
  227BOLB   C2B 5434  -0.699  26.376  11.455  0.1317 -0.3143 -0.0291
  227BOLB   C3B 5435  -0.736  26.836  11.566 -0.2382 -0.0431  0.0706
  227BOLB   C4B 5436  -0.925  27.189  11.608 -0.2383 -0.3255  0.0903
  227BOLB   NC2 5437  -3.146  28.161  12.592  0.1133 -0.0102 -0.1700
  227BOLB   PO2 5438  -3.333  27.806  12.592 -0.1542  0.1230  0.0157
  227BOLB   GL3 5439  -2.935  27.619  12.551 -0.2550 -0.0322  0.1194
  227BOLB   GL4 5440  -3.101  27.421  12.723  0.0940 -0.4123  0.1706
  227BOLB   C1C 5441  -2.528  27.486  12.405  0.1277  0.1711  0.1614
  227BOLB   C2C 5442  -2.309  27.128  12.123 -0.0068  0.0995  0.1727
  227BOLB   C3C 5443  -2.297  26.732  11.945 -0.1915 -0.4148  0.1722
  227BOLB   C4C 5444  -1.964  26.426  11.624  0.0960 -0.0334 -0.3318
  227BOLB   C1D 5445  -2.737  27.044  12.554 -0.2066 -0.3156  0.1369
  227BOLB   C2D 5446  -2.652  26.714  12.330 -0.2390 -0.0382  0.0063
  227BOLB   C3D 5447  -2.465  26.287  12.471 -0.0339 -0.4135 -0.2290
  227BOLB   C4D 5448  -2.471  25.974  12.896  0.0546 -0.4270  0.2202
  228BOLB   NC1 5449  31.497  14.683   6.796 -0.0241 -0.2015 -0.0383
  228BOLB   PO1 5450  31.333  15.050   6.718 -0.0187 -0.2485  0.0637
  228BOLB   GL1 5451  31.644  15.259   6.860 -0.0736  0.0654 -0.3501
  228BOLB   GL2 5452  31.800  15.074   7.119  0.4529  0.0119  0.2280
  228BOLB   C1A 5453  31.881  15.643   6.916  0.3024  0.0721  0.0418
  228BOLB   C2A 5454  32.297  15.888   6.819  0.1826 -0.3103 -0.1594
  228BOLB   C3A 5455  32.653  16.044   6.497 -0.2519  0.2746 -0.1165
  228BOLB   C4A 5456  32.908  16.217   6.192  0.0431  0.2303  0.1082
  228BOLB   C1B 5457  31.960  15.120   7.622 -0.1610 -0.0748 -0.1952
  228BOLB   C2B 5458  32.349  14.886   7.935 -0.1748 -0.3242  0.1651
  228BOLB   C3B 5459  32.546  15.003   8.276  0.4260  0.0540 -0.1979
  228BOLB   C4B 5460  32.691  14.871   8.687  0.1176  0.0548  0.1749
  228BOLB   NC2 5461  31.317  15.382   4.308  0.2761  0.0330 -0.1904
  228BOLB   PO2 5462  31.742  15.425   4.511  0.0107  0.1561  0.0747
  228BOLB   GL3 5463  32.140  15.684   4.595  0.3568  0.0689  0.1929
  228BOLB   GL4 5464  32.346  15.557   4.445  0.2528  0.0519 -0.1080
  228BOLB   C1C 5465  32.403  15.963   4.667  0.1034  0.1783 -0.0198
  228BOLB   C2C 5466  32.623  16.112   4.998 -0.2222  0.0340 -0.1150
  228BOLB   C3C 5467  32.616  16.310   5.417 -0.0356 -0.1179  0.0424
  228BOLB   C4C 5468  32.867  16.351   5.641  0.0552  0.0344  0.0435
  228BOLB   C1D 5469  32.642  15.458   4.169  0.1269  0.1780  0.3664
  228BOLB   C2D 5470  32.917  15.469   3.799  0.1293 -0.2231 -0.0941
  228BOLB   C3D 5471  33.153  15.453   3.401 -0.2308 -0.0120  0.4197
  228BOLB   C4D 5472  33.494  15.750   3.259 -0.1086 -0.0305 -0.1696
  229BOLB   NC1 5473   8.625  15.108  13.892  0.0657 -0.1664 -0.0192
  229BOLB   PO1 5474   8.314  15.239  14.283  0.2911 -0.1717 -0.2456
  229BOLB   GL1 5475   8.294  14.839  14.644  0.0726  0.1842 -0.2126
  229BOLB   GL2 5476   8.045  14.569  14.634 -0.1727  0.2533  0.0815
  229BOLB   C1A 5477   8.157  14.781  15.060  0.1767  0.1593 -0.1147
  229BOLB   C2A 5478   8.506  14.557  15.286 -0.2089  0.2692 -0.0086
  229BOLB   C3A 5479   8.643  14.371  15.675  0.1522  0.4245 -0.1190
  229BOLB   C4A 5480   8.768  13.945  15.594  0.0050 -0.3214  0.1233
  229BOLB   C1B 5481   8.307  14.290  14.772 -0.0955  0.1704  0.0496
  229BOLB   C2B 5482   8.549  14.093  15.144  0.1102 -0.0439  0.0093
  229BOLB   C3B 5483   8.538  13.688  15.240  0.0599  0.0115  0.0750
  229BOLB   C4B 5484   8.280  13.466  15.555 -0.1712  0.1786 -0.1551
  229BOLB   NC2 5485   8.860  11.758  16.618 -0.0762  0.0754 -0.1316
  229BOLB   PO2 5486   9.337  11.727  16.787  0.1724 -0.2890 -0.1778
  229BOLB   GL3 5487   9.252  12.091  16.669 -0.0167  0.2159 -0.2743
  229BOLB   GL4 5488   9.071  12.192  16.431  0.1266 -0.1252 -0.1515
  229BOLB   C1C 5489   9.538  12.530  16.361  0.3437 -0.0891  0.1952
  229BOLB   C2C 5490   9.453  12.911  16.091 -0.0628 -0.1986 -0.1004
  229BOLB   C3C 5491   9.195  13.327  15.949 -0.1183  0.0738  0.2561
  229BOLB   C4C 5492   8.798  13.474  15.687  0.0023  0.1342  0.2505
  229BOLB   C1D 5493   9.036  12.551  16.266 -0.2766 -0.0759  0.0349
  229BOLB   C2D 5494   8.906  13.012  16.165  0.1727 -0.1485  0.2040
  229BOLB   C3D 5495   8.624  13.371  16.153  0.0223 -0.1362  0.0452
  229BOLB   C4D 5496   8.854  13.775  16.140  0.0537  0.5564 -0.2634
  230BOLB   NC1 5497   7.821  16.471  21.655 -0.1781  0.0285 -0.1539
  230BOLB   PO1 5498   7.575  16.085  21.460 -0.2985 -0.2709 -0.1157
  230BOLB   GL1 5499   7.517  15.934  21.009 -0.1012  0.0781  0.1964
  230BOLB   GL2 5500   7.261  16.019  20.991  0.5380  0.0788 -0.0247
  230BOLB   C1A 5501   7.742  15.978  20.657 -0.3601 -0.2334  0.1962
  230BOLB   C2A 5502   8.091  16.120  20.399  0.1811 -0.1693  0.3146
  230BOLB   C3A 5503   8.322  16.069  20.013 -0.0920  0.1216  0.1322
  230BOLB   C4A 5504   8.537  16.155  19.595 -0.2522  0.1332  0.0636
  230BOLB   C1B 5505   7.359  15.766  20.570  0.3133 -0.2309 -0.0091
  230BOLB   C2B 5506   7.461  16.031  20.281 -0.0427  0.0907 -0.0686
  230BOLB   C3B 5507   7.413  16.416  20.073 -0.0821 -0.1519 -0.0185
  230BOLB   C4B 5508   7.348  16.745  19.653 -0.0924 -0.2480 -0.3546
  230BOLB   NC2 5509   9.600  16.551  21.379  0.2190 -0.0282 -0.1892
  230BOLB   PO2 5510   9.977  16.533  21.126 -0.0186 -0.1625  0.0030
  230BOLB   GL3 5511  10.002  16.559  20.725  0.0435 -0.2476  0.0434
  230BOLB   GL4 5512  10.061  16.256  20.573  0.1346  0.0810  0.1118
  230BOLB   C1C 5513   9.797  16.604  20.313 -0.0738 -0.2076  0.2367
  230BOLB   C2C 5514   9.647  16.696  19.908 -0.1184 -0.1484 -0.0862
  230BOLB   C3C 5515   9.426  16.386  19.632 -0.0012 -0.0859  0.2290
  230BOLB   C4C 5516   9.000  16.306  19.434 -0.1216  0.5793  0.0875
  230BOLB   C1D 5517   9.978  16.122  20.130 -0.0214  0.0479  0.1682
  230BOLB   C2D 5518   9.978  16.256  19.768  0.1344 -0.2686 -0.0238
  230BOLB   C3D 5519   9.994  16.576  19.598  0.1540  0.0410 -0.0951
  230BOLB   C4D 5520   9.977  16.795  19.243 -0.2916 -0.2104  0.1688
  231BOLB   NC1 5521   9.328  26.081  16.556 -0.0271 -0.3983  0.0918
  231BOLB   PO1 5522   9.696  26.319  16.531  0.0212 -0.0114 -0.1858
  231BOLB   GL1 5523   9.676  26.542  16.918  0.0651 -0.3285  0.2916
  231BOLB   GL2 5524   9.454  26.833  17.143 -0.0176  0.2030  0.0274
  231BOLB   C1A 5525   9.982  26.639  17.183 -0.0542  0.0875 -0.5057
  231BOLB   C2A 5526  10.152  26.971  17.396  0.2554 -0.1957 -0.2764
  231BOLB   C3A 5527  10.280  27.384  17.596  0.2782 -0.3245 -0.1302
  231BOLB   C4A 5528  10.377  27.813  17.613 -0.1669  0.0317 -0.3042
  231BOLB   C1B 5529   9.799  27.122  17.020 -0.2761 -0.1175  0.0635
  231BOLB   C2B 5530   9.761  27.506  17.081  0.1964 -0.1385  0.0780
  231BOLB   C3B 5531   9.814  27.607  17.475 -0.2535 -0.0476 -0.0778
  231BOLB   C4B 5532   9.997  27.655  17.931 -0.2781  0.0565 -0.2470
  231BOLB   NC2 5533  11.942  29.916  17.753 -0.1731  0.3390 -0.1397
  231BOLB   PO2 5534  11.758  29.581  17.546 -0.5613 -0.0205 -0.0933
  231BOLB   GL3 5535  11.486  29.355  17.775  0.0270  0.0397 -0.1969
  231BOLB   GL4 5536  11.167  29.446  17.715 -0.0250 -0.2483 -0.0480
  231BOLB   C1C 5537  11.430  28.974  18.036  0.3631  0.2217  0.0673
  231BOLB   C2C 5538  11.360  28.627  17.769  0.1780 -0.1740 -0.2111
  231BOLB   C3C 5539  11.210  28.300  17.846  0.0733 -0.1042  0.0264
  231BOLB   C4C 5540  10.880  28.038  17.693  0.3813 -0.1006  0.2400
  231BOLB   C1D 5541  11.282  29.042  17.454 -0.1797 -0.2202 -0.0278
  231BOLB   C2D 5542  11.280  28.649  17.289 -0.1203 -0.1207 -0.3121
  231BOLB   C3D 5543  11.018  28.381  17.421  0.1842  0.0756  0.0869
  231BOLB   C4D 5544  10.612  28.266  17.281  0.0884 -0.0072 -0.1708
  232BOLB   NC1 5545   7.051  16.268  16.355 -0.0886 -0.0010 -0.4000
  232BOLB   PO1 5546   7.034  15.946  16.127  0.0376  0.0238 -0.0074
  232BOLB   GL1 5547   6.995  15.754  16.417 -0.1121  0.1039 -0.1206
  232BOLB   GL2 5548   7.356  15.680  16.397  0.2441  0.0248  0.3094
  232BOLB   C1A 5549   6.934  15.494  16.741  0.2484  0.1684  0.1563
  232BOLB   C2A 5550   6.962  15.359  17.109  0.1842  0.0878  0.0052
  232BOLB   C3A 5551   7.095  15.184  17.402  0.2347 -0.3283  0.0150
  232BOLB   C4A 5552   7.181  14.674  17.477  0.3212  0.0524  0.3962
  232BOLB   C1B 5553   7.368  15.588  16.905 -0.0947  0.1543 -0.0553
  232BOLB   C2B 5554   7.784  15.398  17.118  0.0310 -0.1258 -0.1398
  232BOLB   C3B 5555   7.894  14.987  16.999 -0.0899 -0.0943 -0.2459
  232BOLB   C4B 5556   8.035  14.604  17.069  0.2604 -0.2637 -0.0174
  232BOLB   NC2 5557   6.907  12.250  18.148 -0.0954 -0.0126  0.0066
  232BOLB   PO2 5558   6.822  12.623  18.410 -0.0373  0.3162 -0.0951
  232BOLB   GL3 5559   6.473  12.848  18.137  0.2342 -0.3685  0.0025
  232BOLB   GL4 5560   6.235  12.911  18.200 -0.0007 -0.1761 -0.0686
  232BOLB   C1C 5561   6.638  13.200  18.037  0.2966  0.0436 -0.1333
  232BOLB   C2C 5562   6.780  13.644  18.006 -0.1630 -0.0667 -0.1199
  232BOLB   C3C 5563   7.066  13.866  17.694  0.2365  0.0437 -0.0786
  232BOLB   C4C 5564   7.169  14.169  17.467  0.0438  0.1097 -0.1103
  232BOLB   C1D 5565   6.097  13.196  17.887 -0.0911 -0.1628  0.1516
  232BOLB   C2D 5566   6.430  13.457  17.675  0.2834  0.0230  0.0448
  232BOLB   C3D 5567   6.346  13.868  17.418 -0.3002  0.1358 -0.1379
  232BOLB   C4D 5568   6.642  14.227  17.231  0.0562 -0.3388  0.1393
  233BOLB   NC1 5569   4.331  18.446  25.121 -0.0883 -0.4110 -0.3438
  233BOLB   PO1 5570   4.570  18.173  25.109 -0.1767  0.0985 -0.1837
  233BOLB   GL1 5571   4.756  17.980  25.434 -0.0762 -0.5071 -0.2471
  233BOLB   GL2 5572   5.007  17.949  25.278 -0.0825  0.0401 -0.1310
  233BOLB   C1A 5573   5.026  17.852  25.791  0.1077  0.0376  0.1558
  233BOLB   C2A 5574   5.137  17.917  26.184  0.0025  0.0341 -0.3362
  233BOLB   C3A 5575   5.190  18.116  26.638 -0.3457  0.0784  0.3076
  233BOLB   C4A 5576   5.322  18.529  26.877 -0.0733 -0.0714  0.0579
  233BOLB   C1B 5577   5.437  18.054  25.472  0.1810  0.0005  0.2254
  233BOLB   C2B 5578   5.551  18.194  25.897 -0.0524  0.0770 -0.3090
  233BOLB   C3B 5579   5.601  17.971  26.260 -0.3634 -0.1310  0.0308
  233BOLB   C4B 5580   5.931  17.764  26.143  0.0858 -0.0848 -0.2518
  233BOLB   NC2 5581   4.944  18.366  24.811 -0.3575  0.0106 -0.0824
  233BOLB   PO2 5582   5.284  18.326  24.947  0.0756  0.2349 -0.0328
  233BOLB   GL3 5583   5.461  18.524  25.307 -0.3742  0.1870 -0.0567
  233BOLB   GL4 5584   5.741  18.396  25.265 -0.2651 -0.1936 -0.0985
  233BOLB   C1C 5585   5.572  18.622  25.712 -0.0625 -0.0529  0.2616
  233BOLB   C2C 5586   5.370  18.921  26.063  0.3643 -0.3210 -0.1890
  233BOLB   C3C 5587   5.468  18.997  26.433  0.2038 -0.1365 -0.1041
  233BOLB   C4C 5588   5.493  18.931  26.884 -0.4008 -0.0194  0.0255
  233BOLB   C1D 5589   5.915  18.293  25.532  0.1422  0.2865  0.1612
  233BOLB   C2D 5590   6.033  18.404  25.934 -0.2631 -0.1217 -0.1425
  233BOLB   C3D 5591   6.081  18.242  26.395 -0.3369  0.1363 -0.1039
  233BOLB   C4D 5592   6.244  18.370  26.822  0.0771 -0.1475 -0.1037
  234BOLB   NC1 5593   7.335  23.992   4.000 -0.2083 -0.3102 -0.2631
  234BOLB   PO1 5594   7.188  24.459   3.823  0.0690 -0.1173  0.1369
  234BOLB   GL1 5595   7.322  24.667   3.433  0.2461 -0.1767 -0.2428
  234BOLB   GL2 5596   7.240  24.416   3.155  0.0453 -0.1625 -0.0635
  234BOLB   C1A 5597   7.136  24.919   3.074  0.0479  0.4741 -0.0622
  234BOLB   C2A 5598   7.218  24.999   2.669  0.1250 -0.0279 -0.1590
  234BOLB   C3A 5599   7.511  25.307   2.411  0.0706  0.1450  0.1391
  234BOLB   C4A 5600   7.515  25.516   1.990 -0.3195 -0.3156 -0.2240
  234BOLB   C1B 5601   7.283  24.506   2.683 -0.1130  0.0553 -0.2955
  234BOLB   C2B 5602   7.503  24.776   2.356 -0.3196  0.2287  0.0320
  234BOLB   C3B 5603   7.502  24.872   1.965 -0.1505  0.1227 -0.1048
  234BOLB   C4B 5604   7.465  25.141   1.615  0.2385 -0.1410 -0.2024
  234BOLB   NC2 5605   8.657  26.985  -0.154  0.0811  0.2376  0.1386
  234BOLB   PO2 5606   8.289  26.736   0.045  0.1354  0.1127  0.0508
  234BOLB   GL3 5607   8.177  26.664   0.509  0.0978  0.4478  0.1395
  234BOLB   GL4 5608   8.145  27.009   0.690  0.1451  0.3137  0.1751
  234BOLB   C1C 5609   8.233  26.448   0.862 -0.3050  0.2155 -0.0224
  234BOLB   C2C 5610   7.979  26.276   1.180 -0.0890  0.0096 -0.1227
  234BOLB   C3C 5611   7.981  25.975   1.498 -0.2386 -0.0603 -0.0610
  234BOLB   C4C 5612   7.654  25.859   1.730  0.1679  0.0531  0.0271
  234BOLB   C1D 5613   8.521  26.863   0.887 -0.3169 -0.0953  0.0942
  234BOLB   C2D 5614   8.646  26.525   1.164 -0.0160 -0.0536 -0.2289
  234BOLB   C3D 5615   8.889  26.172   1.378 -0.5152 -0.0602 -0.2542
  234BOLB   C4D 5616   9.226  26.152   1.727 -0.2376 -0.1877 -0.0147
  235BOLB   NC1 5617   5.355  13.025   9.309 -0.1119  0.1075 -0.0230
  235BOLB   PO1 5618   5.035  13.116   9.025  0.1221  0.0012 -0.0671
  235BOLB   GL1 5619   5.028  12.864   8.747 -0.2173 -0.1591 -0.1215
  235BOLB   GL2 5620   5.054  13.067   8.476 -0.0381 -0.2464 -0.3494
  235BOLB   C1A 5621   5.257  12.416   8.670  0.1194  0.1315  0.0438
  235BOLB   C2A 5622   5.569  12.015   8.915  0.1644 -0.1549 -0.4345
  235BOLB   C3A 5623   5.530  11.644   9.056  0.1238  0.1889 -0.2116
  235BOLB   C4A 5624   5.375  11.231   9.090 -0.1450  0.1055 -0.1054
  235BOLB   C1B 5625   4.730  12.911   8.259 -0.0984  0.0653 -0.2854
  235BOLB   C2B 5626   4.666  12.487   8.487 -0.0739  0.4350  0.0343
  235BOLB   C3B 5627   4.409  12.325   8.806  0.0616  0.0022 -0.4161
  235BOLB   C4B 5628   4.377  12.432   9.173  0.1209  0.2348 -0.0984
  235BOLB   NC2 5629   5.553   8.520   8.980 -0.1963 -0.1993  0.0954
  235BOLB   PO2 5630   5.516   8.877   9.335  0.0669  0.1740  0.2330
  235BOLB   GL3 5631   5.658   9.269   9.281 -0.4168 -0.1953 -0.0107
  235BOLB   GL4 5632   5.910   9.281   9.544  0.0674  0.2073  0.0290
  235BOLB   C1C 5633   5.514   9.638   9.243 -0.0581 -0.0156  0.0496
  235BOLB   C2C 5634   5.327  10.029   9.247  0.1454 -0.0969 -0.1233
  235BOLB   C3C 5635   5.241  10.381   9.076 -0.3454 -0.0837  0.0279
  235BOLB   C4C 5636   5.301  10.783   9.258 -0.1664 -0.0900  0.0979
  235BOLB   C1D 5637   5.858   9.729   9.541 -0.4148  0.4155  0.0009
  235BOLB   C2D 5638   5.799  10.183   9.663  0.0512 -0.3623 -0.3366
  235BOLB   C3D 5639   5.878  10.674   9.714  0.2092  0.0735 -0.0380
  235BOLB   C4D 5640   5.396  10.918   9.772  0.0713  0.3209 -0.2469
  236BOLB   NC1 5641  11.302  21.441  17.382 -0.1190 -0.3990 -0.0116
  236BOLB   PO1 5642  11.381  20.965  17.478  0.0460  0.0620  0.0908
  236BOLB   GL1 5643  11.657  21.130  17.683  0.2298  0.0641 -0.3925
  236BOLB   GL2 5644  11.688  21.474  17.703  0.1281  0.2419  0.0296
  236BOLB   C1A 5645  11.924  21.174  18.026 -0.2754 -0.1530 -0.1982
  236BOLB   C2A 5646  11.819  21.634  18.376  0.0353  0.4278 -0.1130
  236BOLB   C3A 5647  11.616  21.940  18.651 -0.1124  0.2893 -0.0897
  236BOLB   C4A 5648  11.952  22.189  18.895  0.0192 -0.1818 -0.0209
  236BOLB   C1B 5649  12.025  21.610  17.795 -0.3411  0.1970 -0.2580
  236BOLB   C2B 5650  12.410  21.404  18.047  0.3901 -0.0618  0.1476
  236BOLB   C3B 5651  12.755  21.589  18.198 -0.1955  0.2622 -0.0603
  236BOLB   C4B 5652  13.192  21.570  18.333 -0.2163 -0.2308  0.0417
  236BOLB   NC2 5653  12.709  23.195  20.702 -0.3580 -0.2004  0.1126
  236BOLB   PO2 5654  12.767  22.790  20.773 -0.0527  0.0639  0.4031
  236BOLB   GL3 5655  12.596  22.798  20.400  0.0961  0.1258  0.3087
  236BOLB   GL4 5656  12.304  22.742  20.152  0.0966 -0.2093 -0.2044
  236BOLB   C1C 5657  12.741  22.663  19.972 -0.1651  0.0917 -0.0588
  236BOLB   C2C 5658  12.348  22.725  19.655 -0.3828  0.2389  0.2017
  236BOLB   C3C 5659  12.285  22.892  19.256 -0.0404 -0.2038 -0.1182
  236BOLB   C4C 5660  12.066  22.658  18.914  0.0306 -0.3981  0.1937
  236BOLB   C1D 5661  11.879  22.787  19.971 -0.0698  0.0962  0.1024
  236BOLB   C2D 5662  11.752  22.663  19.642 -0.1522  0.1447  0.1411
  236BOLB   C3D 5663  11.959  22.441  19.352  0.0361 -0.3238 -0.3108
  236BOLB   C4D 5664  12.372  22.276  19.304 -0.1115 -0.4110 -0.0723
  237BOLB   NC1 5665   4.580  27.413   5.949 -0.1456 -0.0180  0.2728
  237BOLB   PO1 5666   4.558  27.378   6.403  0.2618  0.2562 -0.0993
  237BOLB   GL1 5667   4.287  27.781   6.258 -0.2080 -0.0970 -0.2047
  237BOLB   GL2 5668   3.984  27.755   6.439  0.2333  0.0537 -0.0566
  237BOLB   C1A 5669   4.149  28.082   5.959 -0.0047  0.0253 -0.1187
  237BOLB   C2A 5670   4.419  28.453   5.770 -0.0486  0.1335 -0.1800
  237BOLB   C3A 5671   4.257  28.744   5.446 -0.0214  0.2246 -0.1753
  237BOLB   C4A 5672   4.458  29.094   5.236  0.0423 -0.2820  0.1293
  237BOLB   C1B 5673   3.793  28.234   6.302 -0.2393 -0.0400  0.2363
  237BOLB   C2B 5674   3.999  28.552   6.187 -0.1063 -0.1791 -0.0860
  237BOLB   C3B 5675   4.091  28.950   5.900  0.1329 -0.0933 -0.0901
  237BOLB   C4B 5676   4.399  29.106   5.740 -0.4802 -0.4732 -0.1176
  237BOLB   NC2 5677   2.604  30.803   4.334  0.3186 -0.5328 -0.2251
  237BOLB   PO2 5678   2.681  30.725   4.798 -0.1724 -0.2157  0.0317
  237BOLB   GL3 5679   3.097  30.639   4.805 -0.2354 -0.1046 -0.1675
  237BOLB   GL4 5680   3.162  30.893   5.068 -0.0847  0.2213 -0.2872
  237BOLB   C1C 5681   3.560  30.489   4.989  0.1341 -0.0316 -0.1041
  237BOLB   C2C 5682   3.867  30.085   4.968 -0.1131  0.3282  0.4437
  237BOLB   C3C 5683   4.292  29.848   5.072 -0.0975  0.2202 -0.2269
  237BOLB   C4C 5684   4.402  29.491   5.009  0.0214 -0.0580  0.4422
  237BOLB   C1D 5685   3.167  30.851   5.496 -0.2047  0.3197 -0.4246
  237BOLB   C2D 5686   3.289  30.493   5.652  0.1693 -0.1543 -0.0666
  237BOLB   C3D 5687   3.295  30.102   5.792 -0.1751 -0.2807  0.1610
  237BOLB   C4D 5688   3.703  29.820   5.932  0.0082 -0.0830  0.1327
  238BOLB   NC1 5689   0.102  25.681  12.658  0.3608 -0.0433  0.1983
  238BOLB   PO1 5690   0.469  25.562  12.836 -0.0771 -0.3774 -0.2849
  238BOLB   GL1 5691   0.114  25.716  13.153 -0.1393  0.2583  0.3163
  238BOLB   GL2 5692  -0.257  25.813  13.019  0.0581 -0.0152 -0.1071
  238BOLB   C1A 5693   0.015  26.065  13.363  0.1240 -0.3674 -0.3138
  238BOLB   C2A 5694  -0.282  26.270  13.543 -0.1201 -0.0774 -0.1924
  238BOLB   C3A 5695  -0.324  26.711  13.668  0.0953  0.0478  0.0841
  238BOLB   C4A 5696  -0.619  26.759  13.959 -0.3792 -0.2124 -0.5241
  238BOLB   C1B 5697  -0.566  26.095  13.063  0.0650  0.2171 -0.1532
  238BOLB   C2B 5698  -0.654  26.387  13.209 -0.3306 -0.2485 -0.1103
  238BOLB   C3B 5699  -0.897  26.607  13.366 -0.0652 -0.0082 -0.1817
  238BOLB   C4B 5700  -1.223  26.538  13.541  0.0122 -0.1194  0.1316
  238BOLB   NC2 5701  -1.860  29.137  14.018  0.0802 -0.2409  0.0274
  238BOLB   PO2 5702  -2.188  29.019  14.237 -0.1298  0.2878  0.0448
  238BOLB   GL3 5703  -1.992  28.542  14.072 -0.2005 -0.1470 -0.0554
  238BOLB   GL4 5704  -1.795  28.682  13.816 -0.1260 -0.0267 -0.1493
  238BOLB   C1C 5705  -1.759  28.191  14.060 -0.0481 -0.1225 -0.0648
  238BOLB   C2C 5706  -1.399  27.804  13.991 -0.2867  0.1018 -0.0065
  238BOLB   C3C 5707  -1.148  27.386  13.894  0.1289  0.1784 -0.2212
  238BOLB   C4C 5708  -0.803  27.091  14.079  0.0160  0.0896  0.2778
  238BOLB   C1D 5709  -1.591  28.541  13.490 -0.0435 -0.0395  0.1462
  238BOLB   C2D 5710  -1.483  28.087  13.598 -0.0583  0.0366 -0.0290
  238BOLB   C3D 5711  -1.062  27.951  13.666  0.2281  0.0446 -0.3730
  238BOLB   C4D 5712  -0.694  28.123  13.644 -0.4776 -0.0741  0.3071
  239BOLB   NC1 5713   3.939  26.047  15.190 -0.3344  0.2110 -0.1380
  239BOLB   PO1 5714   3.735  26.266  15.487  0.0245  0.0198  0.0862
  239BOLB   GL1 5715   3.494  26.526  15.812 -0.1923  0.2673  0.2184
  239BOLB   GL2 5716   3.354  26.334  16.058 -0.1069 -0.3304 -0.0738
  239BOLB   C1A 5717   3.199  26.814  15.994  0.1531  0.1819  0.0188
  239BOLB   C2A 5718   3.084  27.079  16.210 -0.0066  0.0863 -0.2415
  239BOLB   C3A 5719   2.853  27.417  16.376  0.3108  0.3111  0.2821
  239BOLB   C4A 5720   2.727  27.772  16.330 -0.2236  0.3713  0.2973
  239BOLB   C1B 5721   3.072  26.382  16.279  0.1821 -0.0491 -0.3979
  239BOLB   C2B 5722   2.773  26.642  16.444 -0.0426  0.3284  0.0443
  239BOLB   C3B 5723   2.525  26.707  16.883  0.2797 -0.0384 -0.0632
  239BOLB   C4B 5724   2.158  26.784  17.014  0.1664  0.0927  0.0530
  239BOLB   NC2 5725   1.515  29.671  17.281 -0.0820  0.0225 -0.0619
  239BOLB   PO2 5726   1.911  29.835  17.043  0.0468  0.1315  0.3277
  239BOLB   GL3 5727   2.364  29.696  16.959 -0.1238  0.2498  0.2236
  239BOLB   GL4 5728   2.577  29.963  16.900  0.1485 -0.2760  0.0657
  239BOLB   C1C 5729   2.636  29.324  16.759 -0.0194 -0.0713  0.1475
  239BOLB   C2C 5730   2.673  28.906  16.559  0.3878 -0.4924  0.1498
  239BOLB   C3C 5731   2.437  28.561  16.260 -0.0509 -0.1804  0.0561
  239BOLB   C4C 5732   2.627  28.168  16.171  0.0205 -0.2606  0.0366
  239BOLB   C1D 5733   2.711  29.797  16.500 -0.0007  0.0145 -0.2882
  239BOLB   C2D 5734   2.659  29.374  16.262 -0.0486  0.3774 -0.0359
  239BOLB   C3D 5735   2.674  29.036  16.078  0.0945 -0.6279  0.2785
  239BOLB   C4D 5736   2.914  28.734  16.198 -0.1453 -0.2013 -0.0286
  240BOLB   NC1 5737   8.877  17.100  17.101 -0.0510 -0.1518 -0.1541
  240BOLB   PO1 5738   8.432  17.037  17.053  0.0989 -0.0065  0.0211
  240BOLB   GL1 5739   8.484  16.779  17.364  0.0711  0.0403 -0.0336
  240BOLB   GL2 5740   8.694  17.031  17.538  0.2502 -0.1151 -0.0956
  240BOLB   C1A 5741   8.660  16.541  17.678  0.1334 -0.1843  0.4144
  240BOLB   C2A 5742   8.786  16.389  18.107  0.2766  0.2422  0.1068
  240BOLB   C3A 5743   8.900  16.522  18.500  0.0240 -0.1736 -0.0535
  240BOLB   C4A 5744   8.879  16.404  18.914 -0.0552 -0.1653 -0.1012
  240BOLB   C1B 5745   8.442  16.908  17.921  0.3572  0.2044 -0.0801
  240BOLB   C2B 5746   8.400  16.658  18.264  0.1180  0.0900  0.1433
  240BOLB   C3B 5747   8.361  16.426  18.615 -0.1137 -0.0445  0.0975
  240BOLB   C4B 5748   8.698  15.995  18.563  0.2901 -0.1759 -0.0731
  240BOLB   NC2 5749   8.972  13.919  19.553  0.0027  0.0465 -0.2055
  240BOLB   PO2 5750   9.135  14.054  19.972  0.2620  0.1886 -0.3091
  240BOLB   GL3 5751   9.069  14.476  19.778  0.0269  0.2459  0.0718
  240BOLB   GL4 5752   8.672  14.504  19.730  0.0314 -0.1136 -0.2145
  240BOLB   C1C 5753   8.879  14.907  19.635 -0.1639  0.0601 -0.1351
  240BOLB   C2C 5754   8.737  15.297  19.418  0.0779  0.1731  0.1573
  240BOLB   C3C 5755   8.577  15.585  19.108  0.2425  0.0647 -0.0995
  240BOLB   C4C 5756   8.627  16.035  19.085 -0.0754 -0.1052 -0.2862
  240BOLB   C1D 5757   8.497  14.441  19.385  0.3302 -0.0726  0.1071
  240BOLB   C2D 5758   8.542  14.269  19.003 -0.1984  0.2430 -0.0383
  240BOLB   C3D 5759   8.550  14.168  18.653 -0.0977  0.1885 -0.1984
  240BOLB   C4D 5760   8.402  14.424  18.216 -0.2143 -0.1041 -0.0576
  241BOLB   NC1 5761   8.866  22.956  18.376  0.1998 -0.0122  0.2368
  241BOLB   PO1 5762   8.570  23.053  18.703  0.0844  0.1690  0.3597
  241BOLB   GL1 5763   8.646  23.323  19.008  0.0455 -0.1092  0.0021
  241BOLB   GL2 5764   8.335  23.234  19.144 -0.0211 -0.3921 -0.1292
  241BOLB   C1A 5765   8.501  23.614  19.398 -0.0316 -0.1844  0.2963
  241BOLB   C2A 5766   8.176  23.602  19.640 -0.2682 -0.0901 -0.1834
  241BOLB   C3A 5767   7.955  23.828  19.874  0.1155 -0.2444 -0.0209
  241BOLB   C4A 5768   8.067  24.031  20.273 -0.2889 -0.0404 -0.0136
  241BOLB   C1B 5769   8.377  23.114  19.594  0.0598 -0.1928  0.2640
  241BOLB   C2B 5770   8.564  23.144  20.031  0.3829  0.2611  0.1103
  241BOLB   C3B 5771   8.700  22.954  20.312  0.3570 -0.0869 -0.1484
  241BOLB   C4B 5772   8.753  22.597  20.452  0.4901  0.2758  0.3167
  241BOLB   NC2 5773   7.058  23.281  22.701  0.2737  0.2145 -0.1122
  241BOLB   PO2 5774   7.113  23.553  22.323 -0.2577 -0.2934 -0.2242
  241BOLB   GL3 5775   7.016  23.665  21.907 -0.2413 -0.2076 -0.3265
  241BOLB   GL4 5776   6.671  23.527  21.758 -0.0280  0.3557  0.0317
  241BOLB   C1C 5777   7.161  23.685  21.464  0.0487 -0.1152  0.1670
  241BOLB   C2C 5778   7.429  23.792  21.153 -0.1516 -0.1486  0.2008
  241BOLB   C3C 5779   7.751  23.973  20.931  0.1152  0.0854  0.2097
  241BOLB   C4C 5780   7.990  24.085  20.648  0.0672 -0.1798  0.0357
  241BOLB   C1D 5781   6.463  23.150  21.495 -0.0189  0.1076 -0.0426
  241BOLB   C2D 5782   6.429  23.101  21.067 -0.2636  0.2489  0.1542
  241BOLB   C3D 5783   6.336  22.764  20.693  0.2473  0.0943 -0.0567
  241BOLB   C4D 5784   6.400  22.372  20.681 -0.1751 -0.0962 -0.0929
  242BOLB   NC1 5785   0.526  23.214   5.317  0.0476 -0.3655 -0.0161
  242BOLB   PO1 5786   0.096  23.206   5.317  0.1014 -0.3480  0.0034
  242BOLB   GL1 5787  -0.241  23.247   5.123  0.1196 -0.1133  0.1742
  242BOLB   GL2 5788  -0.375  23.501   5.174 -0.0795  0.0502  0.0370
  242BOLB   C1A 5789  -0.407  23.254   4.728 -0.0173 -0.1889 -0.0999
  242BOLB   C2A 5790  -0.591  23.308   4.347 -0.1663  0.1728  0.1158
  242BOLB   C3A 5791  -0.954  23.438   4.075  0.0646 -0.0880  0.2249
  242BOLB   C4A 5792  -0.998  23.792   3.897 -0.1945 -0.0191 -0.0900
  242BOLB   C1B 5793  -0.758  23.645   5.044 -0.1867  0.5370 -0.0094
  242BOLB   C2B 5794  -1.209  23.629   5.031  0.0029  0.0979  0.3109
  242BOLB   C3B 5795  -1.635  23.687   4.773  0.0582  0.0747 -0.0866
  242BOLB   C4B 5796  -1.967  23.432   4.594 -0.3095  0.0029  0.3968
  242BOLB   NC2 5797  -0.936  24.931   1.439 -0.3428  0.2780  0.0706
  242BOLB   PO2 5798  -1.334  24.708   1.529 -0.0594  0.0461  0.2133
  242BOLB   GL3 5799  -1.367  24.501   1.863  0.2762  0.1119  0.2254
  242BOLB   GL4 5800  -1.613  24.382   2.121  0.1191 -0.0583 -0.1356
  242BOLB   C1C 5801  -1.155  24.474   2.274 -0.0380 -0.0517 -0.3782
  242BOLB   C2C 5802  -1.169  24.437   2.757 -0.1685  0.2871 -0.2190
  242BOLB   C3C 5803  -1.347  24.196   3.152 -0.1271 -0.3711 -0.4065
  242BOLB   C4C 5804  -1.198  23.957   3.530 -0.0163  0.0512  0.1990
  242BOLB   C1D 5805  -1.596  24.323   2.600 -0.4315 -0.0873 -0.2136
  242BOLB   C2D 5806  -1.542  23.925   2.798 -0.2114  0.2088 -0.1180
  242BOLB   C3D 5807  -1.317  23.634   3.203 -0.0774  0.2663 -0.1433
  242BOLB   C4D 5808  -1.154  23.370   3.481 -0.1331 -0.0517 -0.1809
  243BOLB   NC1 5809  11.037  28.797   2.374  0.1892 -0.0488 -0.0421
  243BOLB   PO1 5810  11.228  28.421   2.145 -0.2306  0.1098 -0.2624
  243BOLB   GL1 5811  11.077  28.169   2.478 -0.0237  0.0929 -0.0651
  243BOLB   GL2 5812  11.310  28.197   2.763  0.2955 -0.0990  0.1479
  243BOLB   C1A 5813  11.076  27.708   2.646 -0.1111 -0.1397 -0.0051
  243BOLB   C2A 5814  10.685  27.418   2.571 -0.1665  0.1536 -0.1566
  243BOLB   C3A 5815  10.400  27.068   2.721  0.2227  0.0064  0.0477
  243BOLB   C4A 5816  10.391  26.533   2.763  0.1371 -0.2473  0.3025
  243BOLB   C1B 5817  11.105  27.849   3.109 -0.4148 -0.2577 -0.0189
  243BOLB   C2B 5818  10.748  27.625   3.279  0.4361 -0.2897 -0.2121
  243BOLB   C3B 5819  10.530  27.516   3.596  0.1772  0.3489  0.1296
  243BOLB   C4B 5820  10.360  27.458   4.033 -0.1836  0.1644 -0.1803
  243BOLB   NC2 5821   9.722  24.588   4.190 -0.0687 -0.0510 -0.0369
  243BOLB   PO2 5822   9.999  24.806   4.430 -0.0464  0.2443 -0.2364
  243BOLB   GL3 5823  10.243  25.049   4.119 -0.2096 -0.1362  0.0720
  243BOLB   GL4 5824  10.252  24.849   3.780 -0.1347  0.2727  0.1739
  243BOLB   C1C 5825  10.474  25.415   3.843  0.1594 -0.2249  0.2462
  243BOLB   C2C 5826  10.273  25.689   3.621  0.0231  0.1597 -0.0137
  243BOLB   C3C 5827  10.268  25.881   3.270  0.1472 -0.2440  0.0169
  243BOLB   C4C 5828  10.235  26.125   2.933  0.3525  0.1400  0.3713
  243BOLB   C1D 5829  10.171  25.125   3.549 -0.0340 -0.0850  0.0380
  243BOLB   C2D 5830  10.049  25.313   3.138 -0.0770 -0.0503  0.0131
  243BOLB   C3D 5831  10.364  25.373   2.754  0.2304 -0.0330  0.0062
  243BOLB   C4D 5832  10.646  25.714   2.456 -0.0360  0.2297  0.3259
  244BOLB   NC1 5833  13.521  25.726  10.993  0.0098 -0.3082 -0.1504
  244BOLB   PO1 5834  13.262  26.131  10.840 -0.2652  0.2550 -0.2075
  244BOLB   GL1 5835  13.688  26.254  10.894 -0.0231  0.1148  0.0074
  244BOLB   GL2 5836  13.798  26.229  11.211  0.0291  0.0225  0.2123
  244BOLB   C1A 5837  14.129  26.453  10.919  0.3024  0.2499  0.0902
  244BOLB   C2A 5838  14.376  26.704  11.093 -0.1178 -0.2081 -0.1820
  244BOLB   C3A 5839  14.522  27.098  11.247  0.0341 -0.3118 -0.1279
  244BOLB   C4A 5840  14.696  27.389  11.191  0.2069 -0.1197 -0.0289
  244BOLB   C1B 5841  14.340  26.263  11.357 -0.1281 -0.0622 -0.1255
  244BOLB   C2B 5842  14.802  26.481  11.336  0.1035 -0.0159 -0.1903
  244BOLB   C3B 5843  14.949  26.793  11.056 -0.1970  0.3049  0.0943
  244BOLB   C4B 5844  15.196  27.060  10.823 -0.1728 -0.0502  0.1142
  244BOLB   NC2 5845  16.344  28.266  12.262 -0.0880 -0.2250  0.0252
  244BOLB   PO2 5846  16.393  28.562  11.953 -0.2643 -0.1959  0.2038
  244BOLB   GL3 5847  16.034  28.408  11.940  0.0046  0.0190 -0.0017
  244BOLB   GL4 5848  15.851  28.227  12.197  0.2132 -0.1450 -0.0822
  244BOLB   C1C 5849  15.569  28.467  11.852 -0.2652 -0.1225 -0.1210
  244BOLB   C2C 5850  15.233  28.469  11.613 -0.2216 -0.1079 -0.2635
  244BOLB   C3C 5851  14.999  28.309  11.237 -0.0934  0.0170  0.0875
  244BOLB   C4C 5852  15.026  27.841  11.207  0.0766  0.2050 -0.0724
  244BOLB   C1D 5853  15.700  28.000  11.859 -0.1750  0.1735 -0.3444
  244BOLB   C2D 5854  15.285  27.867  11.658  0.1548 -0.0877 -0.2427
  244BOLB   C3D 5855  14.967  27.676  11.984  0.2384 -0.2647 -0.0707
  244BOLB   C4D 5856  14.581  27.747  12.132  0.1684  0.1460 -0.1027
  245BOLB   NC1 5857   9.227  26.401  17.129  0.0664  0.1102  0.1469
  245BOLB   PO1 5858   8.871  26.680  17.068 -0.2844 -0.0923 -0.0146
  245BOLB   GL1 5859   9.038  26.833  17.416 -0.1603  0.0201 -0.0156
  245BOLB   GL2 5860   9.005  26.987  17.607  0.2064 -0.2165 -0.0985
  245BOLB   C1A 5861   9.467  26.816  17.647  0.2746 -0.2139  0.0413
  245BOLB   C2A 5862   9.716  27.243  17.767  0.1187 -0.1693  0.2846
  245BOLB   C3A 5863   9.853  27.262  18.193  0.1542 -0.0206  0.0383
  245BOLB   C4A 5864   9.903  27.434  18.580  0.0098 -0.0214  0.1617
  245BOLB   C1B 5865   8.857  27.436  17.575  0.1269  0.0245  0.2640
  245BOLB   C2B 5866   8.669  27.569  17.910  0.1753  0.1606  0.3947
  245BOLB   C3B 5867   8.188  27.540  17.978  0.0614 -0.1086 -0.2699
  245BOLB   C4B 5868   7.853  27.500  17.773 -0.1123 -0.0960 -0.1222
  245BOLB   NC2 5869  10.356  29.813  18.710  0.0103 -0.0776  0.2554
  245BOLB   PO2 5870  10.501  29.648  19.080  0.0402  0.1441 -0.1049
  245BOLB   GL3 5871  10.520  29.209  19.020  0.1865 -0.2282 -0.2332
  245BOLB   GL4 5872  10.717  29.189  18.753  0.0277 -0.3868  0.2706
  245BOLB   C1C 5873  10.185  28.869  19.080  0.0463  0.0491  0.2121
  245BOLB   C2C 5874   9.998  28.533  19.229 -0.0370  0.0438  0.2240
  245BOLB   C3C 5875   9.988  28.064  19.075  0.0971  0.2012 -0.4285
  245BOLB   C4C 5876   9.860  27.713  18.794  0.0069  0.2548 -0.2462
  245BOLB   C1D 5877  10.665  28.742  18.749 -0.4487  0.1285 -0.0898
  245BOLB   C2D 5878  10.563  28.435  18.450  0.0635  0.3759 -0.1019
  245BOLB   C3D 5879  10.927  28.140  18.274  0.1308 -0.0663  0.1412
  245BOLB   C4D 5880  11.284  27.893  18.101 -0.1798  0.4802  0.0323
  246BOLB   NC1 5881  13.140  17.514   5.499 -0.0587  0.4725  0.0991
  246BOLB   PO1 5882  13.157  17.955   5.622  0.0344 -0.3085  0.1830
  246BOLB   GL1 5883  13.483  17.759   5.279 -0.0504 -0.0056  0.0659
  246BOLB   GL2 5884  13.427  17.909   4.943 -0.3884  0.2055 -0.3655
  246BOLB   C1A 5885  13.864  17.591   5.137  0.2099  0.3038 -0.1684
  246BOLB   C2A 5886  14.260  17.512   5.048  0.3469 -0.2855 -0.2669
  246BOLB   C3A 5887  14.455  17.085   5.028 -0.3234  0.4013 -0.0946
  246BOLB   C4A 5888  14.787  16.863   5.249 -0.0717 -0.2048 -0.0031
  246BOLB   C1B 5889  13.831  17.676   4.654  0.2905 -0.0363 -0.1166
  246BOLB   C2B 5890  14.133  17.537   4.443 -0.0477  0.2085 -0.1421
  246BOLB   C3B 5891  14.245  17.098   4.338  0.0156 -0.1969 -0.0711
  246BOLB   C4B 5892  14.335  16.665   4.316 -0.2850 -0.1819 -0.1447
  246BOLB   NC2 5893  16.927  15.783   5.078 -0.1668 -0.1049 -0.0742
  246BOLB   PO2 5894  17.059  16.077   4.711 -0.0570  0.1514  0.0882
  246BOLB   GL3 5895  16.683  16.095   4.850 -0.1418 -0.2837 -0.1447
  246BOLB   GL4 5896  16.482  16.110   4.622 -0.2785  0.1551  0.0675
  246BOLB   C1C 5897  16.341  16.297   5.050  0.0143 -0.0124  0.0541
  246BOLB   C2C 5898  15.879  16.439   5.290  0.1948 -0.1155 -0.1173
  246BOLB   C3C 5899  15.532  16.482   5.491  0.0784 -0.0927 -0.1376
  246BOLB   C4C 5900  15.166  16.692   5.409  0.0798 -0.0566 -0.0360
  246BOLB   C1D 5901  16.068  16.240   4.649 -0.2181  0.0376 -0.4531
  246BOLB   C2D 5902  15.696  16.418   4.793 -0.0405  0.2837  0.0517
  246BOLB   C3D 5903  15.342  16.686   4.973 -0.0268 -0.0240  0.2315
  246BOLB   C4D 5904  15.257  17.109   5.095  0.0639  0.1233 -0.1007
  247BOLB   NC1 5905  29.978  16.532   8.199 -0.2839  0.1013 -0.0141
  247BOLB   PO1 5906  29.963  16.590   7.755  0.0295 -0.0189 -0.0379
  247BOLB   GL1 5907  30.414  16.777   7.989 -0.1458  0.0235 -0.2397
  247BOLB   GL2 5908  30.427  16.977   8.191 -0.1924 -0.0779 -0.3108
  247BOLB   C1A 5909  30.853  16.817   8.032  0.0576 -0.2403 -0.0700
  247BOLB   C2A 5910  31.191  16.749   8.086  0.4003  0.0458  0.1555
  247BOLB   C3A 5911  31.458  17.058   8.157 -0.3909  0.2593 -0.2277
  247BOLB   C4A 5912  31.716  17.178   7.894 -0.0398  0.1012 -0.1150
  247BOLB   C1B 5913  30.724  17.300   8.269  0.0426 -0.2670  0.1042
  247BOLB   C2B 5914  31.088  17.417   8.535 -0.0508 -0.1676 -0.1566
  247BOLB   C3B 5915  31.351  17.404   8.917 -0.2018 -0.0433  0.2522
  247BOLB   C4B 5916  31.770  17.675   8.949 -0.2041  0.2932 -0.3137
  247BOLB   NC2 5917  31.116  16.425   5.436 -0.1952  0.3892  0.2327
  247BOLB   PO2 5918  31.015  16.254   5.881 -0.0483  0.0386  0.1563
  247BOLB   GL3 5919  31.335  16.554   5.995  0.1868  0.0727  0.0061
  247BOLB   GL4 5920  31.438  16.722   5.729  0.0387 -0.0903 -0.3605
  247BOLB   C1C 5921  31.462  16.825   6.325 -0.0691  0.0003 -0.0926
  247BOLB   C2C 5922  31.751  17.089   6.572  0.0795  0.0112  0.0437
  247BOLB   C3C 5923  31.833  17.283   6.996  0.0058  0.4126  0.0973
  247BOLB   C4C 5924  31.883  17.245   7.463  0.0526  0.0569 -0.2086
  247BOLB   C1D 5925  31.853  16.697   5.808 -0.5377  0.3945 -0.0343
  247BOLB   C2D 5926  32.296  16.934   5.782 -0.0592  0.2677 -0.5803
  247BOLB   C3D 5927  32.548  16.835   5.549 -0.0992 -0.4101  0.0589
  247BOLB   C4D 5928  32.701  16.822   5.133 -0.0175  0.3266  0.0134
  248BOLB   NC1 5929  13.512  20.045  13.842 -0.0808  0.1250  0.1875
  248BOLB   PO1 5930  13.565  20.082  14.262  0.3445  0.3673  0.1935
  248BOLB   GL1 5931  13.745  20.282  14.635 -0.0920  0.1772 -0.2654
  248BOLB   GL2 5932  14.010  20.450  14.563  0.0947  0.3356 -0.0518
  248BOLB   C1A 5933  13.795  20.325  15.169  0.3241 -0.4338  0.0421
  248BOLB   C2A 5934  14.190  20.303  15.418  0.0213  0.1147 -0.1176
  248BOLB   C3A 5935  14.508  20.371  15.726  0.1801  0.0671  0.0036
  248BOLB   C4A 5936  14.872  20.251  15.935 -0.1422 -0.0598  0.1391
  248BOLB   C1B 5937  14.163  20.159  14.864 -0.1760 -0.2007 -0.1210
  248BOLB   C2B 5938  14.617  19.960  15.056 -0.0998 -0.0776  0.0882
  248BOLB   C3B 5939  14.769  19.541  15.027 -0.1132 -0.2115 -0.1558
  248BOLB   C4B 5940  15.068  19.318  14.691 -0.1667 -0.1682  0.3482
  248BOLB   NC2 5941  17.115  19.739  17.497 -0.2588 -0.2972 -0.3686
  248BOLB   PO2 5942  16.808  20.066  17.304 -0.1823 -0.0764 -0.0293
  248BOLB   GL3 5943  16.354  20.041  17.363 -0.0577  0.4053 -0.0434
  248BOLB   GL4 5944  16.412  20.278  17.095  0.1390 -0.0664  0.1129
  248BOLB   C1C 5945  16.019  20.010  17.097 -0.0078 -0.2423  0.3121
  248BOLB   C2C 5946  15.742  20.057  16.690 -0.4420  0.0272  0.1422
  248BOLB   C3C 5947  15.514  20.058  16.339 -0.0123 -0.2495  0.0228
  248BOLB   C4C 5948  15.143  20.119  16.169 -0.1161 -0.3546 -0.0343
  248BOLB   C1D 5949  15.920  20.480  17.009 -0.1140 -0.1284  0.1258
  248BOLB   C2D 5950  15.519  20.511  16.797 -0.0650 -0.0265 -0.1945
  248BOLB   C3D 5951  15.133  20.460  16.585  0.0204 -0.0114  0.0888
  248BOLB   C4D 5952  14.912  20.671  16.179 -0.4958 -0.2291  0.0088
  249BOLB   NC1 5953   5.759  23.227  17.946 -0.1552  0.3598  0.0943
  249BOLB   PO1 5954   5.547  23.376  18.287  0.0601  0.0171 -0.4333
  249BOLB   GL1 5955   5.240  23.352  18.653  0.3440  0.1520 -0.1704
  249BOLB   GL2 5956   4.895  23.525  18.661 -0.2150 -0.0357 -0.3084
  249BOLB   C1A 5957   5.352  23.157  19.002  0.1860  0.0276  0.0571
  249BOLB   C2A 5958   5.504  23.163  19.370  0.2125 -0.0427  0.0380
  249BOLB   C3A 5959   5.881  23.172  19.721 -0.0473 -0.1892 -0.0746
  249BOLB   C4A 5960   5.707  23.363  20.124 -0.4030 -0.4136  0.0105
  249BOLB   C1B 5961   5.031  23.835  18.931  0.3267 -0.0653  0.1837
  249BOLB   C2B 5962   4.985  24.006  19.401 -0.2883  0.0217 -0.3776
  249BOLB   C3B 5963   4.658  24.067  19.738  0.0019 -0.0418 -0.2385
  249BOLB   C4B 5964   4.274  23.981  19.691  0.3272 -0.2219  0.3506
  249BOLB   NC2 5965   6.334  24.573  22.176  0.0819 -0.0860 -0.2023
  249BOLB   PO2 5966   6.702  24.349  22.216 -0.0542 -0.1794 -0.1818
  249BOLB   GL3 5967   6.631  24.470  21.753 -0.0467 -0.2012 -0.0402
  249BOLB   GL4 5968   6.815  24.776  21.684  0.0326 -0.2127  0.0747
  249BOLB   C1C 5969   6.432  24.214  21.405 -0.2986 -0.0787  0.0897
  249BOLB   C2C 5970   6.255  24.066  21.011  0.0924 -0.0380  0.1954
  249BOLB   C3C 5971   5.942  23.880  20.684  0.1505  0.0432 -0.0626
  249BOLB   C4C 5972   5.781  23.596  20.543  0.0298 -0.3903  0.1208
  249BOLB   C1D 5973   6.451  24.818  21.492  0.2781 -0.1312 -0.1114
  249BOLB   C2D 5974   6.071  25.073  21.451 -0.0595 -0.3606 -0.0999
  249BOLB   C3D 5975   5.972  25.471  21.296 -0.1150 -0.0564 -0.0200
  249BOLB   C4D 5976   5.899  25.936  21.466  0.0419 -0.1920  0.2471
  250BOLB   NC1 5977  11.070  16.134   6.245 -0.5524  0.0432  0.2163
  250BOLB   PO1 5978  11.435  15.742   6.204  0.0017  0.0509  0.0888
  250BOLB   GL1 5979  11.610  15.403   6.023 -0.0515 -0.0428  0.0512
  250BOLB   GL2 5980  11.832  15.265   6.318  0.1602 -0.2123 -0.1468
  250BOLB   C1A 5981  11.827  15.166   5.757  0.0243 -0.0003  0.1440
  250BOLB   C2A 5982  12.139  14.733   5.825 -0.0938 -0.0835 -0.2608
  250BOLB   C3A 5983  12.262  14.321   5.615 -0.0795  0.1029 -0.0657
  250BOLB   C4A 5984  12.293  13.900   5.589  0.2511 -0.1959  0.1755
  250BOLB   C1B 5985  12.156  15.189   6.136  0.0620  0.4083 -0.1749
  250BOLB   C2B 5986  12.475  14.899   6.095  0.0521 -0.0228 -0.0740
  250BOLB   C3B 5987  12.615  14.465   5.895 -0.3321 -0.1100 -0.0577
  250BOLB   C4B 5988  12.790  14.031   5.848  0.0204 -0.1189  0.0982
  250BOLB   NC2 5989  13.214  11.757   5.408 -0.1771 -0.0292 -0.0119
  250BOLB   PO2 5990  12.876  11.489   5.280 -0.0613  0.0796 -0.0167
  250BOLB   GL3 5991  12.511  11.850   5.393 -0.1684 -0.2711  0.0522
  250BOLB   GL4 5992  12.181  11.937   5.367  0.3339 -0.3153  0.1536
  250BOLB   C1C 5993  12.413  12.296   5.559 -0.1203  0.0395 -0.2130
  250BOLB   C2C 5994  12.599  12.733   5.779 -0.0510  0.0216 -0.2497
  250BOLB   C3C 5995  12.446  13.172   5.807  0.3240 -0.2675  0.0810
  250BOLB   C4C 5996  12.553  13.585   5.723 -0.0299 -0.0646 -0.2966
  250BOLB   C1D 5997  11.729  12.155   5.298  0.1263 -0.0212  0.1235
  250BOLB   C2D 5998  11.216  12.274   5.314 -0.1824  0.2946  0.0735
  250BOLB   C3D 5999  10.829  12.418   5.342  0.3015  0.0550  0.0823
  250BOLB   C4D 6000  10.397  12.491   5.182  0.0532  0.3742 -0.0556
  251BOLB   NC1 6001  10.048  27.996  12.611  0.0049 -0.0730  0.0659
  251BOLB   PO1 6002  10.200  28.129  12.184  0.0314 -0.0091 -0.1402
  251BOLB   GL1 6003  10.331  28.496  12.270  0.1976  0.0141 -0.1978
  251BOLB   GL2 6004  10.374  28.574  11.990 -0.2173  0.2006 -0.1055
  251BOLB   C1A 6005  10.733  28.630  12.288 -0.0837 -0.0182  0.1828
  251BOLB   C2A 6006  10.801  29.061  12.523 -0.1283 -0.2343 -0.1171
  251BOLB   C3A 6007  10.843  29.408  12.817  0.1483 -0.0707 -0.3556
  251BOLB   C4A 6008  11.087  29.638  13.160  0.2490  0.0036 -0.1204
  251BOLB   C1B 6009  10.513  29.004  12.022  0.0722 -0.1082 -0.2834
  251BOLB   C2B 6010  10.929  29.081  12.066  0.1612 -0.0721  0.3166
  251BOLB   C3B 6011  11.298  29.299  12.038  0.3427 -0.2508  0.2172
  251BOLB   C4B 6012  11.749  29.389  12.039  0.1718 -0.0939  0.2856
  251BOLB   NC2 6013  12.151  31.116  14.549  0.2547  0.3073  0.1045
  251BOLB   PO2 6014  12.609  31.032  14.511  0.0772  0.0900  0.1734
  251BOLB   GL3 6015  12.482  30.638  14.568  0.2862  0.0949  0.0948
  251BOLB   GL4 6016  12.634  30.281  14.528  0.0368 -0.1297 -0.3069
  251BOLB   C1C 6017  12.118  30.339  14.535 -0.0298  0.1647  0.1008
  251BOLB   C2C 6018  11.887  30.071  14.223 -0.1542 -0.3109  0.3530
  251BOLB   C3C 6019  11.580  29.952  13.996  0.1336  0.3256 -0.1694
  251BOLB   C4C 6020  11.359  29.780  13.571  0.2084  0.0138  0.0547
  251BOLB   C1D 6021  12.631  29.885  14.509  0.2228 -0.1005  0.0644
  251BOLB   C2D 6022  12.525  29.379  14.490 -0.0726  0.0732  0.0650
  251BOLB   C3D 6023  12.430  28.972  14.504 -0.3025  0.1569 -0.0838
  251BOLB   C4D 6024  12.221  28.641  14.487 -0.1423 -0.0059  0.2323
  252BOLB   NC1 6025   2.995  27.103  14.547 -0.0955 -0.1218  0.0525
  252BOLB   PO1 6026   3.279  27.418  14.351 -0.2716 -0.1829  0.3209
  252BOLB   GL1 6027   3.148  27.798  14.482  0.0224 -0.1903 -0.3086
  252BOLB   GL2 6028   2.938  27.996  14.295 -0.1817  0.0702  0.0698
  252BOLB   C1A 6029   3.075  28.036  14.812 -0.0885 -0.1195 -0.2679
  252BOLB   C2A 6030   2.810  28.309  14.972  0.0499 -0.1898  0.1930
  252BOLB   C3A 6031   2.481  28.385  15.370  0.0777  0.0435 -0.0871
  252BOLB   C4A 6032   2.231  28.464  15.763 -0.1139  0.3041 -0.0752
  252BOLB   C1B 6033   2.596  28.079  14.575 -0.1935 -0.1321 -0.2900
  252BOLB   C2B 6034   2.160  28.047  14.848 -0.2960 -0.0846 -0.3739
  252BOLB   C3B 6035   1.989  28.393  15.030  0.1205  0.0352 -0.2593
  252BOLB   C4B 6036   1.792  28.664  15.139  0.1358  0.0402 -0.2647
  252BOLB   NC2 6037   2.305  30.156  17.290  0.0638  0.1670 -0.1468
  252BOLB   PO2 6038   1.880  29.942  17.576  0.4120  0.1415 -0.0595
  252BOLB   GL3 6039   2.110  29.509  17.495 -0.2956 -0.1865  0.1539
  252BOLB   GL4 6040   2.251  29.358  17.835 -0.0762 -0.1822  0.1544
  252BOLB   C1C 6041   2.097  29.185  17.211  0.1153  0.1026  0.5616
  252BOLB   C2C 6042   2.147  29.221  16.855 -0.1939 -0.0059 -0.0859
  252BOLB   C3C 6043   2.111  28.912  16.545 -0.3094 -0.1473  0.1056
  252BOLB   C4C 6044   2.019  28.754  16.108 -0.0843  0.3023  0.0926
  252BOLB   C1D 6045   2.656  29.299  17.674  0.1624 -0.1513 -0.1748
  252BOLB   C2D 6046   2.905  29.021  17.621 -0.1731  0.1637 -0.2611
  252BOLB   C3D 6047   2.854  28.618  17.396  0.1617 -0.0390  0.1663
  252BOLB   C4D 6048   2.676  28.219  17.118 -0.2539 -0.1106 -0.3194
  253BOLB   NC1 6049  14.704  21.361   9.669  0.0396 -0.1044  0.1168
  253BOLB   PO1 6050  15.055  21.192   9.557  0.0303  0.0581 -0.1461
  253BOLB   GL1 6051  15.465  21.165   9.681  0.0546 -0.0623 -0.3861
  253BOLB   GL2 6052  15.620  21.137   9.392 -0.1176  0.0117  0.0090
  253BOLB   C1A 6053  15.834  21.265   9.875 -0.0036 -0.1734  0.0282
  253BOLB   C2A 6054  16.234  21.165  10.110  0.1831  0.2753  0.3327
  253BOLB   C3A 6055  16.624  21.189  10.275  0.0980  0.2926 -0.1365
  253BOLB   C4A 6056  17.013  21.190  10.497  0.0974 -0.1535  0.0547
  253BOLB   C1B 6057  16.061  21.307   9.506  0.0831  0.3020 -0.0750
  253BOLB   C2B 6058  16.394  21.469   9.756 -0.0936  0.0728  0.1759
  253BOLB   C3B 6059  16.573  21.654  10.100  0.0573  0.1328  0.0081
  253BOLB   C4B 6060  17.006  21.657  10.354  0.0239  0.2303  0.0551
  253BOLB   NC2 6061  19.016  21.125  12.082 -0.0926  0.1820 -0.1253
  253BOLB   PO2 6062  19.071  21.020  11.669 -0.0961  0.2369 -0.2448
  253BOLB   GL3 6063  18.681  20.745  11.608  0.0248  0.1575  0.0072
  253BOLB   GL4 6064  18.546  20.851  11.910  0.0001 -0.0524 -0.0283
  253BOLB   C1C 6065  18.241  20.706  11.444 -0.1910  0.3238  0.3288
  253BOLB   C2C 6066  17.912  20.829  11.101  0.3115 -0.5573 -0.1087
  253BOLB   C3C 6067  17.773  20.884  10.741 -0.5911 -0.3395  0.0960
  253BOLB   C4C 6068  17.336  20.955  10.602 -0.0996 -0.2019  0.1399
  253BOLB   C1D 6069  18.096  20.729  11.873 -0.2497 -0.0868 -0.1357
  253BOLB   C2D 6070  17.715  20.697  12.074  0.4404 -0.1258  0.1474
  253BOLB   C3D 6071  17.181  20.798  12.066  0.0831  0.0324  0.2649
  253BOLB   C4D 6072  16.750  21.015  11.974  0.1658  0.2547  0.1219
  254BOLB   NC1 6073  31.565  17.442  19.650 -0.1784  0.2280  0.1597
  254BOLB   PO1 6074  31.729  17.066  19.419  0.1369  0.0458  0.1328
  254BOLB   GL1 6075  31.915  16.985  19.115 -0.2692  0.0890 -0.2004
  254BOLB   GL2 6076  31.774  17.247  18.855  0.0413 -0.0399  0.2008
  254BOLB   C1A 6077  32.194  16.938  18.800  0.0039 -0.0383 -0.1653
  254BOLB   C2A 6078  32.594  16.669  18.860  0.0745 -0.5282 -0.0280
  254BOLB   C3A 6079  32.924  16.824  18.935 -0.0969 -0.1123 -0.1052
  254BOLB   C4A 6080  33.198  17.118  18.951  0.1025 -0.0155  0.1054
  254BOLB   C1B 6081  31.930  17.232  18.472 -0.1519 -0.0213 -0.1341
  254BOLB   C2B 6082  32.174  17.031  18.314  0.1890  0.0848 -0.1386
  254BOLB   C3B 6083  32.641  16.944  18.511 -0.1768 -0.1732 -0.1223
  254BOLB   C4B 6084  33.014  17.104  18.445  0.0854 -0.2212  0.0130
  254BOLB   NC2 6085  33.543  16.877  20.608  0.5918  0.0466 -0.0272
  254BOLB   PO2 6086  33.137  17.068  20.582  0.1919 -0.0785  0.0781
  254BOLB   GL3 6087  33.347  17.382  20.228  0.0361  0.3786 -0.2276
  254BOLB   GL4 6088  33.203  17.742  20.216 -0.1864 -0.2275 -0.0828
  254BOLB   C1C 6089  33.658  17.569  20.064  0.1634 -0.0779 -0.2464
  254BOLB   C2C 6090  34.026  17.490  19.766 -0.0353  0.0532  0.1407
  254BOLB   C3C 6091  33.928  17.438  19.259 -0.1901  0.0322 -0.0440
  254BOLB   C4C 6092  33.526  17.450  18.977  0.0511 -0.0901 -0.1802
  254BOLB   C1D 6093  33.098  17.453  19.837  0.1856 -0.2489 -0.2267
  254BOLB   C2D 6094  32.797  17.824  19.496  0.1396  0.0573  0.1833
  254BOLB   C3D 6095  32.652  18.067  19.198 -0.0535  0.2106  0.1081
  254BOLB   C4D 6096  32.523  18.433  19.030  0.1254 -0.0572 -0.0358
  255BOLB   NC1 6097   6.870  25.965   4.415 -0.0377  0.3061  0.0176
  255BOLB   PO1 6098   7.157  26.216   4.507  0.0211  0.0608 -0.3050
  255BOLB   GL1 6099   7.105  26.580   4.224 -0.1273 -0.1000  0.2070
  255BOLB   GL2 6100   6.909  26.626   4.007  0.1861  0.3456  0.0528
  255BOLB   C1A 6101   7.309  26.937   4.027  0.1151  0.0635  0.1453
  255BOLB   C2A 6102   7.195  27.186   3.706 -0.1647  0.2011 -0.0474
  255BOLB   C3A 6103   7.341  27.343   3.428 -0.3100 -0.0817  0.0070
  255BOLB   C4A 6104   7.793  27.586   3.172 -0.2362 -0.0684  0.2055
  255BOLB   C1B 6105   6.974  26.626   3.608  0.0380  0.0090 -0.3186
  255BOLB   C2B 6106   7.143  26.858   3.246  0.0056  0.1055  0.1372
  255BOLB   C3B 6107   7.146  26.941   2.784  0.1172 -0.2352 -0.0761
  255BOLB   C4B 6108   6.917  26.823   2.460  0.0599  0.0441 -0.3114
  255BOLB   NC2 6109   8.636  28.996   1.742  0.4349  0.3116 -0.0218
  255BOLB   PO2 6110   8.430  29.300   2.019  0.1518  0.0180  0.3470
  255BOLB   GL3 6111   8.534  28.925   2.270 -0.0158  0.2698  0.0463
  255BOLB   GL4 6112   8.582  29.010   2.593  0.1206 -0.3779 -0.1180
  255BOLB   C1C 6113   8.517  28.510   2.552 -0.1671  0.1477 -0.3013
  255BOLB   C2C 6114   8.448  28.463   2.947  0.1484 -0.0623 -0.2236
  255BOLB   C3C 6115   8.360  28.065   2.975  0.0571 -0.0405  0.1071
  255BOLB   C4C 6116   8.168  27.814   3.208  0.2003 -0.0132 -0.4555
  255BOLB   C1D 6117   8.593  28.909   3.044 -0.1413 -0.2170 -0.1021
  255BOLB   C2D 6118   8.731  28.693   3.354  0.0886  0.0944 -0.1539
  255BOLB   C3D 6119   8.774  28.394   3.734 -0.1653  0.1638  0.0342
  255BOLB   C4D 6120   8.627  28.071   4.086 -0.2221 -0.0251 -0.0557
  256BOLB   NC1 6121  32.937  12.749   4.068 -0.0756  0.1518  0.1622
  256BOLB   PO1 6122  32.909  12.881   4.495 -0.2596  0.2382  0.1068
  256BOLB   GL1 6123  33.290  13.180   4.640 -0.2028  0.0905  0.0363
  256BOLB   GL2 6124  33.280  13.530   4.612  0.0850 -0.1468  0.2640
  256BOLB   C1A 6125  33.655  13.357   4.871  0.0478 -0.0555 -0.0615
  256BOLB   C2A 6126  33.785  13.702   5.025 -0.0091  0.1505 -0.0047
  256BOLB   C3A 6127  34.127  13.780   5.371  0.1670 -0.0336 -0.2575
  256BOLB   C4A 6128  34.221  13.883   5.791  0.2321 -0.1325 -0.0062
  256BOLB   C1B 6129  33.475  13.856   4.642  0.0166 -0.0029  0.2049
  256BOLB   C2B 6130  33.894  14.111   4.651  0.0071 -0.2475 -0.1561
  256BOLB   C3B 6131  34.354  14.107   4.606  0.0367 -0.1153  0.0457
  256BOLB   C4B 6132  34.597  14.454   4.635 -0.1075 -0.0340 -0.0518
  256BOLB   NC2 6133  32.345  12.555   5.696  0.0899  0.1108  0.1181
  256BOLB   PO2 6134  32.830  12.348   5.729 -0.0193  0.0419 -0.2269
  256BOLB   GL3 6135  33.181  12.423   5.992 -0.1214 -0.0844 -0.0802
  256BOLB   GL4 6136  33.491  12.408   5.820 -0.0669  0.1437  0.0276
  256BOLB   C1C 6137  33.448  12.802   6.063 -0.1463  0.1122  0.1475
  256BOLB   C2C 6138  33.852  12.967   6.288  0.1415  0.0675 -0.0533
  256BOLB   C3C 6139  34.156  13.294   6.262  0.1837 -0.0295  0.1641
  256BOLB   C4C 6140  34.216  13.823   6.169  0.0354 -0.0169 -0.3520
  256BOLB   C1D 6141  33.889  12.743   5.836 -0.1049  0.0223  0.0582
  256BOLB   C2D 6142  34.279  12.886   5.973  0.2292 -0.4301 -0.1034
  256BOLB   C3D 6143  34.679  12.758   6.265  0.0141 -0.0417 -0.2363
  256BOLB   C4D 6144  34.960  12.989   6.600 -0.3542  0.1496  0.0174
  257BOLB   NC1 6145   5.519  21.699  18.651  0.0763  0.1689 -0.0173
  257BOLB   PO1 6146   5.836  21.368  18.704  0.1959 -0.0904 -0.2801
  257BOLB   GL1 6147   5.742  21.289  19.049  0.2685 -0.0228 -0.0734
  257BOLB   GL2 6148   5.428  21.453  19.077 -0.0177  0.2103 -0.0369
  257BOLB   C1A 6149   5.785  21.199  19.397  0.0381  0.2208  0.1065
  257BOLB   C2A 6150   5.633  20.797  19.666  0.1213 -0.2218  0.0812
  257BOLB   C3A 6151   5.197  20.813  19.911 -0.0043 -0.0482  0.0141
  257BOLB   C4A 6152   5.136  20.761  20.384  0.3567 -0.0479 -0.0572
  257BOLB   C1B 6153   5.365  21.598  19.473 -0.1249  0.1089 -0.1670
  257BOLB   C2B 6154   5.386  21.324  19.862  0.3308  0.1851 -0.0435
  257BOLB   C3B 6155   5.362  21.225  20.364 -0.0620 -0.0448  0.1295
  257BOLB   C4B 6156   5.018  21.232  20.661 -0.5112 -0.2550 -0.1643
  257BOLB   NC2 6157   4.769  20.087  22.789  0.0381  0.0421 -0.4548
  257BOLB   PO2 6158   4.759  19.786  22.621  0.1709 -0.1884 -0.1290
  257BOLB   GL3 6159   4.561  19.724  22.261  0.0987  0.0428  0.3115
  257BOLB   GL4 6160   4.388  19.431  22.034  0.2260 -0.3143  0.2813
  257BOLB   C1C 6161   4.600  19.801  21.845  0.2782 -0.1157 -0.0848
  257BOLB   C2C 6162   4.786  20.082  21.518  0.1922  0.3620 -0.0934
  257BOLB   C3C 6163   4.912  20.536  21.404  0.1257  0.2618 -0.1986
  257BOLB   C4C 6164   5.052  20.720  20.906 -0.2542  0.0919 -0.4046
  257BOLB   C1D 6165   4.151  19.408  21.606  0.2412  0.2252  0.3116
  257BOLB   C2D 6166   3.806  19.627  21.290 -0.2536 -0.2530 -0.0643
  257BOLB   C3D 6167   3.813  19.957  20.967  0.0279  0.2363  0.3833
  257BOLB   C4D 6168   3.630  20.355  20.918  0.4314 -0.2574 -0.0927
  258BOLB   NC1 6169   6.877  13.438  11.293 -0.2662 -0.3130 -0.1188
  258BOLB   PO1 6170   6.768  13.225  11.002  0.4272 -0.2595  0.0013
  258BOLB   GL1 6171   6.783  12.776  11.172  0.0833 -0.0020  0.3460
  258BOLB   GL2 6172   6.416  12.635  11.247 -0.1439 -0.1195 -0.0235
  258BOLB   C1A 6173   6.910  12.458  11.302 -0.1285  0.5496  0.0333
  258BOLB   C2A 6174   7.017  12.252  11.672 -0.0832 -0.0302  0.0465
  258BOLB   C3A 6175   7.032  11.847  11.857 -0.0402  0.1779  0.0333
  258BOLB   C4A 6176   6.776  11.508  11.711 -0.1682  0.4091  0.1399
  258BOLB   C1B 6177   6.367  12.213  11.360 -0.0392 -0.0197 -0.2773
  258BOLB   C2B 6178   6.686  12.036  11.259 -0.1505  0.1955  0.0456
  258BOLB   C3B 6179   7.117  11.830  11.398  0.1369 -0.1434 -0.0279
  258BOLB   C4B 6180   7.500  11.878  11.626 -0.1718  0.5388  0.0642
  258BOLB   NC2 6181   8.051   9.861  12.808  0.2629  0.0695 -0.1759
  258BOLB   PO2 6182   7.710   9.820  13.117  0.2957 -0.0690 -0.3408
  258BOLB   GL3 6183   7.508  10.163  12.953 -0.4475  0.0442 -0.0674
  258BOLB   GL4 6184   7.813  10.361  13.021  0.1081  0.1550  0.0927
  258BOLB   C1C 6185   7.200  10.357  12.776  0.3047 -0.1895  0.0484
  258BOLB   C2C 6186   7.162  10.720  12.498 -0.4217 -0.1239  0.1107
  258BOLB   C3C 6187   6.996  10.808  12.103 -0.2093  0.1176  0.1888
  258BOLB   C4C 6188   6.799  10.958  11.736  0.0285 -0.0734 -0.0478
  258BOLB   C1D 6189   7.896  10.641  13.427  0.2497  0.3108  0.3029
  258BOLB   C2D 6190   8.109  10.932  13.566  0.2285  0.2423 -0.1821
  258BOLB   C3D 6191   8.443  11.220  13.436 -0.3100  0.2737 -0.0845
  258BOLB   C4D 6192   8.859  11.324  13.275  0.0726 -0.4140  0.0095
  259BOLB   NC1 6193   8.651  22.027   2.673 -0.0513 -0.2687  0.2339
  259BOLB   PO1 6194   8.192  22.051   2.719  0.2029 -0.1197 -0.3431
  259BOLB   GL1 6195   8.271  22.132   2.350  0.3582 -0.0604 -0.1712
  259BOLB   GL2 6196   7.942  22.297   2.034  0.0013  0.0069  0.2016
  259BOLB   C1A 6197   8.490  22.328   1.975 -0.0994 -0.0860 -0.1456
  259BOLB   C2A 6198   8.367  22.546   1.677  0.1808 -0.0656  0.0813
  259BOLB   C3A 6199   8.343  22.650   1.266  0.1946  0.0432 -0.1278
  259BOLB   C4A 6200   8.448  22.839   0.885  0.0381 -0.1876 -0.1102
  259BOLB   C1B 6201   7.906  22.498   1.736 -0.0601 -0.0812 -0.1484
  259BOLB   C2B 6202   7.775  22.614   1.362 -0.0475 -0.0277  0.0181
  259BOLB   C3B 6203   7.836  22.854   1.107 -0.2660  0.1614 -0.0139
  259BOLB   C4B 6204   8.068  23.175   0.805  0.2520 -0.1225  0.1307
  259BOLB   NC2 6205   9.335  23.347  -1.345 -0.0596 -0.0096 -0.0068
  259BOLB   PO2 6206   9.538  23.672  -1.137 -0.1126  0.0484  0.2676
  259BOLB   GL3 6207   9.401  23.545  -0.758 -0.1940 -0.0375  0.0438
  259BOLB   GL4 6208   9.566  23.762  -0.576  0.1683  0.0411 -0.0982
  259BOLB   C1C 6209   9.126  23.239  -0.578  0.0226  0.2404  0.1245
  259BOLB   C2C 6210   8.996  23.156  -0.219  0.1729 -0.1962 -0.0274
  259BOLB   C3C 6211   8.708  22.842  -0.038  0.3992 -0.4198 -0.0562
  259BOLB   C4C 6212   8.455  22.884   0.400  0.1668 -0.1475  0.0632
  259BOLB   C1D 6213   9.110  23.735  -0.490  0.3378 -0.0864  0.0945
  259BOLB   C2D 6214   8.891  23.633  -0.112 -0.0464 -0.1397 -0.2363
  259BOLB   C3D 6215   8.624  23.397   0.155  0.0712  0.1376  0.3081
  259BOLB   C4D 6216   8.278  23.251   0.082  0.0529 -0.2593  0.1071
  260BOLB   NC1 6217  12.492  15.939   9.988 -0.1371  0.1880  0.0346
  260BOLB   PO1 6218  12.472  15.668   9.674  0.0970  0.2356  0.0033
  260BOLB   GL1 6219  12.602  15.226   9.687  0.1687  0.1351 -0.0112
  260BOLB   GL2 6220  12.515  14.876   9.786 -0.1600 -0.0735 -0.0492
  260BOLB   C1A 6221  12.946  15.071   9.691  0.1505  0.0817  0.1198
  260BOLB   C2A 6222  13.368  15.136   9.621  0.0850 -0.0823  0.0284
  260BOLB   C3A 6223  13.715  15.205   9.856 -0.1986 -0.1927  0.1262
  260BOLB   C4A 6224  14.041  14.969   9.900  0.0222  0.0874  0.2116
  260BOLB   C1B 6225  12.918  14.697   9.998  0.1719  0.0012  0.3937
  260BOLB   C2B 6226  13.270  14.454  10.295 -0.1145  0.1216  0.3096
  260BOLB   C3B 6227  13.223  14.111  10.517  0.0661  0.0471  0.0150
  260BOLB   C4B 6228  13.173  13.714  10.648  0.0892 -0.0558 -0.2957
  260BOLB   NC2 6229  15.820  12.808   9.854 -0.1923 -0.0306  0.2136
  260BOLB   PO2 6230  15.528  13.026  10.103  0.2185 -0.0431  0.0148
  260BOLB   GL3 6231  15.239  13.280  10.158 -0.0777 -0.1716  0.3516
  260BOLB   GL4 6232  15.146  13.145   9.809  0.1611  0.0086  0.0583
  260BOLB   C1C 6233  15.238  13.791  10.119  0.0459  0.1884  0.1189
  260BOLB   C2C 6234  14.921  14.122  10.017  0.2201  0.3348 -0.2125
  260BOLB   C3C 6235  14.595  14.458  10.143 -0.1634 -0.2662 -0.0117
  260BOLB   C4C 6236  14.410  14.806  10.013  0.2505 -0.2233 -0.1782
  260BOLB   C1D 6237  14.892  13.521   9.642 -0.0047  0.1477 -0.1415
  260BOLB   C2D 6238  14.629  13.894   9.701  0.0219  0.2614 -0.2931
  260BOLB   C3D 6239  14.261  14.133   9.626 -0.1911  0.1054  0.2121
  260BOLB   C4D 6240  14.041  14.476   9.735 -0.2605  0.2653  0.0079
  261BOLB   NC1 6241   4.180  20.166  18.151 -0.0852 -0.0790 -0.0468
  261BOLB   PO1 6242   4.098  19.766  17.956 -0.0427  0.1449  0.1141
  261BOLB   GL1 6243   4.192  19.542  18.296  0.0810  0.1808  0.1824
  261BOLB   GL2 6244   4.228  19.721  18.559  0.2308  0.1250  0.3701
  261BOLB   C1A 6245   4.014  19.198  18.540 -0.0573 -0.1564  0.0958
  261BOLB   C2A 6246   3.947  19.071  18.940 -0.2400  0.0235 -0.2474
  261BOLB   C3A 6247   3.971  19.322  19.394 -0.0082 -0.0103 -0.4202
  261BOLB   C4A 6248   4.128  19.313  19.823 -0.1516 -0.0222 -0.1509
  261BOLB   C1B 6249   4.154  19.600  18.923  0.0643 -0.1285  0.4355
  261BOLB   C2B 6250   3.742  19.802  19.159  0.1093 -0.1158 -0.0800
  261BOLB   C3B 6251   3.281  19.861  19.151 -0.1241 -0.0368 -0.1050
  261BOLB   C4B 6252   2.960  19.598  19.287 -0.0401 -0.2215 -0.4366
  261BOLB   NC2 6253   4.985  18.586  21.975 -0.1494  0.1423 -0.2050
  261BOLB   PO2 6254   4.539  18.899  22.152 -0.0632 -0.1814  0.0901
  261BOLB   GL3 6255   4.513  18.975  21.807 -0.1166  0.1530 -0.2261
  261BOLB   GL4 6256   4.180  18.860  21.741  0.1506 -0.2334 -0.2560
  261BOLB   C1C 6257   4.526  19.022  21.419 -0.1648 -0.0094 -0.0110
  261BOLB   C2C 6258   4.351  19.325  21.032  0.3511  0.1691  0.0418
  261BOLB   C3C 6259   4.207  19.408  20.716 -0.0951 -0.1317  0.2134
  261BOLB   C4C 6260   4.167  19.430  20.269 -0.2581  0.2736 -0.0428
  261BOLB   C1D 6261   4.082  18.755  21.342 -0.0883  0.4012 -0.0075
  261BOLB   C2D 6262   4.189  18.852  20.887  0.0963 -0.3012 -0.1541
  261BOLB   C3D 6263   4.441  19.021  20.478 -0.4816 -0.0463 -0.1215
  261BOLB   C4D 6264   4.460  19.072  20.048 -0.0085 -0.0895 -0.0925
  262BOLB   NC1 6265   8.752  18.814   2.348 -0.3282  0.0241 -0.1173
  262BOLB   PO1 6266   8.290  19.009   2.220  0.2351 -0.0270 -0.5283
  262BOLB   GL1 6267   8.326  18.752   1.921  0.0381  0.7181  0.0221
  262BOLB   GL2 6268   8.708  18.474   1.945  0.0307  0.1076 -0.1796
  262BOLB   C1A 6269   8.470  18.719   1.511 -0.3089  0.2956  0.1456
  262BOLB   C2A 6270   8.294  18.869   0.985 -0.0598 -0.2944  0.0596
  262BOLB   C3A 6271   8.435  18.852   0.553  0.1034  0.0795 -0.2438
  262BOLB   C4A 6272   8.559  19.053   0.171 -0.1836 -0.2087  0.1453
  262BOLB   C1B 6273   8.960  18.518   1.542 -0.3620  0.1709  0.0947
  262BOLB   C2B 6274   8.828  18.586   1.192  0.3286 -0.0027  0.1876
  262BOLB   C3B 6275   8.809  18.618   0.800  0.2922 -0.0832  0.0281
  262BOLB   C4B 6276   8.935  18.624   0.421  0.3526 -0.0576 -0.0232
  262BOLB   NC2 6277   9.606  19.095  -2.149  0.4173 -0.0193  0.2296
  262BOLB   PO2 6278   9.366  18.816  -1.993 -0.0038 -0.2056  0.0381
  262BOLB   GL3 6279   9.425  18.967  -1.597  0.0400 -0.1631 -0.0572
  262BOLB   GL4 6280   9.779  18.816  -1.647  0.0782 -0.1520 -0.0698
  262BOLB   C1C 6281   9.442  19.275  -1.249 -0.4949  0.1466  0.0587
  262BOLB   C2C 6282   9.353  19.480  -0.821  0.3691  0.0570  0.0142
  262BOLB   C3C 6283   9.173  19.395  -0.463  0.0526 -0.0608  0.1383
  262BOLB   C4C 6284   8.973  19.136  -0.098  0.0390  0.3713 -0.1813
  262BOLB   C1D 6285   9.614  18.722  -1.194  0.0329  0.0916 -0.0222
  262BOLB   C2D 6286   9.464  18.917  -0.793 -0.0210 -0.2338  0.3592
  262BOLB   C3D 6287   9.047  18.951  -0.758  0.0891 -0.0510  0.1770
  262BOLB   C4D 6288   8.738  19.057  -0.499  0.3554  0.0150 -0.1394
  263BOLB   NC1 6289  12.860  17.203  12.483  0.1022  0.0785  0.2116
  263BOLB   PO1 6290  12.468  17.004  12.631 -0.1774 -0.1704 -0.3698
  263BOLB   GL1 6291  12.839  16.695  12.661  0.0845  0.0170 -0.0202
  263BOLB   GL2 6292  12.910  16.686  12.952 -0.0625  0.1837  0.1340
  263BOLB   C1A 6293  13.094  16.345  12.658 -0.0691  0.1320 -0.0833
  263BOLB   C2A 6294  13.359  16.115  12.961 -0.1625 -0.0043  0.3189
  263BOLB   C3A 6295  13.601  15.846  13.119  0.4765 -0.4451 -0.2913
  263BOLB   C4A 6296  13.890  15.578  13.337 -0.2303 -0.3168  0.1184
  263BOLB   C1B 6297  12.985  16.311  13.159 -0.5525  0.0985  0.0362
  263BOLB   C2B 6298  13.272  16.082  13.481 -0.0734  0.2510 -0.0575
  263BOLB   C3B 6299  13.243  15.951  13.886  0.3788 -0.0095  0.1439
  263BOLB   C4B 6300  13.354  15.717  14.249 -0.0734 -0.1490 -0.0423
  263BOLB   NC2 6301  14.411  14.281  15.319 -0.0579  0.0084 -0.1328
  263BOLB   PO2 6302  14.143  13.973  15.134  0.1525  0.3637 -0.0942
  263BOLB   GL3 6303  14.224  14.353  14.853  0.1577  0.0865  0.0384
  263BOLB   GL4 6304  14.082  14.491  15.059  0.4526  0.0372 -0.0385
  263BOLB   C1C 6305  14.350  14.633  14.475  0.0037  0.1437  0.0886
  263BOLB   C2C 6306  14.094  14.907  14.142 -0.1656  0.1112  0.3693
  263BOLB   C3C 6307  13.961  14.817  13.783  0.0476  0.0646  0.0632
  263BOLB   C4C 6308  13.925  15.136  13.473 -0.2286 -0.2335  0.0913
  263BOLB   C1D 6309  13.830  14.703  14.783 -0.0206 -0.1871  0.0988
  263BOLB   C2D 6310  13.730  15.042  14.521 -0.0524  0.0640 -0.1205
  263BOLB   C3D 6311  13.742  15.407  14.490  0.0212  0.3145  0.1398
  263BOLB   C4D 6312  13.865  15.762  14.143 -0.0284  0.1680  0.0710
  264BOLB   NC1 6313   9.552  19.287   2.359  0.0108 -0.2500 -0.1255
  264BOLB   PO1 6314   9.237  19.612   2.191  0.2079 -0.1226 -0.3631
  264BOLB   GL1 6315   9.373  19.346   1.887  0.0434 -0.1157 -0.0625
  264BOLB   GL2 6316   9.139  19.369   1.698  0.4062 -0.2520  0.0710
  264BOLB   C1A 6317   9.652  19.189   1.614 -0.0155  0.2114 -0.0828
  264BOLB   C2A 6318   9.782  19.242   1.188 -0.1723  0.0565 -0.1372
  264BOLB   C3A 6319  10.097  19.239   0.813  0.1327  0.1025 -0.0356
  264BOLB   C4A 6320  10.199  19.429   0.453  0.1989  0.2326  0.3412
  264BOLB   C1B 6321   9.320  19.279   1.278 -0.2737  0.1354 -0.0158
  264BOLB   C2B 6322   9.314  19.181   0.812  0.0799  0.0283 -0.1722
  264BOLB   C3B 6323   9.472  19.463   0.494 -0.0658 -0.2491 -0.0660
  264BOLB   C4B 6324   9.489  19.860   0.669  0.0617  0.1101  0.2201
  264BOLB   NC2 6325  12.330  18.795  -0.848  0.2509 -0.2767  0.0041
  264BOLB   PO2 6326  11.977  18.664  -1.036  0.1694  0.2278  0.2308
  264BOLB   GL3 6327  11.615  18.866  -0.780 -0.1488 -0.1164  0.0677
  264BOLB   GL4 6328  11.582  19.287  -0.850  0.0206  0.1465  0.1121
  264BOLB   C1C 6329  11.307  19.120  -0.499  0.1146 -0.0803 -0.0725
  264BOLB   C2C 6330  11.007  19.151  -0.297  0.3605  0.0041 -0.0789
  264BOLB   C3C 6331  10.647  19.435  -0.188 -0.0977  0.0862  0.1584
  264BOLB   C4C 6332  10.445  19.677   0.074  0.0732 -0.2509  0.1201
  264BOLB   C1D 6333  11.675  19.402  -0.522  0.0533 -0.0363 -0.2297
  264BOLB   C2D 6334  11.570  19.708  -0.297 -0.1333 -0.0566 -0.0619
  264BOLB   C3D 6335  11.591  19.887   0.125  0.0027  0.0373 -0.0251
  264BOLB   C4D 6336  11.762  20.057   0.529  0.2922  0.2570 -0.1950
  265BOLB   NC1 6337  15.054  21.472   6.090  0.3483  0.0294 -0.2285
  265BOLB   PO1 6338  14.946  21.870   6.082 -0.4539  0.0858 -0.0974
  265BOLB   GL1 6339  15.408  21.823   5.905  0.1047 -0.0035  0.1028
  265BOLB   GL2 6340  15.437  21.410   5.813  0.0326  0.1003 -0.1344
  265BOLB   C1A 6341  15.870  21.914   5.883 -0.1661  0.0322 -0.0706
  265BOLB   C2A 6342  16.232  21.775   6.154  0.1454  0.1172 -0.1748
  265BOLB   C3A 6343  16.580  21.704   5.852 -0.2979 -0.0258 -0.1893
  265BOLB   C4A 6344  16.697  21.412   5.468 -0.0457 -0.4992 -0.0624
  265BOLB   C1B 6345  15.806  21.233   5.577  0.1649  0.2855 -0.2997
  265BOLB   C2B 6346  15.950  21.265   5.073  0.4602  0.1145  0.1019
  265BOLB   C3B 6347  15.788  21.321   4.693 -0.1982  0.0209  0.1127
  265BOLB   C4B 6348  15.693  21.726   4.463 -0.0753 -0.1236 -0.2490
  265BOLB   NC2 6349  19.367  21.022   5.207  0.2541 -0.0168 -0.3558
  265BOLB   PO2 6350  18.981  20.659   4.996 -0.0850  0.0594  0.1951
  265BOLB   GL3 6351  18.666  20.837   5.370  0.0321  0.3077  0.2060
  265BOLB   GL4 6352  18.530  20.623   5.643  0.0826 -0.1265 -0.2734
  265BOLB   C1C 6353  18.332  20.948   5.326 -0.0642 -0.3112  0.1750
  265BOLB   C2C 6354  17.923  21.116   5.282  0.1758  0.2757  0.1886
  265BOLB   C3C 6355  17.463  21.195   5.120 -0.0499 -0.0945  0.1348
  265BOLB   C4C 6356  17.077  21.430   5.161  0.1003  0.1714  0.0002
  265BOLB   C1D 6357  18.213  20.376   5.933  0.1002 -0.1327  0.0830
  265BOLB   C2D 6358  17.761  20.328   5.865 -0.1318 -0.0538  0.2350
  265BOLB   C3D 6359  17.425  20.294   5.643  0.2014  0.0152  0.3902
  265BOLB   C4D 6360  17.027  20.422   5.719 -0.1135 -0.0155 -0.0389
  266BOLB   NC1 6361   7.154  28.835   8.630 -0.2776  0.5203  0.2757
  266BOLB   PO1 6362   7.421  28.992   9.118 -0.0220  0.0527 -0.1347
  266BOLB   GL1 6363   7.299  29.377   9.296 -0.0430 -0.1334  0.1913
  266BOLB   GL2 6364   7.064  29.508   9.253  0.1443  0.2697  0.2251
  266BOLB   C1A 6365   7.386  29.736   8.954 -0.1441  0.3474 -0.6081
  266BOLB   C2A 6366   7.381  30.237   8.929 -0.0224  0.2632 -0.2243
  266BOLB   C3A 6367   7.381  30.662   9.221 -0.0451  0.3370 -0.0743
  266BOLB   C4A 6368   7.320  31.053   9.070 -0.1852 -0.1280  0.0835
  266BOLB   C1B 6369   6.999  29.964   9.230  0.0089 -0.0319  0.1340
  266BOLB   C2B 6370   6.925  30.424   9.145 -0.1136  0.0074  0.0777
  266BOLB   C3B 6371   6.912  30.719   8.847  0.1070 -0.0125 -0.1481
  266BOLB   C4B 6372   6.819  31.132   8.856  0.0156  0.0447  0.3058
  266BOLB   NC2 6373   6.715  33.024   8.789 -0.1262 -0.0982 -0.2525
  266BOLB   PO2 6374   6.361  32.897   8.509 -0.0403 -0.2226 -0.0560
  266BOLB   GL3 6375   6.291  32.474   8.419  0.0561  0.0422  0.0606
  266BOLB   GL4 6376   6.105  32.429   8.089  0.0032  0.1005 -0.1680
  266BOLB   C1C 6377   6.506  32.065   8.424  0.0109 -0.2470  0.0011
  266BOLB   C2C 6378   6.717  31.966   8.662  0.0931  0.2041 -0.3784
  266BOLB   C3C 6379   6.757  31.665   9.041 -0.1976  0.0176  0.3176
  266BOLB   C4C 6380   7.109  31.445   9.065 -0.1315 -0.3294 -0.1854
  266BOLB   C1D 6381   5.992  31.997   8.021 -0.2059  0.2138  0.3429
  266BOLB   C2D 6382   6.065  31.641   7.882  0.2756 -0.0299  0.0576
  266BOLB   C3D 6383   6.447  31.552   7.697  0.1325  0.0518  0.1263
  266BOLB   C4D 6384   6.687  31.537   7.388 -0.2431 -0.2722  0.3072
  267BOLB   NC1 6385  12.710  14.208  17.444  0.2573 -0.0901 -0.1204
  267BOLB   PO1 6386  12.272  14.263  17.646  0.4567 -0.3321  0.3023
  267BOLB   GL1 6387  12.070  14.346  17.209 -0.1070 -0.1434 -0.0200
  267BOLB   GL2 6388  11.845  14.485  17.278  0.1807  0.1534  0.1161
  267BOLB   C1A 6389  12.097  14.535  16.769 -0.0254 -0.2759 -0.0251
  267BOLB   C2A 6390  11.979  14.620  16.473 -0.0903  0.1151  0.3516
  267BOLB   C3A 6391  11.614  14.700  16.203  0.1767 -0.2208 -0.0199
  267BOLB   C4A 6392  11.428  14.993  15.854  0.0786  0.0076  0.1072
  267BOLB   C1B 6393  11.564  14.560  16.909 -0.2010  0.2962  0.2532
  267BOLB   C2B 6394  11.215  14.942  16.699 -0.3646  0.3123 -0.0074
  267BOLB   C3B 6395  10.874  15.247  16.674 -0.3836 -0.1083 -0.0833
  267BOLB   C4B 6396  10.505  15.472  16.585  0.2394 -0.3248  0.2130
  267BOLB   NC2 6397  10.638  16.236  14.200 -0.0519 -0.4042 -0.0387
  267BOLB   PO2 6398  11.065  16.506  14.238 -0.1910  0.0714 -0.1234
  267BOLB   GL3 6399  11.476  16.293  14.361  0.0337 -0.1672  0.0925
  267BOLB   GL4 6400  11.798  16.372  14.379 -0.0490  0.0708  0.0078
  267BOLB   C1C 6401  11.653  15.919  14.506 -0.6293  0.0862 -0.2263
  267BOLB   C2C 6402  11.710  15.721  14.877  0.1405  0.2366 -0.2490
  267BOLB   C3C 6403  11.666  15.398  15.155 -0.2902 -0.1198  0.3041
  267BOLB   C4C 6404  11.451  15.288  15.515 -0.0617 -0.0623 -0.3245
  267BOLB   C1D 6405  12.045  16.189  14.760 -0.0099  0.0443 -0.2376
  267BOLB   C2D 6406  12.178  15.770  15.137  0.0636  0.0879 -0.1298
  267BOLB   C3D 6407  12.279  15.449  15.443  0.0562 -0.2634  0.4729
  267BOLB   C4D 6408  12.600  15.112  15.357  0.3142  0.2045 -0.0758
  268BOLB   NC1 6409   9.986  14.068  11.520 -0.0985 -0.1901 -0.2664
  268BOLB   PO1 6410   9.924  13.912  11.031 -0.1247 -0.0766 -0.2983
  268BOLB   GL1 6411  10.049  13.594  11.318  0.0152 -0.0453  0.3668
  268BOLB   GL2 6412  10.231  13.432  11.103  0.0082 -0.4032  0.0165
  268BOLB   C1A 6413  10.357  13.363  11.555  0.1907  0.1833  0.0178
  268BOLB   C2A 6414  10.388  13.338  11.970 -0.5364  0.2463  0.2685
  268BOLB   C3A 6415  10.329  13.143  12.404  0.1039 -0.1604  0.1536
  268BOLB   C4A 6416  10.413  12.991  12.850 -0.3042  0.0499  0.1006
  268BOLB   C1B 6417  10.374  13.044  11.191 -0.1745 -0.0009  0.0993
  268BOLB   C2B 6418  10.581  12.672  11.156 -0.2320  0.0677  0.0085
  268BOLB   C3B 6419  10.655  12.284  10.918  0.3397 -0.0695  0.0644
  268BOLB   C4B 6420  10.283  11.996  10.762 -0.0516 -0.1294 -0.1133
  268BOLB   NC2 6421  10.934  10.541  14.318 -0.1697  0.0281  0.1069
  268BOLB   PO2 6422  10.522  10.745  14.111 -0.0700 -0.0963  0.0150
  268BOLB   GL3 6423  10.549  11.140  13.825 -0.0312  0.2796 -0.1638
  268BOLB   GL4 6424  10.783  11.308  14.082  0.2643 -0.0789 -0.1160
  268BOLB   C1C 6425  10.436  11.559  13.832 -0.2326  0.0464  0.2191
  268BOLB   C2C 6426  10.571  11.905  13.579 -0.0497 -0.0376 -0.2493
  268BOLB   C3C 6427  10.441  12.346  13.417  0.0121  0.1385  0.1557
  268BOLB   C4C 6428  10.307  12.636  13.159 -0.0642 -0.0021 -0.0535
  268BOLB   C1D 6429  11.019  11.665  14.016  0.3537 -0.4308  0.1842
  268BOLB   C2D 6430  11.085  12.016  13.787 -0.3190  0.1451  0.2207
  268BOLB   C3D 6431  10.967  12.236  13.409  0.4345  0.2619  0.2167
  268BOLB   C4D 6432  10.892  12.046  13.058 -0.0915 -0.0572 -0.2500
  269BOLB   NC1 6433  11.031  15.779  12.569 -0.1265 -0.0981  0.0214
  269BOLB   PO1 6434  11.240  16.126  12.707 -0.1779  0.1794  0.0048
  269BOLB   GL1 6435  11.697  16.087  12.978 -0.1522  0.1834 -0.0554
  269BOLB   GL2 6436  11.711  16.278  13.226 -0.2245 -0.3850 -0.0933
  269BOLB   C1A 6437  12.167  15.945  13.060  0.1822  0.0232 -0.0357
  269BOLB   C2A 6438  12.659  15.826  13.293 -0.1498 -0.2035  0.1917
  269BOLB   C3A 6439  13.107  15.674  13.232 -0.2661 -0.1016 -0.2571
  269BOLB   C4A 6440  13.407  15.426  13.343  0.2111  0.2303 -0.2177
  269BOLB   C1B 6441  11.992  15.926  13.466  0.1538 -0.4819  0.0064
  269BOLB   C2B 6442  12.297  15.723  13.748  0.2755 -0.0632 -0.0370
  269BOLB   C3B 6443  12.630  15.464  13.951 -0.0382  0.1079 -0.0935
  269BOLB   C4B 6444  13.037  15.503  13.770  0.1555  0.3253  0.0511
  269BOLB   NC2 6445  15.127  14.624  14.894  0.5450  0.0162  0.2134
  269BOLB   PO2 6446  14.694  14.563  15.045  0.0230  0.3086 -0.1133
  269BOLB   GL3 6447  14.437  14.828  15.030  0.0969  0.0435 -0.0573
  269BOLB   GL4 6448  14.499  15.115  15.128 -0.0749  0.1160  0.2604
  269BOLB   C1C 6449  14.308  15.229  14.667 -0.0543  0.1129  0.0470
  269BOLB   C2C 6450  14.168  15.353  14.307  0.1335 -0.1088  0.1017
  269BOLB   C3C 6451  13.764  15.240  13.989 -0.0034  0.0870  0.3765
  269BOLB   C4C 6452  13.485  15.119  13.622 -0.1383 -0.0825  0.1738
  269BOLB   C1D 6453  14.285  15.387  15.198  0.3332  0.4742 -0.2544
  269BOLB   C2D 6454  13.945  15.701  14.998 -0.1628  0.2135  0.1066
  269BOLB   C3D 6455  14.128  16.141  14.988 -0.2587 -0.0713 -0.0169
  269BOLB   C4D 6456  14.098  16.544  14.809  0.0645  0.1461  0.2530
  270BOLB   NC1 6457   8.998  14.589  13.625  0.2733 -0.0068  0.0702
  270BOLB   PO1 6458   8.486  14.683  13.758  0.0575  0.1091 -0.1662
  270BOLB   GL1 6459   8.710  14.272  13.919  0.0813  0.1406  0.0954
  270BOLB   GL2 6460   8.879  14.251  14.097 -0.0810  0.1350 -0.2410
  270BOLB   C1A 6461   8.681  13.794  13.938 -0.0925  0.0944  0.1122
  270BOLB   C2A 6462   8.661  13.476  14.329 -0.2959  0.1342  0.0978
  270BOLB   C3A 6463   8.542  13.059  14.414  0.2358 -0.0062 -0.3239
  270BOLB   C4A 6464   8.373  12.991  14.750  0.1588 -0.0858  0.0660
  270BOLB   C1B 6465   8.882  13.952  14.387 -0.0041 -0.0041 -0.0814
  270BOLB   C2B 6466   9.193  13.649  14.580  0.0727  0.2559  0.0072
  270BOLB   C3B 6467   9.716  13.493  14.750 -0.0198 -0.1296  0.1072
  270BOLB   C4B 6468  10.177  13.558  14.648  0.1521 -0.1064 -0.3431
  270BOLB   NC2 6469   9.740  11.646  16.243 -0.1318  0.0731  0.0729
  270BOLB   PO2 6470   9.218  11.710  16.234  0.1606 -0.0747  0.2129
  270BOLB   GL3 6471   8.861  11.941  16.062  0.0445 -0.1454 -0.0103
  270BOLB   GL4 6472   8.595  11.928  16.246  0.0413  0.2858 -0.0384
  270BOLB   C1C 6473   8.757  12.253  15.867  0.3358 -0.1364  0.2184
  270BOLB   C2C 6474   8.581  12.478  15.659  0.0378  0.2341  0.5543
  270BOLB   C3C 6475   8.295  12.683  15.448 -0.0437  0.1725 -0.1198
  270BOLB   C4C 6476   8.318  12.719  15.093 -0.1189  0.4431 -0.0211
  270BOLB   C1D 6477   8.247  12.066  16.082 -0.1800  0.0927  0.1572
  270BOLB   C2D 6478   8.048  12.198  16.341 -0.2116  0.2931  0.0405
  270BOLB   C3D 6479   7.830  12.432  16.681 -0.2278  0.0660  0.0421
  270BOLB   C4D 6480   7.774  12.892  16.669  0.2127  0.0533  0.0920
  271BOLB   NC1 6481  13.270  17.569  10.822 -0.1705 -0.0665 -0.1033
  271BOLB   PO1 6482  13.600  17.754  11.077 -0.1387 -0.3186  0.1428
  271BOLB   GL1 6483  13.969  17.713  11.378 -0.1234 -0.0936  0.0751
  271BOLB   GL2 6484  13.978  17.427  11.298  0.1657 -0.0973 -0.2237
  271BOLB   C1A 6485  14.371  17.649  11.586  0.0813  0.0966  0.1819
  271BOLB   C2A 6486  14.631  17.320  11.451  0.0378  0.2127  0.0534
  271BOLB   C3A 6487  14.964  17.090  11.640 -0.1397 -0.1019  0.3341
  271BOLB   C4A 6488  15.431  17.123  11.621 -0.3830  0.0775 -0.2397
  271BOLB   C1B 6489  14.187  17.178  11.559  0.0281 -0.1603  0.0078
  271BOLB   C2B 6490  14.549  16.951  11.840  0.2776 -0.1584  0.0971
  271BOLB   C3B 6491  14.918  16.607  12.011 -0.0930  0.2483 -0.1601
  271BOLB   C4B 6492  15.070  16.187  12.164  0.1455  0.0331 -0.0308
  271BOLB   NC2 6493  18.391  16.942  11.976 -0.3386 -0.1295  0.0953
  271BOLB   PO2 6494  17.967  16.793  11.970 -0.0828  0.3607 -0.0073
  271BOLB   GL3 6495  17.468  16.834  12.103 -0.0627  0.2228 -0.1922
  271BOLB   GL4 6496  17.316  16.512  12.087 -0.1439 -0.1356 -0.2050
  271BOLB   C1C 6497  17.024  16.948  12.166  0.3486  0.1092 -0.2363
  271BOLB   C2C 6498  16.508  16.993  12.124 -0.0544  0.0557 -0.0551
  271BOLB   C3C 6499  16.162  17.294  12.005 -0.2147  0.3007 -0.1687
  271BOLB   C4C 6500  15.882  17.260  11.666 -0.1607  0.1410 -0.0286
  271BOLB   C1D 6501  17.016  16.528  11.738  0.1936  0.0515  0.1433
  271BOLB   C2D 6502  16.670  16.724  11.708  0.0111 -0.3228  0.0606
  271BOLB   C3D 6503  16.296  16.957  11.619 -0.1605  0.0775 -0.3876
  271BOLB   C4D 6504  15.901  16.809  11.413 -0.0370  0.1069  0.1765
  272BOLB   NC1 6505  29.467  17.618  10.202  0.2409  0.2135  0.0112
  272BOLB   PO1 6506  29.723  17.345  10.284  0.2091  0.3633 -0.1545
  272BOLB   GL1 6507  30.087  17.342  10.111  0.0475  0.4194 -0.0685
  272BOLB   GL2 6508  30.100  17.317   9.890 -0.0454 -0.0060 -0.2442
  272BOLB   C1A 6509  30.522  17.206  10.140 -0.1925  0.0176 -0.2309
  272BOLB   C2A 6510  30.950  17.151  10.044  0.0432 -0.1358  0.0274
  272BOLB   C3A 6511  31.204  17.128   9.674  0.0173 -0.1222 -0.2975
  272BOLB   C4A 6512  31.332  16.878   9.294  0.3197  0.1513  0.0572
  272BOLB   C1B 6513  30.484  17.297   9.649 -0.3586  0.0792  0.1047
  272BOLB   C2B 6514  30.574  17.470   9.260  0.3139  0.2206  0.0438
  272BOLB   C3B 6515  30.547  17.419   8.833  0.1044  0.1915  0.1011
  272BOLB   C4B 6516  30.263  17.404   8.501  0.0595 -0.3120  0.1290
  272BOLB   NC2 6517  30.484  14.522  10.116 -0.1532  0.2516 -0.2624
  272BOLB   PO2 6518  30.547  15.002  10.268 -0.2094 -0.3442 -0.1595
  272BOLB   GL3 6519  31.001  15.318  10.109 -0.0854  0.4087 -0.1144
  272BOLB   GL4 6520  31.365  15.065   9.966 -0.1380 -0.0564  0.2802
  272BOLB   C1C 6521  30.954  15.779   9.864  0.1734 -0.1769 -0.2351
  272BOLB   C2C 6522  30.978  16.020   9.526  0.0840  0.2095 -0.5311
  272BOLB   C3C 6523  31.378  16.157   9.369 -0.1859  0.4264  0.0546
  272BOLB   C4C 6524  31.383  16.536   9.181 -0.1124  0.0198  0.1622
  272BOLB   C1D 6525  31.451  15.429  10.154 -0.0741  0.0640 -0.0123
  272BOLB   C2D 6526  31.471  15.796  10.271  0.2753  0.2803  0.1897
  272BOLB   C3D 6527  31.878  15.893  10.346 -0.1943 -0.0061 -0.1039
  272BOLB   C4D 6528  32.226  15.705  10.320 -0.1010 -0.1541  0.0216
  273BOLB   NC1 6529   4.935  17.582   3.010 -0.1735 -0.0486 -0.0290
  273BOLB   PO1 6530   5.275  17.469   2.855 -0.3065 -0.3301 -0.1944
  273BOLB   GL1 6531   5.139  17.298   2.446  0.0052 -0.1408 -0.0141
  273BOLB   GL2 6532   4.852  17.567   2.222 -0.2220 -0.0846 -0.0307
  273BOLB   C1A 6533   5.001  17.099   2.121  0.0872  0.0233 -0.2364
  273BOLB   C2A 6534   4.919  17.244   1.800  0.2681  0.1110 -0.0864
  273BOLB   C3A 6535   5.261  17.233   1.485 -0.2330 -0.1154 -0.2935
  273BOLB   C4A 6536   5.310  16.878   1.220 -0.0726 -0.1330  0.3213
  273BOLB   C1B 6537   4.389  17.503   2.037 -0.0739  0.1689  0.3652
  273BOLB   C2B 6538   4.407  17.342   1.602  0.1503  0.0848  0.2795
  273BOLB   C3B 6539   4.766  17.130   1.324  0.0388  0.1043  0.2251
  273BOLB   C4B 6540   4.994  17.249   0.985  0.2099 -0.1997 -0.0481
  273BOLB   NC2 6541   5.816  16.859  -1.230 -0.4325 -0.2081  0.0572
  273BOLB   PO2 6542   5.275  16.855  -1.216  0.0081  0.3225  0.3230
  273BOLB   GL3 6543   5.459  16.782  -0.839  0.1683  0.0537 -0.3092
  273BOLB   GL4 6544   5.512  17.090  -0.772 -0.0053 -0.0613  0.1462
  273BOLB   C1C 6545   5.544  16.538  -0.441 -0.5127  0.0172  0.1850
  273BOLB   C2C 6546   5.694  16.501  -0.015 -0.0165 -0.1099  0.0433
  273BOLB   C3C 6547   5.571  16.480   0.373 -0.1955 -0.0513  0.1629
  273BOLB   C4C 6548   5.417  16.627   0.799  0.0265 -0.1649  0.1868
  273BOLB   C1D 6549   5.547  17.063  -0.300 -0.0174 -0.0975  0.1501
  273BOLB   C2D 6550   5.926  16.998  -0.128 -0.0163 -0.4379 -0.3634
  273BOLB   C3D 6551   6.386  16.987   0.042  0.1350  0.2016 -0.2214
  273BOLB   C4D 6552   6.562  16.662   0.096 -0.1843  0.0468 -0.1674
  274BOLB   NC1 6553  11.277  27.265   8.349  0.0255  0.0200 -0.1507
  274BOLB   PO1 6554  11.093  27.220   7.974  0.0998  0.0757 -0.0744
  274BOLB   GL1 6555  11.382  27.450   7.852 -0.1057 -0.2701 -0.2023
  274BOLB   GL2 6556  11.344  27.542   7.527  0.2447  0.1153  0.0681
  274BOLB   C1A 6557  11.751  27.782   7.847  0.3295  0.4897 -0.0375
  274BOLB   C2A 6558  11.870  28.081   7.583 -0.0682  0.1464  0.3092
  274BOLB   C3A 6559  12.015  28.357   7.243  0.1358 -0.0956  0.0507
  274BOLB   C4A 6560  12.274  28.574   6.969 -0.2236  0.1816 -0.3638
  274BOLB   C1B 6561  11.755  27.595   7.298  0.0695  0.3383 -0.1327
  274BOLB   C2B 6562  12.074  27.834   7.206 -0.1957 -0.1377  0.0871
  274BOLB   C3B 6563  12.265  28.083   6.932  0.0213  0.2209  0.1533
  274BOLB   C4B 6564  12.367  27.992   6.453  0.0796  0.0649 -0.1573
  274BOLB   NC2 6565  13.741  30.222   6.807  0.1506 -0.0599 -0.2191
  274BOLB   PO2 6566  13.631  30.331   7.236  0.1490 -0.0990  0.4156
  274BOLB   GL3 6567  13.241  30.128   7.128 -0.1021  0.1219 -0.2560
  274BOLB   GL4 6568  12.929  30.282   6.993  0.0157  0.1877  0.3358
  274BOLB   C1C 6569  13.200  29.860   6.810 -0.1964 -0.0310  0.1201
  274BOLB   C2C 6570  12.956  29.541   6.677  0.1881  0.1591  0.2438
  274BOLB   C3C 6571  12.631  29.296   6.553 -0.2254 -0.1577 -0.0415
  274BOLB   C4C 6572  12.316  28.946   6.743  0.0412  0.0939 -0.0154
  274BOLB   C1D 6573  12.884  30.028   7.542 -0.1511  0.4277  0.2123
  274BOLB   C2D 6574  12.688  29.767   7.856  0.0172  0.1183 -0.1852
  274BOLB   C3D 6575  12.284  29.689   7.941 -0.2617  0.0483 -0.0633
  274BOLB   C4D 6576  12.005  29.512   8.074 -0.0693  0.2039  0.3069
  275BOLB   NC1 6577   7.372  25.259  17.843  0.1507 -0.0081 -0.4957
  275BOLB   PO1 6578   7.250  24.888  17.928 -0.1998 -0.2353 -0.1960
  275BOLB   GL1 6579   7.344  24.839  18.255 -0.1658  0.1063  0.1794
  275BOLB   GL2 6580   7.114  24.770  18.609 -0.0279  0.1137 -0.0272
  275BOLB   C1A 6581   7.509  25.078  18.691 -0.5221 -0.1356  0.2591
  275BOLB   C2A 6582   7.707  24.975  19.128 -0.2147 -0.2280  0.1031
  275BOLB   C3A 6583   7.820  25.138  19.500 -0.1844 -0.2442  0.0737
  275BOLB   C4A 6584   7.836  25.431  19.827 -0.1650  0.1279 -0.3523
  275BOLB   C1B 6585   7.236  24.986  19.066  0.2400 -0.2996 -0.0991
  275BOLB   C2B 6586   7.251  25.170  19.467 -0.1896  0.1248  0.1882
  275BOLB   C3B 6587   7.338  25.206  19.870  0.1763 -0.2506 -0.2689
  275BOLB   C4B 6588   7.601  25.344  20.221 -0.1091  0.1062  0.0106
  275BOLB   NC2 6589   8.914  27.043  21.672 -0.2928  0.1098 -0.2497
  275BOLB   PO2 6590   8.482  26.722  21.778  0.1489 -0.0262  0.0260
  275BOLB   GL3 6591   8.409  26.574  21.307  0.2615  0.1409 -0.0566
  275BOLB   GL4 6592   8.337  26.201  21.219 -0.0141  0.1131 -0.1654
  275BOLB   C1C 6593   8.068  26.555  20.998 -0.1407 -0.0393  0.2690
  275BOLB   C2C 6594   7.849  26.406  20.683 -0.0647 -0.2392 -0.0615
  275BOLB   C3C 6595   7.742  26.056  20.535 -0.1094 -0.0288  0.2379
  275BOLB   C4C 6596   7.845  25.882  20.079  0.0906  0.1100  0.1968
  275BOLB   C1D 6597   8.568  26.362  20.939 -0.1406  0.0068 -0.0368
  275BOLB   C2D 6598   8.847  26.375  20.493 -0.0823 -0.2098  0.0978
  275BOLB   C3D 6599   8.970  26.470  20.093 -0.4221 -0.1549 -0.0917
  275BOLB   C4D 6600   8.965  26.275  19.793  0.1025  0.0944 -0.1467
  276BOLB   NC1 6601  12.586  26.631   9.174 -0.1313 -0.2412  0.0330
  276BOLB   PO1 6602  12.454  26.878   9.506 -0.2311 -0.3386 -0.0460
  276BOLB   GL1 6603  12.539  27.220   9.411 -0.3353  0.2053 -0.0654
  276BOLB   GL2 6604  12.363  27.472   9.157 -0.0694 -0.1360 -0.2166
  276BOLB   C1A 6605  12.734  27.558   9.552  0.1188  0.0052  0.3723
  276BOLB   C2A 6606  13.139  27.736   9.490  0.2264  0.0829  0.1755
  276BOLB   C3A 6607  13.620  27.679   9.388 -0.1638 -0.0146 -0.2884
  276BOLB   C4A 6608  13.821  27.804   8.966 -0.1304 -0.0034 -0.1500
  276BOLB   C1B 6609  12.659  27.551   8.788 -0.1892  0.0008  0.0594
  276BOLB   C2B 6610  12.990  27.663   8.595  0.1864  0.1694 -0.0148
  276BOLB   C3B 6611  13.254  27.981   8.704  0.1343  0.0459  0.0746
  276BOLB   C4B 6612  13.442  28.374   8.672  0.2425 -0.1965 -0.1837
  276BOLB   NC2 6613  15.080  30.108   8.398  0.0651  0.1515 -0.1956
  276BOLB   PO2 6614  14.911  29.764   8.356 -0.1085  0.0880  0.2427
  276BOLB   GL3 6615  14.517  29.647   8.304  0.0957 -0.4397 -0.3357
  276BOLB   GL4 6616  14.165  29.819   8.371  0.1686 -0.0466  0.0842
  276BOLB   C1C 6617  14.334  29.213   8.437 -0.3269  0.1365 -0.2852
  276BOLB   C2C 6618  14.214  28.831   8.360  0.0892  0.3750 -0.0727
  276BOLB   C3C 6619  13.907  28.507   8.503 -0.4079  0.0801  0.1039
  276BOLB   C4C 6620  13.920  28.145   8.628  0.0601 -0.1871 -0.0453
  276BOLB   C1D 6621  13.917  29.522   8.466 -0.1566 -0.3272 -0.2080
  276BOLB   C2D 6622  13.796  29.028   8.496 -0.1832  0.0601  0.2384
  276BOLB   C3D 6623  13.606  28.743   8.187  0.0112  0.1714 -0.3174
  276BOLB   C4D 6624  13.484  28.794   7.783  0.0867 -0.3813 -0.1209
  277BOLB   NC1 6625  11.460  21.424  16.541  0.0485 -0.0631 -0.2387
  277BOLB   PO1 6626  11.889  21.490  16.766 -0.4233 -0.0209  0.5492
  277BOLB   GL1 6627  12.186  21.663  16.976  0.0945 -0.1095  0.0903
  277BOLB   GL2 6628  12.346  22.001  17.020 -0.1317  0.0399  0.1080
  277BOLB   C1A 6629  12.362  21.638  17.373  0.2206 -0.2216 -0.1201
  277BOLB   C2A 6630  12.643  21.331  17.614  0.1648 -0.2852 -0.0962
  277BOLB   C3A 6631  12.988  21.181  17.949 -0.2722  0.0081  0.2575
  277BOLB   C4A 6632  13.424  20.904  17.957 -0.1721  0.2756 -0.1730
  277BOLB   C1B 6633  12.659  22.221  17.176 -0.0547  0.1315  0.0336
  277BOLB   C2B 6634  12.974  22.519  17.328  0.2155 -0.0832 -0.1609
  277BOLB   C3B 6635  13.227  22.800  17.265  0.3370 -0.0418 -0.2779
  277BOLB   C4B 6636  13.118  23.070  17.107 -0.0208  0.1373 -0.3171
  277BOLB   NC2 6637  15.681  20.605  19.624  0.3646 -0.0172  0.0828
  277BOLB   PO2 6638  15.610  20.693  19.159  0.0034  0.1157  0.0655
  277BOLB   GL3 6639  15.288  20.558  18.832  0.0185 -0.1206 -0.1252
  277BOLB   GL4 6640  15.366  20.631  18.480  0.0840 -0.0675 -0.2234
  277BOLB   C1C 6641  14.870  20.365  18.725 -0.1052  0.1197 -0.0760
  277BOLB   C2C 6642  14.457  20.410  18.475  0.0583 -0.1535 -0.1322
  277BOLB   C3C 6643  14.205  20.737  18.213  0.2130  0.1965  0.0302
  277BOLB   C4C 6644  13.872  20.852  18.005 -0.3175 -0.2997  0.3304
  277BOLB   C1D 6645  15.319  20.711  18.079  0.1665  0.0932  0.2872
  277BOLB   C2D 6646  15.440  21.027  17.808 -0.0093  0.0208 -0.1364
  277BOLB   C3D 6647  15.380  21.224  18.185 -0.1224 -0.0092 -0.0393
  277BOLB   C4D 6648  14.972  21.243  18.524 -0.1848  0.1176 -0.1103
  278BOLB   NC1 6649   3.888  26.934  15.590  0.2911  0.1175 -0.0781
  278BOLB   PO1 6650   4.235  27.187  15.443 -0.1048  0.1098  0.0840
  278BOLB   GL1 6651   4.217  27.458  15.766  0.2170  0.1236  0.0855
  278BOLB   GL2 6652   3.907  27.430  15.785 -0.1332 -0.6034  0.2152
  278BOLB   C1A 6653   4.232  27.881  15.854 -0.0652 -0.2067 -0.0057
  278BOLB   C2A 6654   4.192  28.209  16.009 -0.1271 -0.0310 -0.0132
  278BOLB   C3A 6655   4.407  28.490  16.237  0.0884  0.2907 -0.0642
  278BOLB   C4A 6656   4.684  28.888  16.341  0.1952 -0.0908  0.0133
  278BOLB   C1B 6657   3.772  27.852  16.022  0.2831  0.0233 -0.1924
  278BOLB   C2B 6658   3.754  28.217  16.309  0.3639  0.0262 -0.2123
  278BOLB   C3B 6659   3.962  28.614  16.385 -0.0738 -0.1711  0.2699
  278BOLB   C4B 6660   4.001  28.878  16.754  0.2377 -0.0245 -0.0847
  278BOLB   NC2 6661   3.602  30.547  17.865 -0.0210 -0.0317  0.3115
  278BOLB   PO2 6662   3.613  30.586  17.403  0.0751 -0.4086  0.0680
  278BOLB   GL3 6663   3.944  30.304  17.461 -0.0953 -0.3038 -0.5649
  278BOLB   GL4 6664   4.248  30.282  17.487  0.1729  0.4307 -0.3123
  278BOLB   C1C 6665   3.999  29.954  17.219 -0.2862  0.2082 -0.2769
  278BOLB   C2C 6666   4.259  29.808  16.927 -0.1368 -0.1886 -0.0927
  278BOLB   C3C 6667   4.529  29.471  16.629 -0.3253 -0.2014 -0.3064
  278BOLB   C4C 6668   4.774  29.193  16.507  0.4394 -0.0307  0.1281
  278BOLB   C1D 6669   4.554  30.331  17.131  0.1755 -0.1685  0.0688
  278BOLB   C2D 6670   4.460  30.466  16.722  0.3075 -0.4115 -0.0938
  278BOLB   C3D 6671   4.600  30.432  16.323  0.0314  0.3762  0.0446
  278BOLB   C4D 6672   4.439  30.220  16.100 -0.1110 -0.1695  0.1773
  279BOLB   NC1 6673   7.995  15.520  14.525 -0.1312  0.0737  0.0138
  279BOLB   PO1 6674   8.143  15.923  14.718  0.0798 -0.1275 -0.1269
  279BOLB   GL1 6675   8.090  15.434  15.045  0.0167  0.0471 -0.1596
  279BOLB   GL2 6676   8.311  15.265  14.901  0.0552  0.1001  0.1111
  279BOLB   C1A 6677   8.158  15.235  15.467  0.0181 -0.0218 -0.2198
  279BOLB   C2A 6678   8.202  14.780  15.611 -0.1738 -0.2968  0.2811
  279BOLB   C3A 6679   8.131  14.409  15.986  0.3272 -0.2699  0.0554
  279BOLB   C4A 6680   8.303  14.101  16.255  0.1322 -0.2900  0.2595
  279BOLB   C1B 6681   8.566  15.078  15.225 -0.1661  0.0841  0.2149
  279BOLB   C2B 6682   8.956  14.899  15.452  0.0211 -0.2139  0.1034
  279BOLB   C3B 6683   9.106  14.667  15.788 -0.0761  0.0009 -0.0392
  279BOLB   C4B 6684   9.484  14.564  15.915  0.1170 -0.2668 -0.0701
  279BOLB   NC2 6685   8.118  11.870  18.213 -0.0457 -0.0546 -0.3086
  279BOLB   PO2 6686   7.848  12.041  17.884 -0.0605 -0.1359 -0.3496
  279BOLB   GL3 6687   7.779  12.472  17.593  0.0963  0.0657  0.0158
  279BOLB   GL4 6688   8.041  12.560  17.647  0.0309 -0.2537 -0.0751
  279BOLB   C1C 6689   8.045  12.859  17.302  0.0420 -0.2785 -0.3364
  279BOLB   C2C 6690   8.137  13.091  16.988 -0.0720  0.0968  0.1899
  279BOLB   C3C 6691   8.028  13.546  16.758 -0.0045  0.4080  0.1132
  279BOLB   C4C 6692   8.096  13.850  16.579  0.1794  0.1060 -0.2252
  279BOLB   C1D 6693   7.850  13.002  17.704 -0.0618 -0.0198  0.1856
  279BOLB   C2D 6694   7.687  13.344  17.528  0.0789  0.1179  0.3651
  279BOLB   C3D 6695   7.353  13.566  17.348 -0.1278 -0.5463 -0.0376
  279BOLB   C4D 6696   7.176  13.915  17.075 -0.0704 -0.0665  0.0604
  280BOLB   NC1 6697  14.437  20.679  12.435 -0.1986  0.0660 -0.1161
  280BOLB   PO1 6698  14.373  20.574  12.831  0.0386 -0.2691  0.0721
  280BOLB   GL1 6699  14.651  20.311  13.151 -0.2957 -0.0944 -0.3370
  280BOLB   GL2 6700  14.765  20.605  13.399 -0.1216  0.0344 -0.1381
  280BOLB   C1A 6701  14.913  19.947  13.370 -0.0986 -0.1201  0.0504
  280BOLB   C2A 6702  15.323  19.875  13.448 -0.0021  0.0503  0.1237
  280BOLB   C3A 6703  15.523  19.651  13.622 -0.2271  0.0068  0.0517
  280BOLB   C4A 6704  15.738  19.330  13.654 -0.2537  0.1861 -0.0295
  280BOLB   C1B 6705  15.235  20.445  13.494 -0.2976  0.0209 -0.0925
  280BOLB   C2B 6706  15.618  20.303  13.665 -0.1176 -0.0281 -0.1027
  280BOLB   C3B 6707  15.939  19.946  13.794 -0.1167  0.1032 -0.2871
  280BOLB   C4B 6708  16.149  19.613  14.061  0.1584  0.1767  0.1506
  280BOLB   NC2 6709  17.913  18.420  14.953  0.0656 -0.1548 -0.0781
  280BOLB   PO2 6710  17.540  18.290  15.087 -0.0678 -0.2045 -0.1374
  280BOLB   GL3 6711  17.073  18.516  14.961  0.0167  0.0971  0.0288
  280BOLB   GL4 6712  16.790  18.324  15.013  0.0067 -0.1517 -0.0173
  280BOLB   C1C 6713  16.697  18.888  14.968  0.1962 -0.0891 -0.0539
  280BOLB   C2C 6714  16.507  19.071  14.604  0.2447  0.1593  0.1213
  280BOLB   C3C 6715  16.242  19.093  14.203 -0.0874 -0.1485 -0.2288
  280BOLB   C4C 6716  16.027  19.036  13.811  0.0704 -0.2262  0.1177
  280BOLB   C1D 6717  16.512  18.499  14.683  0.0323  0.0223  0.2916
  280BOLB   C2D 6718  16.187  18.560  14.481 -0.0176 -0.1642 -0.0460
  280BOLB   C3D 6719  15.875  18.852  14.413  0.2153  0.0363  0.0024
  280BOLB   C4D 6720  15.809  19.300  14.227 -0.1833 -0.0081 -0.2673
  281BOLB   NC1 6721  12.215  10.489  11.310  0.0211 -0.2821  0.2187
  281BOLB   PO1 6722  12.118  10.669  10.893 -0.2070  0.4654  0.2768
  281BOLB   GL1 6723  12.101  11.109  10.929  0.1070  0.2802  0.0227
  281BOLB   GL2 6724  12.035  11.019  11.251 -0.0660 -0.0547 -0.0201
  281BOLB   C1A 6725  11.806  11.448  11.057  0.1661  0.4735  0.1126
  281BOLB   C2A 6726  11.570  11.876  11.192  0.0024 -0.0938  0.0171
  281BOLB   C3A 6727  11.343  12.074  11.103 -0.0064 -0.0153  0.0771
  281BOLB   C4A 6728  11.011  11.999  10.801 -0.0059 -0.1178  0.1285
  281BOLB   C1B 6729  11.703  11.071  11.495 -0.0871  0.1066  0.1293
  281BOLB   C2B 6730  11.388  11.363  11.344  0.0821 -0.0271 -0.1598
  281BOLB   C3B 6731  11.126  11.624  11.416  0.0955 -0.1228  0.0744
  281BOLB   C4B 6732  10.926  12.048  11.323  0.0811 -0.1635 -0.3116
  281BOLB   NC2 6733  11.879  10.421   9.535  0.1744  0.2383 -0.1040
  281BOLB   PO2 6734  11.630  10.376   9.057 -0.0121  0.1169  0.2895
  281BOLB   GL3 6735  11.449  10.742   9.275 -0.0260 -0.5065 -0.0179
  281BOLB   GL4 6736  11.711  10.933   9.191  0.1790 -0.0395  0.0940
  281BOLB   C1C 6737  11.453  11.231   9.524  0.0347 -0.0194 -0.0099
  281BOLB   C2C 6738  11.259  11.524   9.840 -0.0007 -0.0222  0.3736
  281BOLB   C3C 6739  11.060  11.927  10.066 -0.0323  0.1743  0.0613
  281BOLB   C4C 6740  10.839  12.049  10.419 -0.3012  0.1762  0.2139
  281BOLB   C1D 6741  11.522  11.238   8.970 -0.2256  0.2095 -0.2046
  281BOLB   C2D 6742  11.119  11.345   8.733  0.1410  0.0865  0.5701
  281BOLB   C3D 6743  10.769  11.652   8.541 -0.0122  0.1080 -0.0400
  281BOLB   C4D 6744  10.644  11.622   8.071 -0.2125 -0.1789  0.3678
  282BOLB   NC1 6745  10.358  23.214  17.510  0.2481 -0.1987  0.1376
  282BOLB   PO1 6746  10.045  23.222  17.880 -0.1931 -0.0294  0.4995
  282BOLB   GL1 6747  10.305  23.412  18.226 -0.3145  0.4624  0.1756
  282BOLB   GL2 6748  10.098  23.644  18.388 -0.0282  0.0905  0.4231
  282BOLB   C1A 6749  10.583  23.491  18.547  0.0155  0.2097 -0.3271
  282BOLB   C2A 6750  10.595  23.644  18.927 -0.0368  0.3576  0.0227
  282BOLB   C3A 6751  10.862  23.641  19.285 -0.0932  0.0820  0.0910
  282BOLB   C4A 6752  11.000  23.877  19.560  0.0238 -0.2140  0.1696
  282BOLB   C1B 6753  10.147  23.222  18.630  0.2509 -0.0424 -0.0584
  282BOLB   C2B 6754  10.243  23.152  18.997  0.1537  0.2144 -0.4531
  282BOLB   C3B 6755  10.414  23.055  19.395 -0.1104 -0.0115 -0.2610
  282BOLB   C4B 6756  10.428  23.013  19.870  0.3100 -0.0855  0.3341
  282BOLB   NC2 6757  11.374  23.233  21.853  0.1712 -0.3348 -0.1224
  282BOLB   PO2 6758  11.424  23.628  21.811  0.0617  0.1489  0.0838
  282BOLB   GL3 6759  11.069  23.647  21.544  0.0406  0.1718  0.1713
  282BOLB   GL4 6760  10.840  23.391  21.540  0.0895  0.0663  0.1328
  282BOLB   C1C 6761  10.805  23.799  21.186  0.3023 -0.0253  0.0916
  282BOLB   C2C 6762  10.743  23.832  20.749 -0.0279 -0.1347 -0.0038
  282BOLB   C3C 6763  10.705  24.194  20.405  0.0014 -0.0556 -0.2397
  282BOLB   C4C 6764  10.843  24.088  19.965 -0.0834  0.1116 -0.0345
  282BOLB   C1D 6765  10.648  23.117  21.346  0.1824 -0.2675 -0.1272
  282BOLB   C2D 6766  10.572  22.894  20.871  0.0842  0.2162  0.2127
  282BOLB   C3D 6767  10.597  23.122  20.494  0.0145  0.0539  0.0682
  282BOLB   C4D 6768  10.811  23.214  20.138 -0.2680  0.0808 -0.2149
  283BOLB   NC1 6769  12.438  26.195  11.418 -0.2060  0.5556 -0.1368
  283BOLB   PO1 6770  12.509  26.620  11.382 -0.0191 -0.2709  0.1971
  283BOLB   GL1 6771  12.629  26.949  11.578 -0.0456  0.0916 -0.0899
  283BOLB   GL2 6772  12.726  26.980  11.841 -0.7472  0.0348 -0.1839
  283BOLB   C1A 6773  12.938  27.271  11.369 -0.1606 -0.0041  0.0284
  283BOLB   C2A 6774  13.065  27.623  11.291 -0.3716  0.0511 -0.1967
  283BOLB   C3A 6775  13.242  28.028  11.314 -0.3105  0.5178  0.4062
  283BOLB   C4A 6776  13.583  28.289  11.303  0.0558 -0.0466 -0.3285
  283BOLB   C1B 6777  13.166  26.999  11.709 -0.0177  0.1293 -0.1595
  283BOLB   C2B 6778  13.476  27.107  11.348  0.0005 -0.1969  0.1886
  283BOLB   C3B 6779  13.562  27.401  10.918 -0.1840  0.2754  0.4222
  283BOLB   C4B 6780  13.965  27.586  10.646  0.1144  0.0968  0.0164
  283BOLB   NC2 6781  15.064  30.101  11.139 -0.0065 -0.0998  0.2184
  283BOLB   PO2 6782  14.836  30.298  10.809  0.0882  0.1832 -0.0429
  283BOLB   GL3 6783  14.432  30.151  10.919 -0.1716  0.1410 -0.1757
  283BOLB   GL4 6784  14.165  30.341  10.731  0.2812  0.2942 -0.2869
  283BOLB   C1C 6785  14.435  29.743  11.268  0.3042  0.1130 -0.2905
  283BOLB   C2C 6786  14.064  29.459  11.429  0.0545 -0.2740  0.0821
  283BOLB   C3C 6787  13.787  29.083  11.557  0.1853 -0.0243 -0.1135
  283BOLB   C4C 6788  13.714  28.698  11.443 -0.0383 -0.0665  0.0601
  283BOLB   C1D 6789  14.025  30.104  10.495  0.1823  0.0645 -0.0353
  283BOLB   C2D 6790  13.743  29.764  10.484  0.0344 -0.2857 -0.0812
  283BOLB   C3D 6791  13.689  29.320  10.282 -0.0332  0.0354  0.0959
  283BOLB   C4D 6792  13.353  29.045  10.318  0.0183 -0.1367  0.0629
  284BOLB   NC1 6793  10.386  15.877  13.294 -0.0617 -0.2400 -0.0686
  284BOLB   PO1 6794  10.350  15.455  13.247 -0.2118  0.0532  0.4262
  284BOLB   GL1 6795  10.677  15.217  13.421 -0.2409 -0.0862  0.1998
  284BOLB   GL2 6796  10.759  15.040  13.108 -0.0170 -0.1704 -0.0314
  284BOLB   C1A 6797  10.916  14.796  13.518  0.1226 -0.0188  0.1646
  284BOLB   C2A 6798  10.953  14.418  13.429  0.0350 -0.3274 -0.0240
  284BOLB   C3A 6799  11.170  14.084  13.513  0.2098 -0.1232  0.0285
  284BOLB   C4A 6800  11.469  13.843  13.711 -0.1244  0.1797  0.0409
  284BOLB   C1B 6801  11.123  15.215  13.307  0.1490  0.2367 -0.0321
  284BOLB   C2B 6802  11.548  15.230  13.414 -0.2109  0.0528 -0.0454
  284BOLB   C3B 6803  12.053  15.221  13.505  0.0643  0.0789 -0.1256
  284BOLB   C4B 6804  12.407  15.389  13.278  0.1415  0.0505  0.1218
  284BOLB   NC2 6805  12.101  12.042  15.775 -0.1501 -0.1311  0.0401
  284BOLB   PO2 6806  12.264  11.912  15.238 -0.3373  0.2742 -0.0294
  284BOLB   GL3 6807  12.170  12.307  15.005  0.1668  0.2275 -0.1064
  284BOLB   GL4 6808  12.267  12.725  14.903  0.2347 -0.2481  0.1192
  284BOLB   C1C 6809  11.836  12.588  14.839  0.3934 -0.0993  0.0739
  284BOLB   C2C 6810  11.567  12.814  14.525  0.0889  0.2173 -0.0260
  284BOLB   C3C 6811  11.356  13.044  14.227 -0.0680 -0.2006 -0.0899
  284BOLB   C4C 6812  11.363  13.466  13.969 -0.0019 -0.1433 -0.0382
  284BOLB   C1D 6813  12.007  13.075  14.649  0.0072 -0.0749 -0.0744
  284BOLB   C2D 6814  11.882  13.048  14.263  0.0082 -0.1509 -0.0789
  284BOLB   C3D 6815  11.741  12.840  13.860 -0.1882  0.0756  0.0160
  284BOLB   C4D 6816  11.911  12.764  13.439 -0.1611 -0.0919 -0.1226
  285BOLB   NC1 6817  14.416  20.249  10.451  0.0201  0.0380  0.1300
  285BOLB   PO1 6818  14.782  20.149  10.715  0.1712 -0.3406 -0.1490
  285BOLB   GL1 6819  15.082  20.443  10.889 -0.1280  0.0680 -0.0862
  285BOLB   GL2 6820  15.450  20.171  10.809  0.2352 -0.1253 -0.0122
  285BOLB   C1A 6821  15.451  20.640  11.080  0.2326 -0.1154  0.1831
  285BOLB   C2A 6822  15.890  20.808  11.007 -0.3582 -0.3484 -0.0673
  285BOLB   C3A 6823  16.368  20.877  11.316  0.1640 -0.1278  0.0181
  285BOLB   C4A 6824  16.802  20.753  11.490 -0.0149 -0.0183 -0.2057
  285BOLB   C1B 6825  15.854  20.233  10.931  0.3576 -0.2267  0.0096
  285BOLB   C2B 6826  16.271  20.417  11.095 -0.0176 -0.1857  0.1864
  285BOLB   C3B 6827  16.609  20.390  11.148  0.0862 -0.0965 -0.0208
  285BOLB   C4B 6828  17.022  20.591  11.001 -0.1612 -0.3374  0.1573
  285BOLB   NC2 6829  18.608  19.402  12.626  0.1033 -0.0488  0.0384
  285BOLB   PO2 6830  18.811  19.721  12.343  0.0146  0.0786 -0.0400
  285BOLB   GL3 6831  18.397  19.702  12.105  0.3821 -0.0995  0.2595
  285BOLB   GL4 6832  18.216  19.471  12.206  0.2395 -0.1626 -0.0611
  285BOLB   C1C 6833  18.018  19.844  11.883  0.0136  0.0156 -0.0981
  285BOLB   C2C 6834  17.602  19.913  11.859  0.0587  0.2184  0.2577
  285BOLB   C3C 6835  17.361  20.277  11.946 -0.2283 -0.0048 -0.0252
  285BOLB   C4C 6836  17.133  20.511  11.676  0.0259 -0.1204 -0.0620
  285BOLB   C1D 6837  17.926  19.421  12.339 -0.1058 -0.2689 -0.0715
  285BOLB   C2D 6838  17.537  19.615  12.532  0.0215  0.0295 -0.1461
  285BOLB   C3D 6839  17.061  19.530  12.748  0.0708 -0.0050  0.3858
  285BOLB   C4D 6840  16.713  19.853  12.685  0.0978 -0.3768 -0.0754
  286BOLB   NC1 6841   5.496  13.238   6.340 -0.3167 -0.0182 -0.3015
  286BOLB   PO1 6842   5.755  13.050   6.536  0.1286 -0.0543 -0.3516
  286BOLB   GL1 6843   6.060  12.803   6.562  0.0079 -0.0663 -0.0148
  286BOLB   GL2 6844   6.412  12.823   6.755  0.0797  0.3167  0.2071
  286BOLB   C1A 6845   6.204  12.602   6.268 -0.1645  0.4047 -0.1782
  286BOLB   C2A 6846   5.878  12.296   6.116 -0.3927  0.1933  0.1586
  286BOLB   C3A 6847   5.803  12.000   5.856  0.0823 -0.2196  0.0723
  286BOLB   C4A 6848   5.817  11.746   5.540  0.5478  0.0567 -0.4536
  286BOLB   C1B 6849   6.555  12.521   6.664 -0.0657 -0.0893  0.3757
  286BOLB   C2B 6850   6.447  12.155   6.457  0.5575 -0.0261 -0.2063
  286BOLB   C3B 6851   6.657  11.809   6.201 -0.0288 -0.0340  0.2762
  286BOLB   C4B 6852   6.833  11.852   5.800  0.1318  0.1120 -0.1194
  286BOLB   NC2 6853   6.308   9.839   5.116 -0.1935  0.3862 -0.1182
  286BOLB   PO2 6854   6.231   9.987   4.634  0.1928 -0.1151 -0.2349
  286BOLB   GL3 6855   5.820  10.198   4.776 -0.0620  0.0541 -0.2300
  286BOLB   GL4 6856   5.746  10.207   5.092 -0.1471 -0.2698  0.1721
  286BOLB   C1C 6857   5.488  10.481   4.765  0.0644 -0.0327  0.0491
  286BOLB   C2C 6858   5.492  10.934   4.686  0.1534  0.2214 -0.0842
  286BOLB   C3C 6859   5.691  11.285   4.884  0.3364 -0.1614  0.2479
  286BOLB   C4C 6860   5.666  11.587   5.176  0.1298 -0.4022  0.0491
  286BOLB   C1D 6861   5.514  10.458   5.448  0.1939  0.1955 -0.0592
  286BOLB   C2D 6862   5.381  10.765   5.688  0.0076 -0.2397 -0.1892
  286BOLB   C3D 6863   5.132  11.037   5.541  0.0309  0.1835  0.3331
  286BOLB   C4D 6864   5.076  11.553   5.349  0.3005 -0.1267  0.1614
  287BOLB   NC1 6865   7.712   9.043   6.157 -0.1774  0.0444 -0.0326
  287BOLB   PO1 6866   7.348   9.346   5.983 -0.1425  0.0381  0.1037
  287BOLB   GL1 6867   6.950   9.624   6.157  0.1714 -0.0181  0.0997
  287BOLB   GL2 6868   6.816   9.789   5.963 -0.2580  0.1608 -0.2592
  287BOLB   C1A 6869   6.941  10.025   6.403 -0.0064 -0.2155  0.2894
  287BOLB   C2A 6870   6.764  10.267   6.795 -0.2309  0.1909  0.0580
  287BOLB   C3A 6871   6.707  10.815   6.838  0.4224  0.0201 -0.0268
  287BOLB   C4A 6872   6.653  11.183   6.497 -0.2164  0.2332  0.1215
  287BOLB   C1B 6873   7.065  10.204   5.794 -0.3111  0.0484  0.0430
  287BOLB   C2B 6874   7.402  10.465   5.957  0.1392  0.0329 -0.0291
  287BOLB   C3B 6875   7.565  10.921   5.928  0.3362 -0.0972 -0.1366
  287BOLB   C4B 6876   7.715  11.299   6.027  0.0388 -0.0300  0.0914
  287BOLB   NC2 6877   5.966  12.708   8.182  0.0862  0.0164 -0.0094
  287BOLB   PO2 6878   5.803  12.901   7.790  0.0523  0.0121 -0.0538
  287BOLB   GL3 6879   5.967  12.591   7.582  0.4088  0.2767  0.0050
  287BOLB   GL4 6880   6.091  12.384   7.786  0.3939 -0.1076 -0.1529
  287BOLB   C1C 6881   6.052  12.428   7.312  0.0987 -0.0733 -0.0319
  287BOLB   C2C 6882   6.294  12.316   7.091 -0.2943 -0.2836  0.0263
  287BOLB   C3C 6883   6.412  11.904   6.890 -0.2694  0.1240 -0.0499
  287BOLB   C4C 6884   6.467  11.546   6.628 -0.2951  0.1526 -0.1288
  287BOLB   C1D 6885   6.113  11.907   7.686 -0.1002  0.2674 -0.4308
  287BOLB   C2D 6886   6.202  11.467   7.805  0.0616 -0.2304 -0.1545
  287BOLB   C3D 6887   6.096  11.292   8.192  0.1801 -0.2218  0.0270
  287BOLB   C4D 6888   6.092  11.166   8.676  0.0869 -0.2973  0.0526
  288BOLB   NC1 6889  10.928  17.240  15.857 -0.4259 -0.1513  0.0581
  288BOLB   PO1 6890  10.488  17.032  16.087 -0.1309 -0.1642  0.3726
  288BOLB   GL1 6891  10.771  16.829  16.395  0.1101 -0.1468  0.2184
  288BOLB   GL2 6892  11.106  16.963  16.311  0.1977 -0.0235 -0.0739
  288BOLB   C1A 6893  10.993  16.766  16.754  0.0721  0.0952  0.0273
  288BOLB   C2A 6894  11.295  16.801  17.168 -0.1353 -0.1089 -0.1061
  288BOLB   C3A 6895  11.598  16.611  17.354  0.2170  0.2348  0.0645
  288BOLB   C4A 6896  12.028  16.714  17.378 -0.1686 -0.2899 -0.2025
  288BOLB   C1B 6897  11.555  16.856  16.418 -0.0237  0.2727  0.2191
  288BOLB   C2B 6898  11.904  16.726  16.309 -0.1937  0.2206  0.2696
  288BOLB   C3B 6899  12.269  16.681  16.493  0.2006 -0.2820  0.1182
  288BOLB   C4B 6900  12.586  16.602  16.711 -0.0175  0.0276  0.3237
  288BOLB   NC2 6901  12.428  15.298  19.560 -0.1264 -0.0178 -0.1547
  288BOLB   PO2 6902  12.723  15.319  19.175 -0.0932 -0.0469  0.1684
  288BOLB   GL3 6903  12.681  15.667  18.838 -0.3230  0.2582 -0.0897
  288BOLB   GL4 6904  12.343  15.806  19.008 -0.2004  0.2370 -0.1692
  288BOLB   C1C 6905  12.388  15.932  18.503 -0.0047  0.0840  0.0054
  288BOLB   C2C 6906  12.509  16.332  18.390  0.1348  0.0650 -0.0247
  288BOLB   C3C 6907  12.454  16.717  18.117  0.2799 -0.0059 -0.4822
  288BOLB   C4C 6908  12.363  16.888  17.696 -0.0859 -0.2154  0.1620
  288BOLB   C1D 6909  12.183  16.081  18.952 -0.1908 -0.0538 -0.0910
  288BOLB   C2D 6910  12.346  16.472  18.945  0.0089  0.2372  0.0834
  288BOLB   C3D 6911  12.577  16.728  18.735  0.2069 -0.0557  0.0532
  288BOLB   C4D 6912  12.650  17.143  18.841  0.0261 -0.0781  0.0648
  289BOLB   NC1 6913  38.327  25.667  10.753 -0.3448  0.3131  0.1690
  289BOLB   PO1 6914  38.514  26.063  10.769 -0.1872  0.1906  0.1790
  289BOLB   GL1 6915  38.285  26.330  10.905  0.0960 -0.3779  0.2940
  289BOLB   GL2 6916  38.355  26.537  10.766 -0.0871 -0.4908  0.0018
  289BOLB   C1A 6917  37.840  26.329  10.852  0.1066  0.1474 -0.2157
  289BOLB   C2A 6918  37.627  26.538  10.988  0.2099 -0.0424 -0.0433
  289BOLB   C3A 6919  37.332  26.739  11.226  0.1285 -0.1593 -0.2789
  289BOLB   C4A 6920  37.045  27.130  11.351 -0.0159  0.0672 -0.1822
  289BOLB   C1B 6921  38.006  26.820  10.668  0.1109  0.5114 -0.2012
  289BOLB   C2B 6922  37.617  27.040  10.564 -0.3459  0.0051 -0.0673
  289BOLB   C3B 6923  37.316  27.251  10.808 -0.1059 -0.0318  0.3447
  289BOLB   C4B 6924  36.792  27.328  10.943 -0.0413 -0.1517  0.1820
  289BOLB   NC2 6925  36.023  29.261  11.623  0.2171  0.0364  0.1728
  289BOLB   PO2 6926  36.050  29.296  11.153  0.1737  0.0243 -0.1634
  289BOLB   GL3 6927  36.294  28.928  11.326 -0.0519  0.0862 -0.0287
  289BOLB   GL4 6928  36.435  29.058  11.628 -0.1923 -0.4278  0.0718
  289BOLB   C1C 6929  36.610  28.694  11.302  0.1362 -0.2227 -0.2403
  289BOLB   C2C 6930  36.853  28.363  11.160 -0.0028 -0.1065 -0.2096
  289BOLB   C3C 6931  37.085  27.971  11.253  0.2164  0.1237  0.0923
  289BOLB   C4C 6932  37.273  27.530  11.307 -0.0770  0.1357  0.3337
  289BOLB   C1D 6933  36.513  28.624  11.814  0.3654 -0.2038 -0.3298
  289BOLB   C2D 6934  36.729  28.277  11.681  0.1019  0.2467  0.1964
  289BOLB   C3D 6935  36.633  27.870  11.602 -0.0023  0.0860 -0.4442
  289BOLB   C4D 6936  36.815  27.493  11.526 -0.1418 -0.0380 -0.1473
  290BOLB   NC1 6937   9.510  19.010   2.793 -0.3408  0.1351  0.1064
  290BOLB   PO1 6938   9.904  18.941   2.610  0.2513  0.0420  0.1322
  290BOLB   GL1 6939  10.002  18.728   2.264 -0.2394 -0.2556 -0.1405
  290BOLB   GL2 6940   9.976  18.493   2.125  0.1382  0.0795  0.0508
  290BOLB   C1A 6941  10.088  18.878   1.847  0.1783  0.0544  0.1904
  290BOLB   C2A 6942  10.260  19.055   1.506  0.2472 -0.5147  0.1513
  290BOLB   C3A 6943  10.450  19.218   1.119 -0.0027  0.1977  0.3160
  290BOLB   C4A 6944  10.756  19.481   0.947 -0.3382 -0.0946 -0.0254
  290BOLB   C1B 6945   9.645  18.643   1.861  0.1803 -0.2304 -0.0150
  290BOLB   C2B 6946   9.755  18.776   1.440 -0.1452  0.0718  0.3808
  290BOLB   C3B 6947  10.140  18.662   1.109 -0.0511 -0.1589 -0.0654
  290BOLB   C4B 6948  10.559  18.751   1.215  0.2019  0.0944  0.1673
  290BOLB   NC2 6949  11.179  19.381  -1.437 -0.1829  0.0675  0.1568
  290BOLB   PO2 6950  11.236  19.069  -1.218  0.0635  0.0543 -0.0263
  290BOLB   GL3 6951  10.993  18.776  -0.970 -0.2443 -0.0696  0.2356
  290BOLB   GL4 6952  10.804  19.017  -0.956 -0.1446  0.0177 -0.0628
  290BOLB   C1C 6953  10.769  18.703  -0.543  0.1105 -0.5519  0.1399
  290BOLB   C2C 6954  10.589  18.846  -0.143  0.0105  0.0031 -0.3818
  290BOLB   C3C 6955  10.681  19.138   0.162  0.1864  0.3280  0.3414
  290BOLB   C4C 6956  10.707  19.358   0.482  0.1863  0.1182 -0.1144
  290BOLB   C1D 6957  10.729  19.258  -0.651 -0.3681  0.2341  0.4334
  290BOLB   C2D 6958  10.579  19.675  -0.649 -0.2166  0.1382  0.1789
  290BOLB   C3D 6959  10.706  19.922  -0.329  0.1616  0.3026 -0.2187
  290BOLB   C4D 6960  10.775  20.424  -0.331  0.0590 -0.2144  0.0684
  291BOLB   NC1 6961   1.389  29.420   3.777 -0.1247 -0.0286 -0.1357
  291BOLB   PO1 6962   1.642  29.356   3.492 -0.1090  0.1050  0.2291
  291BOLB   GL1 6963   1.661  28.933   3.669  0.0143 -0.4468  0.3084
  291BOLB   GL2 6964   1.591  28.908   4.019  0.2767  0.0090 -0.1136
  291BOLB   C1A 6965   1.850  28.543   3.719 -0.0050 -0.0803  0.0341
  291BOLB   C2A 6966   1.857  28.323   4.126 -0.3571 -0.0018 -0.1893
  291BOLB   C3A 6967   2.018  28.331   4.552  0.2502  0.3136 -0.0261
  291BOLB   C4A 6968   2.294  28.435   4.832  0.1184 -0.1156 -0.0367
  291BOLB   C1B 6969   1.699  28.701   4.375 -0.0908 -0.0022  0.0900
  291BOLB   C2B 6970   1.889  28.745   4.854 -0.1013  0.3483 -0.1853
  291BOLB   C3B 6971   2.106  28.923   4.951  0.0844 -0.2624  0.0948
  291BOLB   C4B 6972   2.244  29.256   4.682 -0.0218 -0.3480  0.0605
  291BOLB   NC2 6973   1.786  30.288   4.195 -0.2589 -0.3978  0.1591
  291BOLB   PO2 6974   2.051  29.929   4.152  0.1948  0.0084  0.2375
  291BOLB   GL3 6975   2.221  29.764   4.632  0.2076 -0.0515  0.2072
  291BOLB   GL4 6976   2.047  29.851   4.851  0.1119  0.0012 -0.0482
  291BOLB   C1C 6977   2.566  29.590   4.720  0.0453 -0.2821  0.2596
  291BOLB   C2C 6978   2.854  29.215   4.723 -0.0855  0.2134  0.2941
  291BOLB   C3C 6979   2.749  29.030   4.980  0.0376  0.0447 -0.0156
  291BOLB   C4C 6980   2.593  28.679   5.043 -0.2403 -0.0874 -0.2156
  291BOLB   C1D 6981   1.835  29.485   5.061 -0.0983 -0.0005  0.3380
  291BOLB   C2D 6982   1.521  29.179   5.339  0.1302 -0.1191 -0.0554
  291BOLB   C3D 6983   1.269  29.229   5.721 -0.0354  0.0389  0.3003
  291BOLB   C4D 6984   0.873  29.286   5.685  0.1159 -0.4160 -0.0059
  292BOLB   NC1 6985   6.821  14.889  25.475 -0.2261 -0.0401  0.0766
  292BOLB   PO1 6986   7.168  14.603  25.690  0.1983 -0.1626 -0.3894
  292BOLB   GL1 6987   7.225  14.683  26.196  0.0737  0.1295 -0.2207
  292BOLB   GL2 6988   7.437  14.495  26.433 -0.1935 -0.0580  0.0310
  292BOLB   C1A 6989   7.020  14.794  26.563 -0.0518  0.1539  0.1641
  292BOLB   C2A 6990   7.016  14.964  26.996  0.3058  0.1383  0.0659
  292BOLB   C3A 6991   7.023  14.907  27.390  0.1920  0.0100 -0.0017
  292BOLB   C4A 6992   6.855  14.831  27.784  0.0653  0.1774  0.2270
  292BOLB   C1B 6993   7.408  14.626  26.827  0.3186  0.1164  0.0525
  292BOLB   C2B 6994   7.385  14.611  27.242 -0.2898 -0.0728  0.1180
  292BOLB   C3B 6995   7.332  14.680  27.710 -0.0767 -0.2316 -0.1554
  292BOLB   C4B 6996   7.346  14.532  28.167 -0.1776  0.0624 -0.2281
  292BOLB   NC2 6997   7.523  16.503  29.428 -0.0129 -0.0058 -0.0609
  292BOLB   PO2 6998   7.312  16.134  29.739  0.4290  0.2227 -0.1049
  292BOLB   GL3 6999   7.072  15.807  29.404  0.2773 -0.3376 -0.1156
  292BOLB   GL4 7000   6.765  15.913  29.340  0.1616 -0.0801 -0.0819
  292BOLB   C1C 7001   7.036  15.488  29.094 -0.2257 -0.0509  0.0152
  292BOLB   C2C 7002   6.982  15.183  28.801 -0.0171 -0.0311  0.2826
  292BOLB   C3C 7003   7.087  14.947  28.428 -0.3693 -0.0639 -0.1986
  292BOLB   C4C 7004   7.009  15.104  28.132  0.1806 -0.1861  0.4525
  292BOLB   C1D 7005   6.843  16.038  28.955 -0.2040 -0.3010  0.1907
  292BOLB   C2D 7006   6.723  16.135  28.516  0.1177  0.1692 -0.3963
  292BOLB   C3D 7007   6.781  15.940  28.123  0.1424 -0.1023 -0.0464
  292BOLB   C4D 7008   7.108  15.683  27.981 -0.0726  0.0305 -0.3189
  293BOLB   NC1 7009  18.507  18.005   5.337 -0.1131 -0.3375  0.4627
  293BOLB   PO1 7010  18.266  18.370   5.295 -0.0752 -0.0867  0.0395
  293BOLB   GL1 7011  17.869  18.540   5.329  0.0888  0.2172  0.0278
  293BOLB   GL2 7012  17.763  18.818   5.368 -0.0714  0.1225  0.1788
  293BOLB   C1A 7013  17.430  18.304   5.484 -0.2822  0.2822 -0.2813
  293BOLB   C2A 7014  17.012  18.130   5.242 -0.3474  0.1405  0.1324
  293BOLB   C3A 7015  16.623  18.141   5.255 -0.1537 -0.2735  0.3449
  293BOLB   C4A 7016  16.288  18.401   5.382 -0.2210  0.2176 -0.6592
  293BOLB   C1B 7017  17.309  18.771   5.411  0.1329 -0.1933 -0.1839
  293BOLB   C2B 7018  16.940  18.793   5.686 -0.1425  0.0127  0.0257
  293BOLB   C3B 7019  16.477  18.720   5.782 -0.2723 -0.2911  0.1294
  293BOLB   C4B 7020  16.128  18.849   6.070  0.0819 -0.1168 -0.1277
  293BOLB   NC2 7021  14.350  20.047   5.266 -0.0856 -0.1903  0.1797
  293BOLB   PO2 7022  14.207  19.629   5.492 -0.3682 -0.0975  0.1167
  293BOLB   GL3 7023  14.630  19.596   5.310  0.1446 -0.1838  0.0542
  293BOLB   GL4 7024  14.771  19.764   5.108 -0.0621 -0.1581 -0.2764
  293BOLB   C1C 7025  15.063  19.519   5.408  0.0535  0.0120  0.3124
  293BOLB   C2C 7026  15.394  19.281   5.299 -0.1512 -0.2325 -0.1480
  293BOLB   C3C 7027  15.749  19.066   5.248  0.1180  0.1420 -0.0068
  293BOLB   C4C 7028  16.032  18.785   5.304  0.1310  0.1426 -0.1186
  293BOLB   C1D 7029  15.094  19.482   4.904 -0.0024 -0.1528 -0.3525
  293BOLB   C2D 7030  15.347  19.550   4.627  0.2850  0.2024 -0.2244
  293BOLB   C3D 7031  15.339  19.438   4.147 -0.3411  0.0190 -0.1882
  293BOLB   C4D 7032  15.281  19.409   3.691 -0.1709 -0.1700 -0.1060
  294BOLB   NC1 7033   3.843  12.349  18.782 -0.0222  0.1141  0.1800
  294BOLB   PO1 7034   3.938  12.766  18.888 -0.1209  0.0937 -0.1651
  294BOLB   GL1 7035   4.028  13.180  18.785  0.0054  0.0678  0.0330
  294BOLB   GL2 7036   3.819  13.452  18.840 -0.0009 -0.1768  0.0332
  294BOLB   C1A 7037   4.253  13.382  18.436  0.0640  0.1669  0.0116
  294BOLB   C2A 7038   4.260  13.658  18.037  0.0597  0.2973 -0.0293
  294BOLB   C3A 7039   4.347  13.974  17.654  0.1369  0.2883 -0.1978
  294BOLB   C4A 7040   4.373  14.015  17.355  0.2723  0.0726  0.1009
  294BOLB   C1B 7041   3.371  13.612  18.621 -0.2521 -0.4359 -0.0742
  294BOLB   C2B 7042   3.015  13.525  18.663  0.2626 -0.1111 -0.2757
  294BOLB   C3B 7043   2.661  13.760  18.733 -0.2869 -0.0518 -0.0171
  294BOLB   C4B 7044   2.494  14.155  18.686 -0.0943  0.0395  0.3115
  294BOLB   NC2 7045   4.479  16.105  15.299  0.2730 -0.0612  0.3467
  294BOLB   PO2 7046   4.404  15.750  15.681 -0.0604  0.0848 -0.1689
  294BOLB   GL3 7047   4.026  15.531  15.900 -0.1784  0.1352  0.0382
  294BOLB   GL4 7048   3.800  15.389  15.629  0.1420  0.1451  0.1768
  294BOLB   C1C 7049   3.976  15.126  16.032  0.0208 -0.2267 -0.0688
  294BOLB   C2C 7050   4.075  14.734  16.374 -0.1321  0.1342 -0.0989
  294BOLB   C3C 7051   4.290  14.668  16.778 -0.2895  0.0795  0.0866
  294BOLB   C4C 7052   4.482  14.280  16.919 -0.2762  0.1616 -0.5636
  294BOLB   C1D 7053   3.550  14.959  15.498  0.0244 -0.0092 -0.5057
  294BOLB   C2D 7054   3.442  14.738  15.962 -0.1847  0.3149 -0.1330
  294BOLB   C3D 7055   3.617  14.420  16.157  0.1046  0.1787  0.1652
  294BOLB   C4D 7056   3.500  13.997  16.430 -0.2270 -0.0387  0.1235
  295BOLB   NC1 7057  15.291  20.460   7.100 -0.0538  0.2442  0.1298
  295BOLB   PO1 7058  15.354  20.098   7.309 -0.0143 -0.1909  0.2719
  295BOLB   GL1 7059  15.643  19.909   7.135  0.0421  0.1399 -0.1193
  295BOLB   GL2 7060  15.508  19.708   6.826 -0.4846 -0.1544  0.2028
  295BOLB   C1A 7061  16.094  20.147   6.993  0.2360 -0.1071  0.0535
  295BOLB   C2A 7062  16.313  20.285   6.674 -0.0226 -0.1980  0.1189
  295BOLB   C3A 7063  16.502  20.297   6.339 -0.1222  0.0789  0.2753
  295BOLB   C4A 7064  16.901  20.363   6.176 -0.2084  0.2360 -0.1210
  295BOLB   C1B 7065  15.967  19.521   6.999  0.0406 -0.5683  0.0691
  295BOLB   C2B 7066  16.340  19.343   6.895 -0.0887 -0.1297  0.4206
  295BOLB   C3B 7067  16.626  19.026   7.089  0.2284 -0.2543 -0.1277
  295BOLB   C4B 7068  16.962  18.845   6.968 -0.0428 -0.0278 -0.2089
  295BOLB   NC2 7069  18.811  19.955   5.864  0.0880 -0.1079  0.0773
  295BOLB   PO2 7070  18.941  20.319   5.964 -0.0036  0.1412 -0.2183
  295BOLB   GL3 7071  18.588  20.423   6.224  0.2752  0.0993 -0.1917
  295BOLB   GL4 7072  18.464  20.050   6.294 -0.2740  0.0186 -0.1477
  295BOLB   C1C 7073  18.429  20.781   6.229  0.0332  0.1213  0.1919
  295BOLB   C2C 7074  18.027  20.970   6.361 -0.2671  0.0968  0.3082
  295BOLB   C3C 7075  17.660  20.825   6.159 -0.2354  0.1387 -0.2068
  295BOLB   C4C 7076  17.219  20.715   6.066 -0.3011 -0.2869 -0.1444
  295BOLB   C1D 7077  18.047  19.968   6.269 -0.1230  0.1696  0.0839
  295BOLB   C2D 7078  17.650  19.911   6.259 -0.0543  0.0923  0.0276
  295BOLB   C3D 7079  17.223  20.044   6.024  0.0359 -0.2254  0.2293
  295BOLB   C4D 7080  16.807  19.866   6.008 -0.0307  0.1698  0.0734
  296BOLB   NC1 7081   9.305  14.279  13.040  0.4120  0.0655  0.3960
  296BOLB   PO1 7082   8.858  14.238  13.307  0.6206 -0.1393 -0.3229
  296BOLB   GL1 7083   8.991  14.097  13.521  0.1756 -0.1790 -0.2353
  296BOLB   GL2 7084   9.231  13.946  13.510 -0.1274 -0.0330  0.1913
  296BOLB   C1A 7085   9.206  13.940  13.958 -0.2546  0.0096  0.1664
  296BOLB   C2A 7086   9.158  13.565  14.064  0.1688 -0.1274  0.2506
  296BOLB   C3A 7087   8.956  13.104  14.100 -0.0519  0.2010 -0.1975
  296BOLB   C4A 7088   8.864  12.634  14.206 -0.0613  0.2834 -0.5186
  296BOLB   C1B 7089   8.981  13.615  13.581 -0.0152  0.2479  0.1633
  296BOLB   C2B 7090   8.721  13.316  13.703  0.0082  0.1765 -0.0503
  296BOLB   C3B 7091   8.488  12.979  13.911  0.2674  0.0732 -0.3507
  296BOLB   C4B 7092   8.347  12.562  14.016  0.1328  0.2165  0.0813
  296BOLB   NC2 7093   9.391   9.744  14.603 -0.0236 -0.4111  0.0786
  296BOLB   PO2 7094   9.235  10.156  14.573  0.2793 -0.1462 -0.0317
  296BOLB   GL3 7095   8.956  10.562  14.363  0.2928 -0.0961 -0.0181
  296BOLB   GL4 7096   8.909  10.644  13.997 -0.1136  0.1023 -0.2572
  296BOLB   C1C 7097   8.941  10.987  14.368 -0.0427 -0.3069  0.2606
  296BOLB   C2C 7098   8.844  11.457  14.253 -0.1464 -0.1735  0.2505
  296BOLB   C3C 7099   8.815  11.801  14.381 -0.0736  0.4520  0.1799
  296BOLB   C4C 7100   8.801  12.191  14.165  0.2087 -0.1638  0.0578
  296BOLB   C1D 7101   8.860  11.132  13.747 -0.1224 -0.0897  0.0217
  296BOLB   C2D 7102   8.845  11.629  13.654  0.2091 -0.2303 -0.2789
  296BOLB   C3D 7103   8.606  11.838  13.277 -0.0178  0.1904  0.0816
  296BOLB   C4D 7104   8.485  12.025  12.981 -0.2634  0.0202 -0.0331
  297BOLB   NC1 7105  14.619  19.445  11.776  0.0790 -0.0818  0.2334
  297BOLB   PO1 7106  14.341  19.335  12.042  0.0389  0.1326  0.1315
  297BOLB   GL1 7107  14.652  19.171  12.216  0.0577  0.1252  0.1878
  297BOLB   GL2 7108  14.988  19.435  12.141 -0.0591 -0.1957 -0.0382
  297BOLB   C1A 7109  15.020  19.032  12.442 -0.1916 -0.1395  0.2149
  297BOLB   C2A 7110  15.141  19.097  12.882 -0.2606 -0.1390 -0.3892
  297BOLB   C3A 7111  15.339  18.975  13.280 -0.0055  0.3080 -0.1505
  297BOLB   C4A 7112  15.609  18.818  13.554 -0.0942 -0.1624 -0.0079
  297BOLB   C1B 7113  15.434  19.575  12.069  0.2107  0.4336 -0.4792
  297BOLB   C2B 7114  15.806  19.687  11.774  0.2553  0.0183 -0.0512
  297BOLB   C3B 7115  15.941  19.608  11.416  0.0297  0.0146  0.2233
  297BOLB   C4B 7116  16.219  19.363  11.209  0.1488  0.0618 -0.1111
  297BOLB   NC2 7117  18.041  17.954  13.660  0.0101  0.0084  0.2327
  297BOLB   PO2 7118  17.827  18.405  13.699  0.0125  0.0957 -0.1481
  297BOLB   GL3 7119  17.442  18.499  13.392 -0.2567 -0.1591  0.1293
  297BOLB   GL4 7120  17.214  18.263  13.276  0.0666  0.2690  0.0105
  297BOLB   C1C 7121  17.053  18.724  13.282 -0.1870  0.0432 -0.2132
  297BOLB   C2C 7122  16.641  18.778  13.141 -0.0063 -0.1321 -0.0869
  297BOLB   C3C 7123  16.230  18.661  13.100  0.0117 -0.0664 -0.1213
  297BOLB   C4C 7124  15.970  18.613  13.496 -0.1790 -0.3653  0.0061
  297BOLB   C1D 7125  16.845  18.333  13.080  0.2240  0.1332  0.1000
  297BOLB   C2D 7126  16.362  18.177  13.130 -0.1628 -0.1752 -0.1479
  297BOLB   C3D 7127  15.924  18.176  13.095  0.0912  0.1060  0.2484
  297BOLB   C4D 7128  15.634  18.336  13.313  0.2085  0.0407 -0.0089
  298BOLB   NC1 7129   1.410  26.178   0.367  0.0650  0.3608 -0.1093
  298BOLB   PO1 7130   1.355  26.179   0.820  0.0538 -0.2148 -0.2585
  298BOLB   GL1 7131   1.323  26.016   1.172 -0.0536  0.2220 -0.0473
  298BOLB   GL2 7132   1.011  26.118   1.282  0.1584 -0.0853 -0.3018
  298BOLB   C1A 7133   1.170  25.671   1.407 -0.1232 -0.1023 -0.0077
  298BOLB   C2A 7134   1.141  25.528   1.772 -0.1923 -0.0597  0.1007
  298BOLB   C3A 7135   1.259  25.472   2.141  0.4567 -0.2019  0.2229
  298BOLB   C4A 7136   1.575  25.454   2.378  0.2301  0.2453  0.1031
  298BOLB   C1B 7137   1.157  26.106   1.730  0.0536 -0.2570  0.0819
  298BOLB   C2B 7138   1.426  25.909   2.004 -0.0975  0.2347 -0.0304
  298BOLB   C3B 7139   1.821  25.888   2.053 -0.2313  0.1335  0.0306
  298BOLB   C4B 7140   2.092  25.609   2.318 -0.0467  0.0877  0.0153
  298BOLB   NC2 7141   3.234  24.255   3.615 -0.0653  0.2033 -0.2827
  298BOLB   PO2 7142   3.232  24.664   3.648  0.1692 -0.3561  0.4717
  298BOLB   GL3 7143   2.933  24.938   3.740  0.1554 -0.0354  0.0835
  298BOLB   GL4 7144   2.758  24.710   3.911 -0.2205  0.2734  0.3179
  298BOLB   C1C 7145   2.765  25.183   3.294 -0.3607  0.2415 -0.1199
  298BOLB   C2C 7146   2.602  25.433   2.937 -0.0130 -0.0473 -0.2057
  298BOLB   C3C 7147   2.280  25.310   2.711 -0.0740 -0.3084  0.2396
  298BOLB   C4C 7148   1.769  25.245   2.632 -0.2755  0.0948 -0.1665
  298BOLB   C1D 7149   2.462  24.891   3.670 -0.0725  0.0158  0.1405
  298BOLB   C2D 7150   2.101  25.039   3.427  0.2867 -0.1155 -0.0704
  298BOLB   C3D 7151   1.730  25.204   3.209 -0.1172  0.3375  0.1945
  298BOLB   C4D 7152   1.361  25.431   3.440  0.4139  0.0029 -0.0082
  299BOLB   NC1 7153  18.491  24.529   5.879 -0.0566 -0.1102 -0.0555
  299BOLB   PO1 7154  18.553  25.013   5.972 -0.2013  0.1378 -0.0265
  299BOLB   GL1 7155  18.079  24.914   6.152 -0.0846 -0.1152  0.1314
  299BOLB   GL2 7156  17.950  24.970   6.603 -0.0967  0.1864 -0.0441
  299BOLB   C1A 7157  17.605  24.996   6.209 -0.4120  0.0538 -0.1554
  299BOLB   C2A 7158  17.110  24.946   6.332 -0.2760 -0.0262 -0.2473
  299BOLB   C3A 7159  16.696  24.714   6.476 -0.2522  0.1192 -0.2687
  299BOLB   C4A 7160  16.457  24.260   6.504  0.1136 -0.0623  0.3073
  299BOLB   C1B 7161  17.549  24.842   6.661 -0.1001  0.1193 -0.1677
  299BOLB   C2B 7162  17.125  24.797   6.799 -0.0870 -0.1747 -0.1163
  299BOLB   C3B 7163  16.916  24.434   6.846  0.1004  0.1269 -0.1958
  299BOLB   C4B 7164  16.887  24.074   6.867  0.1369  0.0529  0.0990
  299BOLB   NC2 7165  13.831  23.142   6.044  0.0518 -0.2707  0.1636
  299BOLB   PO2 7166  14.164  23.467   6.137  0.0260  0.2093 -0.2068
  299BOLB   GL3 7167  14.459  23.535   5.863  0.2494 -0.1299  0.0558
  299BOLB   GL4 7168  14.471  23.353   5.585 -0.0052  0.0209 -0.0080
  299BOLB   C1C 7169  14.902  23.618   5.803  0.0118 -0.3371  0.0760
  299BOLB   C2C 7170  15.328  23.850   5.796  0.3058  0.0972  0.0139
  299BOLB   C3C 7171  15.690  23.825   5.973 -0.0977 -0.3674  0.1436
  299BOLB   C4C 7172  16.085  23.916   6.347  0.0844  0.0871  0.0218
  299BOLB   C1D 7173  14.922  23.137   5.733  0.0432 -0.1299 -0.5237
  299BOLB   C2D 7174  15.341  23.325   5.708 -0.0031  0.4220 -0.4190
  299BOLB   C3D 7175  15.805  23.373   5.827 -0.1688 -0.0211 -0.0909
  299BOLB   C4D 7176  16.189  23.224   5.783 -0.2256 -0.3520  0.2042
  300BOLB   NC1 7177  12.258  16.436  11.928  0.1188  0.2257  0.1652
  300BOLB   PO1 7178  12.014  16.171  12.132  0.0211 -0.1787 -0.1374
  300BOLB   GL1 7179  12.292  15.911  11.941 -0.0658 -0.2267  0.0220
  300BOLB   GL2 7180  12.235  15.734  11.586  0.1247  0.2735  0.0981
  300BOLB   C1A 7181  12.729  15.846  11.865 -0.0546  0.1063  0.0387
  300BOLB   C2A 7182  13.102  15.667  12.014  0.1747 -0.1257 -0.1263
  300BOLB   C3A 7183  13.271  15.297  12.234 -0.4449 -0.1042  0.2286
  300BOLB   C4A 7184  13.558  15.059  12.499 -0.0087  0.4617 -0.1709
  300BOLB   C1B 7185  12.459  15.431  11.809 -0.2991 -0.1107 -0.4986
  300BOLB   C2B 7186  12.433  14.930  12.070  0.0969 -0.0264  0.0600
  300BOLB   C3B 7187  12.253  14.534  11.952 -0.2443  0.2625  0.0391
  300BOLB   C4B 7188  12.284  14.159  12.110  0.1102 -0.0763  0.1924
  300BOLB   NC2 7189  14.689  12.791  12.323  0.0156  0.3270  0.1952
  300BOLB   PO2 7190  15.015  13.032  12.474 -0.2524  0.0897 -0.2686
  300BOLB   GL3 7191  14.822  13.330  12.338 -0.0068 -0.0593  0.2481
  300BOLB   GL4 7192  14.611  13.205  12.134 -0.1194 -0.0839  0.0082
  300BOLB   C1C 7193  14.771  13.743  12.358 -0.4052 -0.2922  0.3511
  300BOLB   C2C 7194  14.541  14.060  12.388  0.2831 -0.0337 -0.2448
  300BOLB   C3C 7195  14.260  14.320  12.585  0.2021 -0.1677 -0.0323
  300BOLB   C4C 7196  14.000  14.705  12.620 -0.3227  0.1833 -0.1667
  300BOLB   C1D 7197  14.276  13.423  12.137  0.0344 -0.2089  0.0968
  300BOLB   C2D 7198  14.179  13.872  12.129 -0.2252  0.2152 -0.2508
  300BOLB   C3D 7199  13.845  14.114  12.305  0.1196 -0.1670 -0.1591
  300BOLB   C4D 7200  13.629  14.519  12.318  0.0436  0.0662  0.0427
  301BOLB   NC1 7201   0.872  22.424  16.552  0.1674  0.0306 -0.0508
  301BOLB   PO1 7202   1.167  22.485  16.924  0.0609  0.1298  0.3656
  301BOLB   GL1 7203   1.457  22.441  17.297  0.2082 -0.0500 -0.2151
  301BOLB   GL2 7204   1.237  22.628  17.493  0.1004 -0.1755  0.1547
  301BOLB   C1A 7205   1.433  22.293  17.739 -0.4524  0.0601  0.1886
  301BOLB   C2A 7206   1.513  22.034  18.029 -0.1618  0.3862 -0.1047
  301BOLB   C3A 7207   1.604  21.976  18.443 -0.0260 -0.5933 -0.3679
  301BOLB   C4A 7208   1.484  21.879  18.844  0.2480  0.0708 -0.0784
  301BOLB   C1B 7209   1.044  22.625  17.858 -0.2283 -0.0345 -0.1192
  301BOLB   C2B 7210   0.940  22.789  18.218  0.2858  0.0894  0.0121
  301BOLB   C3B 7211   0.911  22.601  18.494 -0.2415 -0.4924  0.1275
  301BOLB   C4B 7212   1.083  22.353  18.832 -0.0918  0.2577  0.0437
  301BOLB   NC2 7213   0.308  21.877  21.586 -0.2828  0.3228  0.1763
  301BOLB   PO2 7214   0.300  21.843  21.129 -0.0515  0.0539  0.1400
  301BOLB   GL3 7215   0.547  21.811  20.766  0.1375  0.0082 -0.1741
  301BOLB   GL4 7216   0.759  21.861  20.739 -0.0185  0.3392 -0.1271
  301BOLB   C1C 7217   0.482  21.926  20.307 -0.0760 -0.1424  0.0753
  301BOLB   C2C 7218   0.661  21.914  19.882 -0.0940  0.0916  0.3081
  301BOLB   C3C 7219   0.783  21.981  19.532 -0.0325 -0.0691 -0.2021
  301BOLB   C4C 7220   1.105  21.960  19.166 -0.4803  0.0519  0.0796
  301BOLB   C1D 7221   1.018  21.542  20.604  0.0924  0.0267 -0.0982
  301BOLB   C2D 7222   1.164  21.201  20.361 -0.2853 -0.1548  0.1219
  301BOLB   C3D 7223   1.338  20.998  20.165 -0.1779  0.1247  0.0927
  301BOLB   C4D 7224   1.420  20.568  20.056  0.2991 -0.0071 -0.2533
  302BOLB   NC1 7225  15.019  20.877   5.709  0.0947 -0.1470  0.4708
  302BOLB   PO1 7226  15.195  21.020   6.120 -0.0063  0.0154 -0.0276
  302BOLB   GL1 7227  15.684  20.816   6.107 -0.0348  0.3045  0.3704
  302BOLB   GL2 7228  15.577  20.618   5.849 -0.3362  0.1354  0.0928
  302BOLB   C1A 7229  16.027  20.776   5.717 -0.0238 -0.1089 -0.0598
  302BOLB   C2A 7230  16.249  20.901   5.436 -0.0268 -0.1831  0.1079
  302BOLB   C3A 7231  16.502  21.110   5.137 -0.2489  0.0045 -0.2401
  302BOLB   C4A 7232  16.352  21.319   4.740  0.1416 -0.1421 -0.0033
  302BOLB   C1B 7233  15.601  20.764   5.360  0.0885 -0.1395 -0.1233
  302BOLB   C2B 7234  15.681  20.830   4.900 -0.1741 -0.1292  0.0986
  302BOLB   C3B 7235  15.970  20.860   4.649  0.1089  0.1190 -0.0104
  302BOLB   C4B 7236  16.065  20.728   4.186 -0.0218 -0.1694  0.2843
  302BOLB   NC2 7237  17.367  20.406   2.795  0.2926 -0.0847  0.0217
  302BOLB   PO2 7238  17.071  20.669   2.464 -0.1844 -0.0989 -0.1679
  302BOLB   GL3 7239  16.852  20.738   2.838 -0.0365 -0.2720 -0.1275
  302BOLB   GL4 7240  16.969  20.605   3.090 -0.0487 -0.2687  0.2771
  302BOLB   C1C 7241  16.536  21.018   3.062 -0.2849  0.1383 -0.0021
  302BOLB   C2C 7242  16.390  21.108   3.550 -0.0487 -0.1288  0.1397
  302BOLB   C3C 7243  16.302  21.112   3.987 -0.3169  0.0799  0.0558
  302BOLB   C4C 7244  16.167  21.225   4.356 -0.0310 -0.0117  0.2239
  302BOLB   C1D 7245  16.635  20.400   3.412  0.1618  0.1737 -0.3648
  302BOLB   C2D 7246  16.292  20.164   3.566 -0.4384 -0.1098 -0.1824
  302BOLB   C3D 7247  16.024  19.833   3.664 -0.2324  0.0430  0.3049
  302BOLB   C4D 7248  15.733  19.660   3.903  0.3230  0.2738  0.1659
  303BOLB   NC1 7249  10.840  14.498   9.514 -0.1992  0.0025  0.0059
  303BOLB   PO1 7250  10.469  14.241   9.545 -0.5577 -0.0736  0.0906
  303BOLB   GL1 7251  10.578  13.744   9.646 -0.0511  0.1662  0.0993
  303BOLB   GL2 7252  10.751  13.535   9.974  0.2802  0.0386 -0.0067
  303BOLB   C1A 7253  10.824  13.378   9.461  0.3448  0.1957  0.1443
  303BOLB   C2A 7254  11.072  13.033   9.448  0.1566 -0.2460 -0.0308
  303BOLB   C3A 7255  11.397  12.777   9.385 -0.0319 -0.0087 -0.1830
  303BOLB   C4A 7256  11.664  12.581   9.188  0.1411  0.1263 -0.3035
  303BOLB   C1B 7257  10.962  13.177   9.970 -0.1982  0.0547 -0.0308
  303BOLB   C2B 7258  11.407  12.944   9.871  0.0117 -0.0619 -0.1779
  303BOLB   C3B 7259  11.780  12.893  10.055 -0.1419 -0.0002  0.3006
  303BOLB   C4B 7260  12.298  12.752  10.137  0.1712  0.1180  0.3411
  303BOLB   NC2 7261  12.744  10.830   9.818 -0.3257 -0.0380  0.2547
  303BOLB   PO2 7262  12.529  10.721  10.194  0.0166 -0.0097 -0.2672
  303BOLB   GL3 7263  12.317  10.985  10.022  0.1600 -0.1927  0.1352
  303BOLB   GL4 7264  12.456  11.283  10.284 -0.0202  0.0540  0.0377
  303BOLB   C1C 7265  11.917  11.238   9.854  0.1913  0.1583 -0.0566
  303BOLB   C2C 7266  11.783  11.589   9.880  0.1036 -0.2980  0.1620
  303BOLB   C3C 7267  11.542  11.945   9.783  0.0559  0.0137  0.0173
  303BOLB   C4C 7268  11.676  12.255   9.433  0.1281  0.0299  0.0249
  303BOLB   C1D 7269  12.786  11.613  10.524 -0.1223 -0.2014  0.1619
  303BOLB   C2D 7270  12.903  12.023  10.417  0.0651 -0.0787  0.1634
  303BOLB   C3D 7271  12.866  12.492  10.454 -0.0317 -0.3087 -0.0458
  303BOLB   C4D 7272  13.052  12.756  10.702  0.0150  0.3139  0.1464
  304BOLB   NC1 7273  18.909  17.707   9.937 -0.0474  0.5166  0.0787
  304BOLB   PO1 7274  18.594  17.343   9.722  0.0906 -0.0810 -0.3422
  304BOLB   GL1 7275  18.172  17.463   9.688 -0.1775 -0.1240  0.0620
  304BOLB   GL2 7276  18.119  17.786   9.474 -0.1583 -0.3160  0.0940
  304BOLB   C1A 7277  17.767  17.479   9.669 -0.1177  0.2500  0.2841
  304BOLB   C2A 7278  17.441  17.688   9.486  0.2405 -0.2917 -0.1343
  304BOLB   C3A 7279  16.943  17.657   9.346 -0.1199 -0.2012  0.0826
  304BOLB   C4A 7280  16.482  17.616   9.256  0.0548  0.2981  0.2675
  304BOLB   C1B 7281  17.933  18.076   9.344 -0.1806 -0.0840 -0.0456
  304BOLB   C2B 7282  17.794  18.404   9.119  0.0432  0.1384  0.0328
  304BOLB   C3B 7283  17.520  18.760   8.930 -0.2033 -0.0393  0.0647
  304BOLB   C4B 7284  17.131  18.866   8.766  0.0932 -0.1212 -0.1485
  304BOLB   NC2 7285  14.322  18.041  10.375  0.2941 -0.1694  0.0030
  304BOLB   PO2 7286  14.284  18.332  10.034 -0.1167 -0.2286 -0.2385
  304BOLB   GL3 7287  14.698  18.349   9.911  0.0503  0.0595 -0.1675
  304BOLB   GL4 7288  14.811  18.386  10.192 -0.0403 -0.2055 -0.4189
  304BOLB   C1C 7289  15.052  18.225   9.766  0.0190  0.3681 -0.1569
  304BOLB   C2C 7290  15.456  18.153   9.544 -0.2340 -0.1334 -0.1446
  304BOLB   C3C 7291  15.795  17.929   9.516  0.0740 -0.0971  0.0125
  304BOLB   C4C 7292  16.090  17.883   9.202  0.0544 -0.2187  0.0718
  304BOLB   C1D 7293  15.332  18.209  10.151  0.0256  0.0282  0.0156
  304BOLB   C2D 7294  15.704  18.015  10.051 -0.2103 -0.0358 -0.0034
  304BOLB   C3D 7295  15.753  17.640  10.115  0.1870  0.2865 -0.1211
  304BOLB   C4D 7296  15.817  17.201  10.345  0.0448  0.0446 -0.2620
  305BOLB   NC1 7297  12.662  16.503  11.249  0.0856  0.2079 -0.1277
  305BOLB   PO1 7298  12.686  16.565  11.670  0.1542 -0.0879 -0.0099
  305BOLB   GL1 7299  13.073  16.509  11.793 -0.0489 -0.0304 -0.1003
  305BOLB   GL2 7300  13.206  16.629  11.477  0.0650  0.2121 -0.0171
  305BOLB   C1A 7301  13.355  16.153  11.766 -0.2648 -0.0651 -0.0162
  305BOLB   C2A 7302  13.629  15.768  11.968  0.0032  0.1577  0.1779
  305BOLB   C3A 7303  13.834  15.575  12.219 -0.1290  0.0960 -0.0843
  305BOLB   C4A 7304  14.017  15.231  12.359  0.5191 -0.2961 -0.0770
  305BOLB   C1B 7305  13.695  16.447  11.590  0.2133  0.2917 -0.0604
  305BOLB   C2B 7306  14.060  16.573  11.842 -0.1519 -0.0912 -0.0039
  305BOLB   C3B 7307  14.186  16.520  12.259  0.0355 -0.2718  0.0882
  305BOLB   C4B 7308  14.559  16.500  12.538  0.5419  0.0430  0.2587
  305BOLB   NC2 7309  15.913  13.979  12.759  0.0861  0.2589  0.0197
  305BOLB   PO2 7310  15.579  13.763  12.813 -0.1174  0.1416  0.0319
  305BOLB   GL3 7311  15.301  13.958  12.790 -0.0392  0.2973  0.0283
  305BOLB   GL4 7312  15.301  13.993  12.348 -0.1054 -0.1907  0.0038
  305BOLB   C1C 7313  14.817  14.028  12.753  0.0929  0.2280  0.0436
  305BOLB   C2C 7314  14.713  14.431  12.724  0.1345 -0.0344  0.3739
  305BOLB   C3C 7315  14.562  14.698  12.393  0.3512 -0.2108  0.2498
  305BOLB   C4C 7316  14.346  14.993  12.379  0.0703 -0.2123  0.0009
  305BOLB   C1D 7317  15.037  14.252  12.333  0.2920 -0.0042  0.0293
  305BOLB   C2D 7318  15.030  14.609  12.035 -0.0305 -0.0313 -0.0547
  305BOLB   C3D 7319  15.241  14.824  11.642 -0.2389 -0.0083  0.4164
  305BOLB   C4D 7320  15.149  14.724  11.307 -0.0449  0.3415 -0.0290
  306BOLB   NC1 7321   9.989  26.110  16.906  0.3114 -0.0566 -0.0923
  306BOLB   PO1 7322   9.587  26.054  17.024  0.3935  0.1168  0.0002
  306BOLB   GL1 7323   9.920  26.105  17.408  0.1686 -0.1022  0.1355
  306BOLB   GL2 7324   9.640  26.348  17.482 -0.2280 -0.2255 -0.2011
  306BOLB   C1A 7325   9.963  26.057  17.829 -0.1944 -0.2093 -0.0485
  306BOLB   C2A 7326  10.138  26.212  18.155 -0.0358 -0.3335 -0.1522
  306BOLB   C3A 7327  10.390  26.549  18.267  0.6052 -0.1148 -0.1114
  306BOLB   C4A 7328  10.652  26.810  18.198  0.1789  0.1762  0.1768
  306BOLB   C1B 7329  10.008  26.536  17.655  0.0983  0.0320 -0.0648
  306BOLB   C2B 7330  10.453  26.688  17.745  0.1852 -0.0624 -0.3042
  306BOLB   C3B 7331  10.814  26.983  17.764 -0.0573  0.0609  0.3913
  306BOLB   C4B 7332  11.169  27.303  17.838 -0.0842  0.2064  0.3956
  306BOLB   NC2 7333  10.857  28.020  20.299  0.1492  0.4224  0.1693
  306BOLB   PO2 7334  11.269  27.903  20.228  0.1130  0.0357 -0.1632
  306BOLB   GL3 7335  11.214  27.855  19.871 -0.1345 -0.1975  0.0674
  306BOLB   GL4 7336  10.933  27.738  19.881 -0.0545  0.0724 -0.0310
  306BOLB   C1C 7337  11.184  27.604  19.513  0.0188  0.1813  0.1593
  306BOLB   C2C 7338  10.982  27.530  19.219  0.2787  0.0601 -0.1748
  306BOLB   C3C 7339  10.877  27.365  18.849 -0.0620 -0.0905  0.0370
  306BOLB   C4C 7340  10.757  27.139  18.416 -0.0730 -0.0582  0.1227
  306BOLB   C1D 7341  10.714  27.475  19.701 -0.1843  0.3087  0.1259
  306BOLB   C2D 7342  10.526  27.152  19.741 -0.0982 -0.1450 -0.2061
  306BOLB   C3D 7343  10.256  27.008  19.615 -0.0835  0.2875 -0.0476
  306BOLB   C4D 7344   9.835  26.825  19.395 -0.0090  0.0001 -0.2075
  307BOLB   NC1 7345  14.442  18.161   6.430 -0.0376 -0.0237  0.2512
  307BOLB   PO1 7346  14.456  18.457   6.141 -0.0683 -0.0402 -0.0668
  307BOLB   GL1 7347  14.824  18.324   6.157  0.1011  0.0221 -0.1516
  307BOLB   GL2 7348  14.911  18.565   6.471  0.1846  0.1267  0.2473
  307BOLB   C1A 7349  15.016  17.957   6.121  0.1445 -0.0425  0.3059
  307BOLB   C2A 7350  15.244  17.620   6.050 -0.3630  0.1726  0.0433
  307BOLB   C3A 7351  15.630  17.527   6.054  0.0705 -0.3218  0.2728
  307BOLB   C4A 7352  15.984  17.304   6.156  0.1481  0.0155 -0.2788
  307BOLB   C1B 7353  15.284  18.342   6.319  0.1453  0.0947 -0.0548
  307BOLB   C2B 7354  15.508  18.074   6.008  0.1113  0.0688  0.2060
  307BOLB   C3B 7355  15.940  17.950   6.119 -0.4493 -0.2129 -0.0982
  307BOLB   C4B 7356  16.336  17.742   6.156 -0.0748 -0.2234 -0.0405
  307BOLB   NC2 7357  16.312  15.226   4.777  0.4354  0.1034 -0.2420
  307BOLB   PO2 7358  16.457  15.083   5.222  0.1484 -0.0407  0.0937
  307BOLB   GL3 7359  16.535  15.497   5.269 -0.2721 -0.1738 -0.0522
  307BOLB   GL4 7360  16.417  15.681   4.954 -0.0740 -0.2195  0.2464
  307BOLB   C1C 7361  16.464  15.953   5.434  0.2591  0.0626  0.0658
  307BOLB   C2C 7362  16.352  16.305   5.663  0.1757 -0.0118 -0.1448
  307BOLB   C3C 7363  16.090  16.641   5.691 -0.2009 -0.1652  0.0546
  307BOLB   C4C 7364  16.123  17.028   5.886 -0.1057  0.1207  0.0411
  307BOLB   C1D 7365  16.066  15.708   5.289 -0.0990  0.0327  0.1502
  307BOLB   C2D 7366  15.598  15.598   5.357 -0.0433 -0.2065  0.3474
  307BOLB   C3D 7367  15.130  15.684   5.338 -0.2664 -0.1821  0.2332
  307BOLB   C4D 7368  14.748  15.518   5.270 -0.2865  0.0492 -0.1498
  308BOLB   NC1 7369  34.751  12.097   2.183 -0.0221  0.1285  0.3597
  308BOLB   PO1 7370  34.549  12.536   2.166 -0.4095 -0.0106  0.0788
  308BOLB   GL1 7371  34.982  12.662   2.229 -0.2225  0.1083 -0.2186
  308BOLB   GL2 7372  35.287  12.503   2.316 -0.0397  0.3294 -0.3450
  308BOLB   C1A 7373  35.120  12.999   2.400 -0.2459 -0.0839 -0.0630
  308BOLB   C2A 7374  35.489  13.124   2.645 -0.2907 -0.0093  0.1010
  308BOLB   C3A 7375  35.936  13.141   2.764 -0.0508 -0.0936  0.1975
  308BOLB   C4A 7376  36.282  13.250   2.601  0.1417 -0.0116  0.4936
  308BOLB   C1B 7377  35.419  12.237   2.574 -0.4401  0.0370  0.1760
  308BOLB   C2B 7378  35.530  11.839   2.546  0.1835  0.1006  0.0840
  308BOLB   C3B 7379  35.898  11.660   2.675  0.1017  0.0413  0.0400
  308BOLB   C4B 7380  36.273  11.680   2.905 -0.3386 -0.1767 -0.1832
  308BOLB   NC2 7381  36.117  11.362   1.319 -0.3566 -0.0108 -0.0151
  308BOLB   PO2 7382  36.179  11.248   1.776  0.2406  0.2810  0.2896
  308BOLB   GL3 7383  36.252  11.480   2.067 -0.0932  0.0399  0.0979
  308BOLB   GL4 7384  36.244  11.372   2.332 -0.1277 -0.1896 -0.1287
  308BOLB   C1C 7385  36.115  11.894   2.245  0.0154  0.1395 -0.2257
  308BOLB   C2C 7386  36.334  12.298   2.249 -0.4705 -0.0326 -0.1296
  308BOLB   C3C 7387  36.520  12.579   2.170 -0.2169  0.0672  0.1430
  308BOLB   C4C 7388  36.488  13.014   2.193  0.0456  0.0879 -0.0598
  308BOLB   C1D 7389  36.738  11.304   2.383  0.3091  0.4728  0.2344
  308BOLB   C2D 7390  36.986  10.978   2.560  0.1010  0.0302 -0.1679
  308BOLB   C3D 7391  36.984  10.855   3.050  0.4385 -0.0933  0.1686
  308BOLB   C4D 7392  37.343  10.895   3.408 -0.0063 -0.1205  0.1278
  309BOLB   NC1 7393  12.302  26.110  13.081 -0.1761  0.0002  0.0895
  309BOLB   PO1 7394  12.113  26.570  13.013 -0.2479 -0.0938 -0.2511
  309BOLB   GL1 7395  12.246  26.945  13.265 -0.2315 -0.1930  0.0736
  309BOLB   GL2 7396  12.106  27.157  13.031 -0.1570 -0.1043  0.0035
  309BOLB   C1A 7397  12.524  27.077  13.375  0.0382 -0.0372 -0.2064
  309BOLB   C2A 7398  12.940  27.298  13.523  0.0990  0.1743  0.1196
  309BOLB   C3A 7399  13.219  27.516  13.309  0.4638  0.0301  0.3227
  309BOLB   C4A 7400  13.508  27.875  13.274  0.1588 -0.0193  0.2510
  309BOLB   C1B 7401  12.176  27.508  13.413 -0.0855  0.1368 -0.0157
  309BOLB   C2B 7402  12.358  27.691  13.753 -0.0666 -0.1224 -0.0809
  309BOLB   C3B 7403  12.538  27.995  13.941 -0.2513  0.0174 -0.2092
  309BOLB   C4B 7404  12.509  28.433  14.000 -0.2930 -0.1397  0.0797
  309BOLB   NC2 7405  14.547  29.957  13.879 -0.2716  0.2990  0.0891
  309BOLB   PO2 7406  14.850  29.737  14.178 -0.0249  0.0185 -0.2994
  309BOLB   GL3 7407  14.682  29.391  13.829 -0.1202 -0.1342 -0.1700
  309BOLB   GL4 7408  14.808  29.471  13.507  0.1815  0.2883  0.1039
  309BOLB   C1C 7409  14.604  28.956  13.850  0.0282 -0.2164 -0.0800
  309BOLB   C2C 7410  14.442  28.657  13.597  0.2786 -0.1015  0.1163
  309BOLB   C3C 7411  13.933  28.530  13.392  0.2484  0.3452  0.1093
  309BOLB   C4C 7412  13.655  28.229  13.330 -0.1410 -0.0066  0.1089
  309BOLB   C1D 7413  14.557  29.115  13.318  0.0658 -0.1612  0.0668
  309BOLB   C2D 7414  14.290  28.789  13.126  0.1207  0.0220  0.1686
  309BOLB   C3D 7415  14.290  28.480  12.763 -0.1488  0.0332  0.4254
  309BOLB   C4D 7416  14.277  28.080  12.515 -0.2715 -0.0564 -0.1411
  310BOLB   NC1 7417   4.718  20.486  18.729 -0.2236 -0.2409  0.1250
  310BOLB   PO1 7418   5.073  20.480  18.938  0.1434 -0.2065  0.0628
  310BOLB   GL1 7419   4.956  20.347  19.275  0.2011  0.0704  0.3030
  310BOLB   GL2 7420   4.564  20.408  19.224  0.2803  0.1631  0.0740
  310BOLB   C1A 7421   4.916  20.406  19.706 -0.1804 -0.1460  0.0549
  310BOLB   C2A 7422   4.788  20.448  20.028  0.1076  0.0074 -0.1020
  310BOLB   C3A 7423   4.658  20.511  20.357  0.4406 -0.0869 -0.1287
  310BOLB   C4A 7424   4.573  20.515  20.779 -0.0788  0.2492  0.3526
  310BOLB   C1B 7425   4.381  20.242  19.712 -0.3555  0.1378 -0.1302
  310BOLB   C2B 7426   4.132  20.300  20.096 -0.3929 -0.3080 -0.0616
  310BOLB   C3B 7427   4.145  20.417  20.466 -0.1770  0.0828  0.1427
  310BOLB   C4B 7428   4.061  20.597  20.858 -0.0320 -0.2181 -0.5541
  310BOLB   NC2 7429   4.346  21.402  23.012 -0.0589  0.1744 -0.2391
  310BOLB   PO2 7430   4.491  21.017  23.002 -0.1741  0.2103  0.4154
  310BOLB   GL3 7431   4.623  20.927  22.551 -0.2500  0.0602 -0.2521
  310BOLB   GL4 7432   4.285  20.680  22.391 -0.0707 -0.2856  0.3376
  310BOLB   C1C 7433   4.642  20.818  22.068  0.1717 -0.0733 -0.0255
  310BOLB   C2C 7434   4.536  20.718  21.670 -0.1929  0.0568  0.0197
  310BOLB   C3C 7435   4.359  20.407  21.601 -0.2398 -0.2287  0.2205
  310BOLB   C4C 7436   4.433  20.297  21.133 -0.0283  0.1652  0.2074
  310BOLB   C1D 7437   4.231  21.041  22.060 -0.4908  0.3077 -0.0864
  310BOLB   C2D 7438   3.758  21.304  21.904 -0.1050  0.1108 -0.0341
  310BOLB   C3D 7439   3.423  21.583  21.688 -0.0551 -0.1268  0.0709
  310BOLB   C4D 7440   3.100  21.858  21.673  0.0825 -0.0340 -0.5842
  311BOLB   NC1 7441   0.137  25.747   8.564  0.0818  0.0092  0.0738
  311BOLB   PO1 7442   0.044  25.946   8.894  0.1488 -0.1721 -0.0468
  311BOLB   GL1 7443  -0.391  26.205   8.930  0.0890 -0.2147  0.1329
  311BOLB   GL2 7444  -0.272  26.457   9.026 -0.0825  0.1028 -0.3053
  311BOLB   C1A 7445  -0.733  26.327   8.665 -0.2857 -0.1495 -0.0223
  311BOLB   C2A 7446  -0.902  26.725   8.700 -0.3873  0.0431 -0.1645
  311BOLB   C3A 7447  -1.226  26.843   8.949 -0.0697 -0.0893 -0.0407
  311BOLB   C4A 7448  -1.487  27.157   8.931 -0.0625  0.3052  0.0677
  311BOLB   C1B 7449  -0.475  26.741   8.940  0.2457 -0.0670 -0.0777
  311BOLB   C2B 7450  -0.428  27.164   9.085 -0.2427  0.2572 -0.0803
  311BOLB   C3B 7451  -0.686  27.317   9.470 -0.0281  0.2224 -0.0054
  311BOLB   C4B 7452  -1.037  27.531   9.728  0.3804  0.0187  0.0151
  311BOLB   NC2 7453  -3.271  29.022  10.226  0.0723  0.3653 -0.4823
  311BOLB   PO2 7454  -3.097  28.654   9.977 -0.0833  0.1156  0.0793
  311BOLB   GL3 7455  -2.817  28.369   9.989  0.3795  0.3844  0.1916
  311BOLB   GL4 7456  -2.462  28.385  10.047 -0.2193  0.0449 -0.1076
  311BOLB   C1C 7457  -2.672  28.119   9.585  0.2546 -0.0760 -0.1572
  311BOLB   C2C 7458  -2.506  28.007   9.241 -0.0532 -0.0352 -0.1639
  311BOLB   C3C 7459  -2.111  27.817   9.137  0.0291 -0.1253 -0.0680
  311BOLB   C4C 7460  -1.836  27.486   8.989  0.0246 -0.1218 -0.3930
  311BOLB   C1D 7461  -2.188  28.112   9.840 -0.2370  0.0421 -0.2200
  311BOLB   C2D 7462  -2.183  27.743   9.642 -0.0927  0.1177 -0.0060
  311BOLB   C3D 7463  -1.975  27.227   9.612  0.0527 -0.0112 -0.2649
  311BOLB   C4D 7464  -1.652  26.913   9.356 -0.0707  0.0512 -0.2751
  312BOLB   NC1 7465   9.418  23.346   3.547 -0.0624 -0.3681 -0.1521
  312BOLB   PO1 7466   9.710  23.611   3.759 -0.0079  0.0482  0.1501
  312BOLB   GL1 7467   9.590  23.707   3.291 -0.1031  0.3274 -0.2508
  312BOLB   GL2 7468   9.558  23.517   3.069 -0.0181  0.4320  0.1676
  312BOLB   C1A 7469   9.712  24.041   2.874  0.2607  0.1423  0.1973
  312BOLB   C2A 7470   9.756  24.187   2.487  0.2665  0.1062  0.0586
  312BOLB   C3A 7471  10.046  24.187   2.042  0.5353  0.1081 -0.1192
  312BOLB   C4A 7472  10.383  24.338   1.926  0.4221 -0.1250 -0.1878
  312BOLB   C1B 7473   9.668  23.577   2.658  0.3146  0.0570  0.3938
  312BOLB   C2B 7474   9.747  23.496   2.152 -0.0414 -0.0776  0.0736
  312BOLB   C3B 7475   9.890  23.504   1.779  0.1829  0.2602 -0.1571
  312BOLB   C4B 7476   9.814  23.429   1.272 -0.3780  0.3715  0.0890
  312BOLB   NC2 7477  11.604  24.915  -0.049 -0.0365  0.1166  0.1518
  312BOLB   PO2 7478  11.932  25.137   0.161 -0.1516 -0.2954  0.0425
  312BOLB   GL3 7479  11.851  24.806   0.430 -0.0318 -0.3421 -0.3333
  312BOLB   GL4 7480  12.126  24.764   0.564 -0.3000 -0.1958  0.3478
  312BOLB   C1C 7481  11.692  24.489   0.749 -0.2118 -0.0036 -0.0035
  312BOLB   C2C 7482  11.407  24.172   1.064  0.0410 -0.2079  0.0080
  312BOLB   C3C 7483  11.228  24.159   1.430  0.1003 -0.2598 -0.2315
  312BOLB   C4C 7484  10.883  24.326   1.792 -0.2004  0.1299 -0.0186
  312BOLB   C1D 7485  12.137  24.299   0.770 -0.2068 -0.0106  0.2251
  312BOLB   C2D 7486  11.969  23.982   1.003 -0.2787  0.1849 -0.1516
  312BOLB   C3D 7487  12.178  23.711   1.248  0.2825  0.2959 -0.1491
  312BOLB   C4D 7488  12.090  23.302   1.440 -0.0536 -0.3424  0.1909
  313BOLB   NC1 7489   7.762  14.635   4.485 -0.2493  0.1971  0.0437
  313BOLB   PO1 7490   7.343  14.520   4.361 -0.0639  0.2699  0.3574
  313BOLB   GL1 7491   7.499  14.165   4.216  0.0946  0.0975 -0.1407
  313BOLB   GL2 7492   7.540  13.867   4.350 -0.2178  0.1018  0.1188
  313BOLB   C1A 7493   7.891  14.237   4.021  0.1750 -0.0530 -0.0945
  313BOLB   C2A 7494   8.230  14.055   3.682  0.1663  0.1128  0.0020
  313BOLB   C3A 7495   8.406  14.023   3.322  0.1369 -0.0606  0.2165
  313BOLB   C4A 7496   8.735  13.879   3.046  0.3923 -0.1681  0.0625
  313BOLB   C1B 7497   7.263  13.694   4.035  0.1573  0.0458 -0.0548
  313BOLB   C2B 7498   6.879  13.636   3.773  0.1247 -0.2056  0.3172
  313BOLB   C3B 7499   6.877  13.212   3.481  0.0323 -0.2200 -0.3354
  313BOLB   C4B 7500   6.702  12.902   3.358  0.2110  0.0375 -0.0725
  313BOLB   NC2 7501   9.381  11.682   1.837 -0.1445 -0.2313  0.0314
  313BOLB   PO2 7502   9.263  12.026   1.613  0.1158 -0.1521  0.0836
  313BOLB   GL3 7503   9.226  12.480   1.715  0.0838 -0.1304  0.1577
  313BOLB   GL4 7504   9.204  12.339   2.001  0.1959 -0.0364 -0.3739
  313BOLB   C1C 7505   9.012  12.822   1.821  0.1780 -0.0499 -0.3095
  313BOLB   C2C 7506   8.962  12.957   2.248  0.2478  0.2102 -0.0516
  313BOLB   C3C 7507   8.957  13.306   2.556  0.2373 -0.0921 -0.1137
  313BOLB   C4C 7508   8.972  13.610   2.851  0.1468  0.0587  0.0594
  313BOLB   C1D 7509   9.242  12.553   2.410  0.1829  0.0426  0.3375
  313BOLB   C2D 7510   9.552  12.772   2.593  0.0954  0.2335  0.0557
  313BOLB   C3D 7511  10.037  12.678   2.638  0.1415  0.0660 -0.3304
  313BOLB   C4D 7512  10.343  13.026   2.508 -0.1715 -0.2207  0.0131
  314BOLB   NC1 7513  34.763  11.402   2.754 -0.0110  0.0951 -0.0062
  314BOLB   PO1 7514  35.077  11.100   2.597  0.1573 -0.0634  0.5606
  314BOLB   GL1 7515  35.211  11.332   3.026  0.0246 -0.0431 -0.1135
  314BOLB   GL2 7516  35.146  11.729   2.966  0.0739 -0.2171  0.0812
  314BOLB   C1A 7517  35.351  11.511   3.377 -0.0819 -0.2217 -0.3770
  314BOLB   C2A 7518  35.608  11.854   3.611 -0.0350  0.0066 -0.1570
  314BOLB   C3A 7519  35.556  12.341   3.405 -0.0882 -0.1966 -0.0527
  314BOLB   C4A 7520  35.377  12.691   3.493  0.1164 -0.0330 -0.3300
  314BOLB   C1B 7521  35.476  11.921   3.078  0.2234  0.0599 -0.3554
  314BOLB   C2B 7522  35.691  12.405   2.937 -0.2094  0.1038  0.3728
  314BOLB   C3B 7523  35.790  12.659   2.657 -0.0816  0.0436 -0.1993
  314BOLB   C4B 7524  36.103  12.757   2.465  0.0691 -0.1916  0.4685
  314BOLB   NC2 7525  33.765  11.806   4.594 -0.1086  0.3209 -0.3020
  314BOLB   PO2 7526  33.818  11.658   4.117 -0.0103 -0.1434 -0.3576
  314BOLB   GL3 7527  34.178  11.806   4.298 -0.1465  0.1547  0.0732
  314BOLB   GL4 7528  34.548  11.851   4.192  0.0461  0.2372 -0.0724
  314BOLB   C1C 7529  34.234  12.209   4.152 -0.1197  0.1589  0.2146
  314BOLB   C2C 7530  34.463  12.570   4.109 -0.2436 -0.1661 -0.0161
  314BOLB   C3C 7531  34.822  12.669   3.909  0.0802 -0.1230  0.1163
  314BOLB   C4C 7532  35.154  12.787   3.737 -0.0726 -0.3156 -0.1801
  314BOLB   C1D 7533  34.738  12.008   4.592 -0.1727 -0.2299  0.1549
  314BOLB   C2D 7534  35.038  12.168   4.749 -0.3191  0.0652 -0.4037
  314BOLB   C3D 7535  35.274  12.492   4.957  0.1612  0.1356  0.0325
  314BOLB   C4D 7536  35.601  12.773   5.118 -0.3115 -0.1010  0.0103
  315BOLB   NC1 7537   5.116  13.062   7.126  0.2108  0.3143  0.2308
  315BOLB   PO1 7538   5.347  13.285   6.807  0.2257  0.2108 -0.2582
  315BOLB   GL1 7539   5.114  13.006   6.642  0.2178  0.6949  0.0768
  315BOLB   GL2 7540   5.258  12.813   6.415 -0.0833 -0.0623 -0.1741
  315BOLB   C1A 7541   4.754  12.629   6.774 -0.1525  0.0111 -0.0509
  315BOLB   C2A 7542   4.729  12.247   6.917  0.1134 -0.2532  0.1775
  315BOLB   C3A 7543   4.724  11.829   6.822  0.1160 -0.1206  0.0086
  315BOLB   C4A 7544   4.707  11.286   6.705 -0.0368  0.0516 -0.2558
  315BOLB   C1B 7545   5.547  12.421   6.475  0.0663 -0.2107  0.4550
  315BOLB   C2B 7546   5.426  12.003   6.475  0.1700 -0.1214  0.2514
  315BOLB   C3B 7547   5.542  11.526   6.370  0.0883 -0.2070 -0.1229
  315BOLB   C4B 7548   5.385  11.116   6.102 -0.4199  0.0011 -0.3234
  315BOLB   NC2 7549   6.219   8.941   5.419 -0.2887 -0.1485  0.2286
  315BOLB   PO2 7550   5.935   9.120   5.607  0.0941  0.2492  0.0594
  315BOLB   GL3 7551   5.778   9.538   5.800  0.1777  0.2319  0.0094
  315BOLB   GL4 7552   5.809   9.881   5.548  0.4902  0.1600 -0.2039
  315BOLB   C1C 7553   5.463   9.753   5.986 -0.1469  0.1976 -0.2765
  315BOLB   C2C 7554   5.325  10.146   6.271  0.0474  0.0763 -0.0372
  315BOLB   C3C 7555   4.969  10.380   6.587 -0.0334 -0.2868  0.1317
  315BOLB   C4C 7556   4.836  10.851   6.784  0.0606  0.1942  0.0627
  315BOLB   C1D 7557   6.033  10.265   5.582 -0.0226 -0.1818 -0.0667
  315BOLB   C2D 7558   5.908  10.673   5.630 -0.0668 -0.0636  0.0408
  315BOLB   C3D 7559   5.832  10.994   5.945 -0.1908  0.2041 -0.2145
  315BOLB   C4D 7560   5.923  11.409   6.056 -0.1735  0.0018 -0.2323
  316BOLB   NC1 7561  37.885  23.119  14.567 -0.0642  0.1452 -0.0751
  316BOLB   PO1 7562  37.890  23.116  14.993 -0.0764  0.1979  0.1533
  316BOLB   GL1 7563  37.578  23.239  15.265  0.1822 -0.0625  0.2383
  316BOLB   GL2 7564  37.572  22.976  15.454 -0.2014  0.2716 -0.0338
  316BOLB   C1A 7565  37.173  23.251  15.300  0.1330 -0.0975 -0.2997
  316BOLB   C2A 7566  37.121  23.538  15.594  0.0575 -0.0432 -0.1595
  316BOLB   C3A 7567  36.732  23.721  15.657  0.3147  0.0455  0.0812
  316BOLB   C4A 7568  36.510  24.086  15.729  0.0624 -0.0146  0.2304
  316BOLB   C1B 7569  37.197  23.022  15.725 -0.1532 -0.1548  0.1286
  316BOLB   C2B 7570  36.831  23.173  15.828  0.1006  0.0217  0.4397
  316BOLB   C3B 7571  36.424  23.349  15.796  0.1201 -0.3017 -0.1684
  316BOLB   C4B 7572  36.104  23.366  16.049  0.4219 -0.0383 -0.0830
  316BOLB   NC2 7573  35.053  26.165  16.105 -0.0499  0.1304  0.3852
  316BOLB   PO2 7574  35.121  25.716  16.384 -0.4172  0.2172  0.2574
  316BOLB   GL3 7575  35.081  25.377  16.168 -0.0559  0.2187  0.3503
  316BOLB   GL4 7576  35.218  25.414  15.944 -0.2957 -0.3383 -0.0454
  316BOLB   C1C 7577  35.324  25.007  16.178  0.1743  0.1650 -0.0725
  316BOLB   C2C 7578  35.365  24.720  15.858  0.1336 -0.1000 -0.1254
  316BOLB   C3C 7579  35.735  24.624  15.676  0.1561 -0.0241  0.5138
  316BOLB   C4C 7580  36.197  24.436  15.831 -0.1208  0.1769  0.1344
  316BOLB   C1D 7581  35.463  25.153  15.668 -0.0056 -0.0595  0.0436
  316BOLB   C2D 7582  35.670  25.144  15.273 -0.2178 -0.0167 -0.1371
  316BOLB   C3D 7583  36.013  25.140  14.996  0.2394 -0.0185 -0.2234
  316BOLB   C4D 7584  36.445  24.930  15.102 -0.1588  0.0606 -0.1819
  317BOLB   NC1 7585   2.649  23.147   4.197 -0.0734  0.1447 -0.1013
  317BOLB   PO1 7586   2.390  23.454   3.872 -0.0469 -0.0243 -0.3077
  317BOLB   GL1 7587   2.322  23.441   3.483  0.1965  0.0473  0.5068
  317BOLB   GL2 7588   2.256  23.672   3.421  0.1899  0.1779 -0.1754
  317BOLB   C1A 7589   2.100  23.382   2.963 -0.1824 -0.2428  0.1321
  317BOLB   C2A 7590   2.011  23.591   2.664  0.2585 -0.2354  0.0574
  317BOLB   C3A 7591   1.908  23.742   2.301  0.2519 -0.3467 -0.0591
  317BOLB   C4A 7592   1.661  24.020   1.935 -0.1006  0.3819  0.1231
  317BOLB   C1B 7593   2.144  23.900   3.053  0.1142  0.0615  0.1375
  317BOLB   C2B 7594   2.050  24.275   2.673  0.1333 -0.0764  0.0150
  317BOLB   C3B 7595   1.654  24.471   2.574 -0.0010  0.2570 -0.0037
  317BOLB   C4B 7596   1.277  24.801   2.517 -0.2092 -0.0543  0.2038
  317BOLB   NC2 7597   0.651  25.101   0.117 -0.1706  0.2556  0.4076
  317BOLB   PO2 7598   0.738  25.497   0.468 -0.2818  0.2928 -0.0132
  317BOLB   GL3 7599   0.678  25.486   0.845  0.1167  0.0882 -0.2042
  317BOLB   GL4 7600   0.447  25.302   1.011 -0.3100  0.0395  0.1449
  317BOLB   C1C 7601   0.940  25.228   1.202 -0.2948 -0.2344  0.1030
  317BOLB   C2C 7602   1.239  24.922   1.548  0.1168 -0.3687 -0.1947
  317BOLB   C3C 7603   1.344  24.646   1.755  0.1969  0.2325  0.0648
  317BOLB   C4C 7604   1.535  24.356   1.832  0.0949  0.0530 -0.0830
  317BOLB   C1D 7605   0.623  25.449   1.519 -0.1270  0.0137 -0.1488
  317BOLB   C2D 7606   0.773  25.195   1.701 -0.0533 -0.0481  0.0832
  317BOLB   C3D 7607   0.993  25.058   2.052  0.2401  0.1502 -0.0640
  317BOLB   C4D 7608   1.432  25.029   2.102  0.1868 -0.2493 -0.1291
  318BOLB   NC1 7609   4.765  25.164  17.181 -0.0447 -0.1755  0.1247
  318BOLB   PO1 7610   4.451  25.426  17.264  0.1970 -0.1395 -0.2590
  318BOLB   GL1 7611   4.329  25.516  17.685 -0.0348 -0.1686  0.0932
  318BOLB   GL2 7612   4.148  25.306  17.862 -0.1235 -0.1094  0.1942
  318BOLB   C1A 7613   4.323  25.901  17.940 -0.0327  0.0425 -0.0053
  318BOLB   C2A 7614   4.381  26.008  18.352 -0.0104 -0.1647  0.0539
  318BOLB   C3A 7615   4.297  26.322  18.656  0.1029 -0.1145  0.2637
  318BOLB   C4A 7616   3.928  26.557  18.599 -0.0566 -0.0701 -0.1153
  318BOLB   C1B 7617   4.125  25.575  18.206  0.0069 -0.2282  0.0977
  318BOLB   C2B 7618   3.966  25.428  18.552 -0.0371 -0.2187 -0.0759
  318BOLB   C3B 7619   3.609  25.403  18.937 -0.3169 -0.1014  0.0373
  318BOLB   C4B 7620   3.530  25.638  19.314 -0.3805 -0.2532  0.2007
  318BOLB   NC2 7621   2.309  27.763  20.338  0.3316  0.0039 -0.1258
  318BOLB   PO2 7622   2.422  27.349  20.461  0.0664  0.0817  0.2104
  318BOLB   GL3 7623   2.674  27.322  20.073  0.2163  0.0135  0.1116
  318BOLB   GL4 7624   2.788  27.638  20.003  0.1290 -0.1133 -0.2709
  318BOLB   C1C 7625   2.677  27.302  19.637 -0.3698  0.0516 -0.1320
  318BOLB   C2C 7626   2.921  27.164  19.274 -0.0544  0.3581  0.1478
  318BOLB   C3C 7627   3.218  26.933  18.905  0.1150 -0.0856  0.0003
  318BOLB   C4C 7628   3.453  26.759  18.559  0.2163  0.0215  0.1636
  318BOLB   C1D 7629   3.119  27.576  19.798  0.2046  0.0214  0.1296
  318BOLB   C2D 7630   3.402  27.791  19.615  0.0405  0.0372  0.2919
  318BOLB   C3D 7631   3.568  27.681  19.272 -0.0107  0.3443  0.0947
  318BOLB   C4D 7632   3.889  27.579  18.970  0.0943 -0.1449  0.1219
  319BOLB   NC1 7633  11.516  31.434  15.078 -0.0680 -0.3091  0.0405
  319BOLB   PO1 7634  11.071  31.464  15.224  0.0331  0.0264 -0.1425
  319BOLB   GL1 7635  10.947  31.170  14.941 -0.2937  0.2679 -0.2021
  319BOLB   GL2 7636  10.720  31.264  14.849 -0.0549  0.0421 -0.2885
  319BOLB   C1A 7637  10.657  30.690  14.810 -0.0945 -0.0357  0.2944
  319BOLB   C2A 7638  10.669  30.329  14.768  0.1378 -0.0028 -0.1890
  319BOLB   C3A 7639  10.809  29.949  14.543  0.1101  0.0684 -0.1131
  319BOLB   C4A 7640  11.024  29.694  14.295 -0.0160  0.0783  0.0402
  319BOLB   C1B 7641  10.615  30.995  15.182 -0.1220  0.0618  0.0900
  319BOLB   C2B 7642  10.297  30.945  15.503 -0.2839  0.3372  0.3245
  319BOLB   C3B 7643  10.003  30.867  15.886 -0.0086 -0.1877 -0.2438
  319BOLB   C4B 7644   9.811  30.492  16.054  0.0343  0.2666 -0.0909
  319BOLB   NC2 7645  13.206  30.418  13.842  0.1651  0.2677 -0.1594
  319BOLB   PO2 7646  12.877  30.817  13.719 -0.0554  0.0926 -0.1387
  319BOLB   GL3 7647  12.704  30.395  13.725  0.1581 -0.2065 -0.0020
  319BOLB   GL4 7648  12.757  30.148  13.876 -0.0001  0.2755 -0.0255
  319BOLB   C1C 7649  12.340  30.092  13.544 -0.3483 -0.3405  0.0225
  319BOLB   C2C 7650  12.070  29.859  13.678  0.0357  0.2997  0.0430
  319BOLB   C3C 7651  11.760  29.564  13.777  0.0860  0.3034 -0.1029
  319BOLB   C4C 7652  11.326  29.510  13.978  0.2434  0.3982  0.0212
  319BOLB   C1D 7653  12.864  29.864  13.668 -0.3937  0.1921  0.0995
  319BOLB   C2D 7654  12.958  29.405  13.739  0.1917  0.1111 -0.0431
  319BOLB   C3D 7655  12.866  29.081  14.059  0.3763  0.0063  0.1369
  319BOLB   C4D 7656  12.873  28.742  14.289 -0.0705 -0.0783 -0.0790
  320BOLB   NC1 7657  10.460  25.405  17.066 -0.0594 -0.1171 -0.0682
  320BOLB   PO1 7658  10.376  25.773  17.094 -0.0842  0.2082 -0.1179
  320BOLB   GL1 7659  10.532  26.074  17.324  0.0966 -0.0815 -0.2858
  320BOLB   GL2 7660  10.397  26.351  17.266  0.2131 -0.0506 -0.3449
  320BOLB   C1A 7661  10.547  26.191  17.763 -0.0335 -0.2448  0.0713
  320BOLB   C2A 7662  10.641  26.167  18.072  0.1921  0.4475  0.0471
  320BOLB   C3A 7663  10.774  26.290  18.448  0.2489 -0.1492  0.0817
  320BOLB   C4A 7664  11.145  26.381  18.492  0.0397  0.2457  0.4135
  320BOLB   C1B 7665  10.613  26.798  17.327 -0.0026  0.4144 -0.2034
  320BOLB   C2B 7666  10.672  27.235  17.320 -0.0013 -0.1634 -0.1689
  320BOLB   C3B 7667  10.801  27.515  17.661  0.1369  0.1143  0.2686
  320BOLB   C4B 7668  10.826  27.670  18.037  0.0445 -0.0495 -0.1809
  320BOLB   NC2 7669  12.363  27.242  19.876 -0.3203  0.3167 -0.1364
  320BOLB   PO2 7670  12.281  27.762  19.884 -0.0399 -0.2055 -0.0900
  320BOLB   GL3 7671  12.012  27.569  19.703  0.1827  0.2301 -0.1226
  320BOLB   GL4 7672  11.969  27.194  19.566 -0.0301  0.3197 -0.0720
  320BOLB   C1C 7673  11.670  27.642  19.352 -0.1384 -0.0090  0.1920
  320BOLB   C2C 7674  11.533  27.438  19.061 -0.0031  0.1268  0.2189
  320BOLB   C3C 7675  11.485  27.161  18.736  0.3074  0.1453  0.1495
  320BOLB   C4C 7676  11.349  26.745  18.740 -0.2317 -0.1334  0.0380
  320BOLB   C1D 7677  11.607  27.103  19.421 -0.2459  0.2945 -0.2503
  320BOLB   C2D 7678  11.207  27.041  19.171  0.0316 -0.0046  0.0640
  320BOLB   C3D 7679  10.838  26.867  18.908  0.1832 -0.1383 -0.2779
  320BOLB   C4D 7680  10.554  26.704  18.695  0.0680 -0.1386  0.3378
  321BOLB   NC1 7681  14.118  22.222   5.685  0.1433 -0.3709  0.0087
  321BOLB   PO1 7682  14.049  22.461   5.293 -0.4434  0.0219  0.1712
  321BOLB   GL1 7683  14.472  22.437   5.170 -0.2201 -0.2008  0.1377
  321BOLB   GL2 7684  14.607  22.321   5.409  0.1234 -0.1451 -0.2016
  321BOLB   C1A 7685  14.862  22.324   4.951 -0.1081  0.3123  0.1095
  321BOLB   C2A 7686  15.146  22.585   4.734 -0.1247  0.2221  0.1186
  321BOLB   C3A 7687  15.565  22.623   4.796  0.0052  0.1371  0.1191
  321BOLB   C4A 7688  15.944  22.305   4.965 -0.2652  0.3161 -0.0365
  321BOLB   C1B 7689  14.855  22.728   5.167 -0.1188 -0.1412  0.0950
  321BOLB   C2B 7690  15.215  22.991   5.033  0.1158  0.0001 -0.1501
  321BOLB   C3B 7691  15.172  23.389   4.809 -0.0122  0.0804 -0.1669
  321BOLB   C4B 7692  15.415  23.532   4.475  0.1292 -0.0630  0.0387
  321BOLB   NC2 7693  18.614  22.235   3.662 -0.2230  0.1816 -0.1355
  321BOLB   PO2 7694  18.192  22.347   3.663  0.0242 -0.3430 -0.0756
  321BOLB   GL3 7695  17.720  22.342   3.843  0.1025  0.4684 -0.0380
  321BOLB   GL4 7696  17.779  22.121   3.612 -0.4286  0.0575  0.2377
  321BOLB   C1C 7697  17.277  22.131   3.973  0.0231  0.1314 -0.1540
  321BOLB   C2C 7698  17.121  22.167   4.316  0.0352  0.0562 -0.1290
  321BOLB   C3C 7699  16.868  22.230   4.558 -0.1012  0.3128  0.2085
  321BOLB   C4C 7700  16.477  22.300   4.877  0.1121  0.0729 -0.0267
  321BOLB   C1D 7701  17.686  21.834   3.943 -0.2307 -0.1625  0.4129
  321BOLB   C2D 7702  17.381  21.757   4.299 -0.2124  0.1032  0.1492
  321BOLB   C3D 7703  17.168  21.806   4.691  0.3990  0.2575 -0.0030
  321BOLB   C4D 7704  16.950  22.028   4.974 -0.1217 -0.1590 -0.0978
  322BOLB   NC1 7705  13.486  24.034  14.487 -0.1081 -0.4009  0.3571
  322BOLB   PO1 7706  13.173  24.081  14.749  0.1759  0.3040 -0.2023
  322BOLB   GL1 7707  13.540  23.959  14.982 -0.3244 -0.1337 -0.3818
  322BOLB   GL2 7708  13.549  24.222  15.169  0.2577 -0.1503 -0.1818
  322BOLB   C1A 7709  14.030  23.870  15.251 -0.0389  0.0202  0.2626
  322BOLB   C2A 7710  14.067  23.526  15.502 -0.3057  0.2746 -0.3052
  322BOLB   C3A 7711  14.172  23.275  15.825 -0.1162 -0.0395 -0.2464
  322BOLB   C4A 7712  14.593  23.326  16.214 -0.0803 -0.1963  0.0939
  322BOLB   C1B 7713  13.773  24.302  15.445  0.0125  0.0982  0.1419
  322BOLB   C2B 7714  14.205  24.299  15.589 -0.2306  0.1227  0.2294
  322BOLB   C3B 7715  14.516  24.006  15.631  0.0070  0.2597  0.1819
  322BOLB   C4B 7716  14.646  23.565  15.698  0.1192  0.2826  0.1406
  322BOLB   NC2 7717  16.087  22.750  18.325  0.0067 -0.2242 -0.2020
  322BOLB   PO2 7718  16.093  22.538  17.955  0.2243 -0.0018 -0.0701
  322BOLB   GL3 7719  15.859  22.676  17.529  0.0709  0.0994  0.2775
  322BOLB   GL4 7720  15.893  22.952  17.323  0.1406 -0.0373 -0.1585
  322BOLB   C1C 7721  15.580  22.583  17.231 -0.0999  0.1455 -0.2400
  322BOLB   C2C 7722  15.261  22.600  16.959  0.2017 -0.0728 -0.2414
  322BOLB   C3C 7723  15.024  22.887  16.629  0.0544  0.0801  0.0455
  322BOLB   C4C 7724  14.670  23.219  16.654  0.0406 -0.1657  0.0990
  322BOLB   C1D 7725  15.393  22.970  17.401 -0.2757  0.3624 -0.1122
  322BOLB   C2D 7726  15.071  22.778  17.356 -0.0665  0.3619  0.2282
  322BOLB   C3D 7727  14.775  22.821  17.058  0.1959 -0.2174 -0.1688
  322BOLB   C4D 7728  14.387  22.776  16.763  0.4686 -0.1530  0.0987
  323BOLB   NC1 7729   5.591  25.768  16.736 -0.0182 -0.1794  0.0852
  323BOLB   PO1 7730   5.690  26.083  16.951 -0.1899 -0.2099 -0.2577
  323BOLB   GL1 7731   5.491  26.342  17.293  0.0065 -0.4067  0.3102
  323BOLB   GL2 7732   5.798  26.438  17.465 -0.0856  0.2101  0.3995
  323BOLB   C1A 7733   5.261  26.502  17.659 -0.1438 -0.2168 -0.0139
  323BOLB   C2A 7734   4.927  26.533  17.956 -0.1188  0.2306  0.1177
  323BOLB   C3A 7735   4.600  26.844  18.013 -0.3511  0.1121 -0.3387
  323BOLB   C4A 7736   4.285  26.857  18.453 -0.1909  0.1150 -0.1412
  323BOLB   C1B 7737   5.865  26.794  17.677  0.0602  0.1754  0.0774
  323BOLB   C2B 7738   5.554  27.007  17.960 -0.6487  0.1012  0.0407
  323BOLB   C3B 7739   5.448  27.020  18.448 -0.0696  0.1219  0.0576
  323BOLB   C4B 7740   5.271  27.015  18.792  0.2936  0.1376  0.2450
  323BOLB   NC2 7741   4.234  28.970  20.056 -0.0086  0.1996  0.0936
  323BOLB   PO2 7742   3.933  28.592  20.034 -0.1781  0.1082  0.0183
  323BOLB   GL3 7743   3.976  28.150  19.862  0.1707  0.1989 -0.0987
  323BOLB   GL4 7744   3.700  28.202  19.666 -0.0174  0.0574 -0.3935
  323BOLB   C1C 7745   3.949  27.813  19.513 -0.2314  0.0977 -0.0766
  323BOLB   C2C 7746   3.977  27.371  19.415  0.1561  0.0138  0.1374
  323BOLB   C3C 7747   4.082  27.047  19.264 -0.0423 -0.3354 -0.2343
  323BOLB   C4C 7748   4.337  26.802  18.902  0.0269 -0.1011 -0.1818
  323BOLB   C1D 7749   3.903  28.257  19.273 -0.0063 -0.0713  0.1438
  323BOLB   C2D 7750   4.164  28.030  18.978  0.1031  0.0134  0.0208
  323BOLB   C3D 7751   4.268  27.970  18.601  0.1879  0.2275  0.0885
  323BOLB   C4D 7752   4.394  27.704  18.208 -0.1147  0.1354 -0.0394
  324BOLB   NC1 7753   7.932  26.364   5.023 -0.0959 -0.1432 -0.1521
  324BOLB   PO1 7754   8.006  26.784   4.751 -0.4147  0.1324 -0.2224
  324BOLB   GL1 7755   8.085  26.879   4.389  0.3338  0.0682 -0.0956
  324BOLB   GL2 7756   8.121  27.193   4.289  0.0931  0.2680  0.2051
  324BOLB   C1A 7757   8.171  26.807   3.976  0.2019  0.1884 -0.1568
  324BOLB   C2A 7758   8.265  27.064   3.597 -0.2673  0.0340  0.2064
  324BOLB   C3A 7759   8.229  27.326   3.182 -0.1199  0.1200  0.2122
  324BOLB   C4A 7760   8.576  27.279   2.890 -0.2831 -0.2111  0.2196
  324BOLB   C1B 7761   8.355  27.324   4.046 -0.3229 -0.0284  0.1433
  324BOLB   C2B 7762   8.492  27.681   3.820 -0.0367 -0.2280  0.4274
  324BOLB   C3B 7763   8.504  27.993   3.531 -0.2548 -0.0934 -0.1794
  324BOLB   C4B 7764   8.278  28.334   3.365 -0.1243 -0.5703  0.2552
  324BOLB   NC2 7765   8.934  27.650   1.114  0.1834 -0.3464 -0.1413
  324BOLB   PO2 7766   9.294  27.956   0.970  0.0996 -0.0105 -0.1544
  324BOLB   GL3 7767   9.314  27.666   1.429  0.2079  0.2666 -0.3412
  324BOLB   GL4 7768   9.026  27.539   1.547  0.1272 -0.0150 -0.1288
  324BOLB   C1C 7769   9.524  27.579   1.900  0.1892 -0.2566  0.4262
  324BOLB   C2C 7770   9.479  27.392   2.261 -0.2518 -0.1257  0.0607
  324BOLB   C3C 7771   9.075  27.579   2.407  0.0025 -0.0256  0.1543
  324BOLB   C4C 7772   8.754  27.388   2.600 -0.2291  0.0308  0.4136
  324BOLB   C1D 7773   9.058  27.310   1.904 -0.1342 -0.0380 -0.0741
  324BOLB   C2D 7774   9.113  27.022   2.218  0.2275 -0.0350  0.2739
  324BOLB   C3D 7775   9.072  27.040   2.643  0.0601  0.1062  0.0364
  324BOLB   C4D 7776   9.206  26.871   3.055  0.3369 -0.2585 -0.4574
  325BOLB   NC1 7777  32.275  20.025   1.229 -0.2440  0.2740  0.2401
  325BOLB   PO1 7778  32.583  20.400   1.274  0.0803 -0.2104 -0.1019
  325BOLB   GL1 7779  32.783  20.103   1.630 -0.0154 -0.2648  0.0507
  325BOLB   GL2 7780  32.623  19.964   1.834 -0.2921 -0.0917 -0.1373
  325BOLB   C1A 7781  33.062  19.770   1.705 -0.2153 -0.1556  0.1930
  325BOLB   C2A 7782  33.035  19.375   1.957 -0.0807  0.1885  0.2214
  325BOLB   C3A 7783  33.017  19.148   2.249  0.0107 -0.0393  0.0954
  325BOLB   C4A 7784  32.783  19.223   2.605 -0.2027 -0.3369 -0.1348
  325BOLB   C1B 7785  32.923  20.055   2.127 -0.0710  0.0773  0.0449
  325BOLB   C2B 7786  33.323  19.974   2.150 -0.0849  0.2111 -0.2554
  325BOLB   C3B 7787  33.590  19.928   2.491 -0.1803  0.1295  0.1329
  325BOLB   C4B 7788  33.611  19.636   2.751 -0.3387 -0.1496  0.4662
  325BOLB   NC2 7789  30.938  20.038   2.909  0.0943  0.1690  0.2824
  325BOLB   PO2 7790  30.639  19.741   3.237 -0.2099  0.2197  0.2998
  325BOLB   GL3 7791  31.121  19.703   3.237 -0.2829  0.0443 -0.2874
  325BOLB   GL4 7792  31.369  19.925   3.206  0.1807  0.1985  0.2134
  325BOLB   C1C 7793  31.629  19.518   3.308  0.2560  0.5753 -0.1432
  325BOLB   C2C 7794  32.045  19.272   3.446  0.3563  0.1002 -0.1891
  325BOLB   C3C 7795  32.361  19.113   3.130  0.0899  0.1926 -0.1101
  325BOLB   C4C 7796  32.511  19.135   2.797 -0.0096 -0.0502 -0.0189
  325BOLB   C1D 7797  31.798  20.049   3.163  0.1316  0.1700  0.2575
  325BOLB   C2D 7798  32.134  20.049   3.430  0.5808  0.1749  0.2328
  325BOLB   C3D 7799  32.517  19.942   3.729  0.4029 -0.2416 -0.0292
  325BOLB   C4D 7800  32.842  19.622   3.678 -0.0218  0.0826  0.2508
  326BOLB   NC1 7801  11.591  18.784  15.404  0.4488 -0.0634 -0.0242
  326BOLB   PO1 7802  11.987  18.997  15.647 -0.0157  0.0297  0.0739
  326BOLB   GL1 7803  12.269  18.664  15.959 -0.0855 -0.3499 -0.0614
  326BOLB   GL2 7804  12.637  18.560  15.858  0.2982  0.0536  0.2649
  326BOLB   C1A 7805  12.474  18.768  16.348  0.0268  0.2193 -0.0824
  326BOLB   C2A 7806  12.525  18.444  16.588 -0.0475 -0.3419  0.0221
  326BOLB   C3A 7807  12.586  18.159  16.954  0.1139  0.0760  0.2714
  326BOLB   C4A 7808  12.611  18.176  17.372  0.2195  0.1010  0.1657
  326BOLB   C1B 7809  12.868  18.482  16.226 -0.1637 -0.4610 -0.1706
  326BOLB   C2B 7810  13.051  18.433  16.615 -0.2005  0.3001  0.1632
  326BOLB   C3B 7811  13.474  18.700  16.821  0.1700 -0.0956 -0.1951
  326BOLB   C4B 7812  13.780  18.590  17.153  0.3013  0.2804 -0.2392
  326BOLB   NC2 7813  14.830  18.002  18.868 -0.1358  0.3124 -0.3615
  326BOLB   PO2 7814  14.484  17.933  18.962 -0.1610 -0.2149 -0.0438
  326BOLB   GL3 7815  14.081  17.932  18.770  0.0269  0.1546  0.2226
  326BOLB   GL4 7816  13.799  18.080  18.871  0.1646 -0.1213  0.2785
  326BOLB   C1C 7817  14.021  17.939  18.303  0.3151  0.0463 -0.0244
  326BOLB   C2C 7818  13.591  17.907  18.191 -0.1598  0.1858 -0.1805
  326BOLB   C3C 7819  13.282  18.133  18.038  0.1981 -0.2058  0.1490
  326BOLB   C4C 7820  12.861  17.967  17.757  0.1893  0.1428  0.2246
  326BOLB   C1D 7821  13.481  18.188  18.633  0.3105  0.0687 -0.0962
  326BOLB   C2D 7822  13.425  18.481  18.333  0.1064  0.0441  0.1897
  326BOLB   C3D 7823  13.290  18.796  18.036 -0.0078  0.1314  0.1446
  326BOLB   C4D 7824  13.116  19.122  17.777 -0.0693 -0.1027  0.5452
  327BOLB   NC1 7825  37.798  24.689   8.779  0.1603 -0.1378 -0.2416
  327BOLB   PO1 7826  37.837  24.872   8.459 -0.3497  0.0805 -0.3893
  327BOLB   GL1 7827  37.653  25.115   8.190  0.2456  0.1974  0.0063
  327BOLB   GL2 7828  37.549  25.331   8.445  0.1678  0.3341 -0.1118
  327BOLB   C1A 7829  37.417  25.376   7.962 -0.0747 -0.1976 -0.0314
  327BOLB   C2A 7830  36.959  25.542   7.907 -0.1957 -0.0524  0.1459
  327BOLB   C3A 7831  36.631  25.677   7.768  0.2114 -0.0011  0.0197
  327BOLB   C4A 7832  36.401  25.986   7.853  0.1804  0.1788  0.1809
  327BOLB   C1B 7833  37.150  25.502   8.466  0.1451  0.0274  0.3179
  327BOLB   C2B 7834  36.803  25.566   8.386  0.2944  0.0394  0.2557
  327BOLB   C3B 7835  36.594  25.884   8.297  0.1514  0.0913  0.5341
  327BOLB   C4B 7836  36.354  26.142   8.434  0.2606  0.4128 -0.2991
  327BOLB   NC2 7837  35.155  28.154   8.328  0.0125 -0.1759 -0.0175
  327BOLB   PO2 7838  35.178  27.981   7.830  0.2764  0.0820 -0.1368
  327BOLB   GL3 7839  35.537  27.768   8.005 -0.0131 -0.1293 -0.2451
  327BOLB   GL4 7840  35.819  27.850   7.801 -0.3650 -0.2228  0.2302
  327BOLB   C1C 7841  35.564  27.311   8.036 -0.0447 -0.1391  0.4125
  327BOLB   C2C 7842  35.763  26.950   7.931  0.0439 -0.2508  0.0145
  327BOLB   C3C 7843  36.162  26.837   7.779 -0.0687 -0.4206  0.3269
  327BOLB   C4C 7844  36.324  26.417   7.691  0.1794 -0.0130 -0.0947
  327BOLB   C1D 7845  35.974  27.461   7.742  0.0130  0.1692 -0.0934
  327BOLB   C2D 7846  36.125  27.220   8.149  0.2949  0.0280  0.2079
  327BOLB   C3D 7847  36.515  27.219   8.497  0.0597  0.1695 -0.0353
  327BOLB   C4D 7848  36.983  27.200   8.393  0.0085 -0.0194  0.0396
  328BOLB   NC1 7849  18.116  17.093   5.652  0.1527 -0.0595 -0.0504
  328BOLB   PO1 7850  18.121  17.116   5.231 -0.0722  0.3159 -0.0768
  328BOLB   GL1 7851  17.711  17.151   5.429  0.0917  0.2238 -0.0160
  328BOLB   GL2 7852  17.674  16.889   5.763 -0.1284  0.0388 -0.2258
  328BOLB   C1A 7853  17.543  17.391   5.671 -0.1922 -0.2667 -0.0031
  328BOLB   C2A 7854  17.236  17.740   5.473 -0.0536 -0.2054  0.2651
  328BOLB   C3A 7855  16.876  17.783   4.953  0.1488  0.2075 -0.2150
  328BOLB   C4A 7856  16.437  17.845   4.875 -0.4349 -0.1391 -0.0899
  328BOLB   C1B 7857  17.331  16.942   5.719  0.2021 -0.3025 -0.1134
  328BOLB   C2B 7858  17.042  17.288   5.809  0.1254 -0.0160  0.0929
  328BOLB   C3B 7859  16.629  17.238   6.059 -0.3913  0.1092 -0.3932
  328BOLB   C4B 7860  16.377  17.246   6.479 -0.0870 -0.3152  0.0007
  328BOLB   NC2 7861  14.263  18.361   5.649 -0.0475 -0.0879  0.1838
  328BOLB   PO2 7862  14.462  18.714   5.569  0.0551 -0.0940 -0.2508
  328BOLB   GL3 7863  14.718  18.655   5.727  0.0994 -0.0212 -0.2284
  328BOLB   GL4 7864  14.712  18.925   6.073 -0.2059  0.0174  0.0441
  328BOLB   C1C 7865  15.088  18.436   5.594 -0.5619  0.3246 -0.0682
  328BOLB   C2C 7866  15.359  18.186   5.279  0.1114 -0.2210 -0.1157
  328BOLB   C3C 7867  15.820  18.292   5.212  0.1943  0.3208  0.1120
  328BOLB   C4C 7868  16.078  18.129   4.944 -0.0697 -0.3686 -0.0144
  328BOLB   C1D 7869  15.163  18.757   6.062  0.3521 -0.0060  0.0010
  328BOLB   C2D 7870  15.568  18.781   6.105 -0.2412 -0.1349 -0.0066
  328BOLB   C3D 7871  15.833  18.516   6.263 -0.1170  0.0314 -0.3482
  328BOLB   C4D 7872  15.911  18.177   6.579  0.1863 -0.0327  0.2455
  329BOLB   NC1 7873   6.784  25.767  17.592  0.1676 -0.2256  0.0644
  329BOLB   PO1 7874   7.165  25.709  17.721 -0.1172 -0.0518  0.2475
  329BOLB   GL1 7875   7.047  25.869  18.022 -0.1296 -0.0363  0.0505
  329BOLB   GL2 7876   7.245  25.685  18.265 -0.3312 -0.0652 -0.2126
  329BOLB   C1A 7877   6.939  26.165  18.316  0.1359  0.0740 -0.2628
  329BOLB   C2A 7878   6.682  26.258  18.649 -0.0355 -0.2182  0.2257
  329BOLB   C3A 7879   6.714  26.314  19.072 -0.0426  0.0350 -0.1314
  329BOLB   C4A 7880   6.799  26.360  19.456  0.5811 -0.0224  0.1409
  329BOLB   C1B 7881   7.686  25.688  18.603 -0.1637 -0.2576 -0.1177
  329BOLB   C2B 7882   7.935  25.880  18.892  0.0442  0.4998 -0.4087
  329BOLB   C3B 7883   7.938  26.013  19.307  0.0830 -0.0720  0.2705
  329BOLB   C4B 7884   8.146  25.901  19.673 -0.1509  0.1007  0.3551
  329BOLB   NC2 7885   6.919  28.131  20.856  0.3703  0.2369  0.0208
  329BOLB   PO2 7886   6.692  27.799  21.104 -0.1050  0.2806 -0.1596
  329BOLB   GL3 7887   6.933  27.489  21.016  0.3707  0.4323  0.0638
  329BOLB   GL4 7888   6.845  27.208  21.196  0.4061  0.0819  0.3255
  329BOLB   C1C 7889   7.153  27.146  20.828 -0.1148  0.0551  0.5499
  329BOLB   C2C 7890   7.041  26.863  20.480 -0.0354 -0.1194  0.0648
  329BOLB   C3C 7891   7.026  26.634  20.156  0.3581  0.0971  0.1252
  329BOLB   C4C 7892   6.792  26.493  19.837  0.1269  0.1062  0.2248
  329BOLB   C1D 7893   7.015  26.697  21.025 -0.3566 -0.2179 -0.1065
  329BOLB   C2D 7894   7.333  26.512  20.690 -0.0149  0.0298 -0.1743
  329BOLB   C3D 7895   7.356  26.249  20.242 -0.3154  0.2672  0.1171
  329BOLB   C4D 7896   7.532  26.173  19.893  0.2955 -0.0997 -0.0879
  330BOLB   NC1 7897   4.791  20.785   3.059  0.0434 -0.1481  0.0704
  330BOLB   PO1 7898   4.584  21.094   2.810 -0.1240 -0.2156  0.0448
  330BOLB   GL1 7899   4.674  21.055   2.268 -0.1544 -0.1490  0.0119
  330BOLB   GL2 7900   4.453  21.018   2.138  0.2796  0.0210 -0.0917
  330BOLB   C1A 7901   4.840  20.924   1.788 -0.1469  0.3170  0.0147
  330BOLB   C2A 7902   4.916  20.915   1.362 -0.0235  0.0621  0.0264
  330BOLB   C3A 7903   4.955  21.085   0.925  0.2430  0.0948 -0.0295
  330BOLB   C4A 7904   4.879  21.221   0.459 -0.0604  0.0677 -0.2523
  330BOLB   C1B 7905   4.196  21.052   1.850  0.1622  0.1093 -0.1538
  330BOLB   C2B 7906   4.397  20.856   1.462 -0.1830 -0.0107 -0.0761
  330BOLB   C3B 7907   4.536  21.119   1.146  0.2558 -0.0683 -0.0220
  330BOLB   C4B 7908   4.380  21.132   0.769 -0.4659  0.3901 -0.1078
  330BOLB   NC2 7909   3.454  20.348  -1.530 -0.0255  0.2047  0.0525
  330BOLB   PO2 7910   3.843  20.616  -1.656 -0.1066  0.1610 -0.0970
  330BOLB   GL3 7911   4.082  20.649  -1.163  0.1022 -0.0870  0.1490
  330BOLB   GL4 7912   4.215  20.919  -0.893  0.1659 -0.0955  0.2563
  330BOLB   C1C 7913   4.197  20.383  -0.924  0.3396  0.0218  0.2379
  330BOLB   C2C 7914   4.151  20.499  -0.509  0.1802  0.1818  0.0846
  330BOLB   C3C 7915   4.296  20.847  -0.127  0.3598 -0.1244  0.1097
  330BOLB   C4C 7916   4.595  21.111   0.124  0.3718 -0.3664  0.1951
  330BOLB   C1D 7917   4.173  21.163  -0.524  0.2646 -0.2113  0.0169
  330BOLB   C2D 7918   4.493  21.424  -0.334  0.1002  0.0475 -0.1703
  330BOLB   C3D 7919   4.633  21.866  -0.289 -0.1742 -0.1840  0.2108
  330BOLB   C4D 7920   4.538  22.273  -0.210 -0.3319  0.0217 -0.0221
  331BOLB   NC1 7921   9.872  13.664   8.440  0.5211 -0.2024 -0.2432
  331BOLB   PO1 7922   9.849  13.759   8.992  0.1627 -0.2649  0.1595
  331BOLB   GL1 7923   9.894  13.304   8.862  0.2920  0.0111 -0.1163
  331BOLB   GL2 7924   9.664  13.091   9.008  0.3954 -0.1593 -0.4141
  331BOLB   C1A 7925  10.203  12.940   8.863  0.0087 -0.5603 -0.1040
  331BOLB   C2A 7926  10.492  12.883   8.686 -0.0490  0.2185  0.2013
  331BOLB   C3A 7927  10.776  12.709   8.545 -0.1114 -0.0730  0.0357
  331BOLB   C4A 7928  11.071  12.489   8.512 -0.1210 -0.0787 -0.2999
  331BOLB   C1B 7929   9.735  12.735   8.742  0.4435 -0.2660  0.3156
  331BOLB   C2B 7930   9.612  12.393   8.566  0.1188 -0.0694 -0.2086
  331BOLB   C3B 7931   9.860  12.194   8.190 -0.0913  0.3447  0.2053
  331BOLB   C4B 7932  10.244  11.942   8.124 -0.3185 -0.3007  0.2480
  331BOLB   NC2 7933  12.501  10.651   8.291  0.0743  0.0178  0.0734
  331BOLB   PO2 7934  12.784  10.938   8.268  0.0882  0.0071 -0.0532
  331BOLB   GL3 7935  12.488  11.236   8.517  0.1379  0.2466 -0.0639
  331BOLB   GL4 7936  12.187  11.046   8.697 -0.2374  0.0939 -0.0662
  331BOLB   C1C 7937  12.349  11.632   8.635 -0.3880  0.4901  0.4672
  331BOLB   C2C 7938  12.103  11.887   8.612  0.5605 -0.2549  0.1795
  331BOLB   C3C 7939  11.820  12.165   8.916 -0.0595 -0.2488  0.1689
  331BOLB   C4C 7940  11.434  12.266   8.808 -0.0476  0.2440 -0.1847
  331BOLB   C1D 7941  11.780  11.004   8.595  0.2375  0.0569 -0.0333
  331BOLB   C2D 7942  11.342  10.876   8.683  0.0970 -0.0110 -0.0844
  331BOLB   C3D 7943  10.993  10.836   8.948  0.0801 -0.1336 -0.0113
  331BOLB   C4D 7944  10.561  10.598   9.025  0.2065 -0.1720 -0.0501
  332BOLB   NC1 7945   5.221  13.845   6.776  0.0730 -0.0530 -0.0217
  332BOLB   PO1 7946   5.125  13.624   6.388  0.2397 -0.1877  0.0556
  332BOLB   GL1 7947   5.035  13.264   6.176 -0.0515  0.4286  0.2386
  332BOLB   GL2 7948   4.722  13.316   6.245 -0.0469 -0.1685 -0.1390
  332BOLB   C1A 7949   4.860  12.824   6.089 -0.1419  0.1033  0.0530
  332BOLB   C2A 7950   4.763  12.416   6.293  0.0363  0.1466  0.0070
  332BOLB   C3A 7951   4.947  12.110   6.445  0.3583  0.0116 -0.1769
  332BOLB   C4A 7952   4.999  11.602   6.352  0.2296 -0.2319  0.0422
  332BOLB   C1B 7953   4.571  13.128   5.912  0.1081  0.1265  0.1062
  332BOLB   C2B 7954   4.642  12.783   5.551  0.2634  0.2310 -0.4482
  332BOLB   C3B 7955   4.627  12.453   5.809  0.2045  0.0066 -0.1196
  332BOLB   C4B 7956   4.303  12.333   6.099  0.2865 -0.0308 -0.2455
  332BOLB   NC2 7957   5.844   9.654   4.519 -0.1754 -0.0007  0.4587
  332BOLB   PO2 7958   5.646   9.682   5.054 -0.0059 -0.1034 -0.2952
  332BOLB   GL3 7959   5.339   9.867   5.310  0.3006 -0.0462 -0.2538
  332BOLB   GL4 7960   5.260  10.151   5.149 -0.1430 -0.2373 -0.3301
  332BOLB   C1C 7961   5.211  10.094   5.706  0.0727 -0.0181 -0.1977
  332BOLB   C2C 7962   5.052  10.397   5.918  0.1617 -0.0570 -0.1042
  332BOLB   C3C 7963   5.011  10.679   6.158  0.1729 -0.2622  0.1524
  332BOLB   C4C 7964   4.894  11.121   6.264  0.1327  0.0967  0.3750
  332BOLB   C1D 7965   5.143  10.604   5.119 -0.0523 -0.2993 -0.0457
  332BOLB   C2D 7966   5.259  11.134   5.049  0.1055  0.3744 -0.2149
  332BOLB   C3D 7967   5.217  11.610   4.905  0.0942 -0.1873  0.0331
  332BOLB   C4D 7968   5.268  12.007   4.668 -0.2485 -0.1882  0.2059
  333BOLB   NC1 7969   3.832  28.271   9.294  0.2943  0.2385 -0.0517
  333BOLB   PO1 7970   4.132  28.522   9.169 -0.0063 -0.1731  0.0228
  333BOLB   GL1 7971   4.230  28.895   9.030 -0.2337 -0.1037 -0.0367
  333BOLB   GL2 7972   4.464  29.104   8.880 -0.2062 -0.0374  0.0531
  333BOLB   C1A 7973   4.008  29.196   9.039 -0.0158 -0.0491  0.0242
  333BOLB   C2A 7974   3.894  29.477   8.895  0.0181 -0.0279  0.0606
  333BOLB   C3A 7975   3.914  29.810   8.706  0.0122 -0.0310 -0.0179
  333BOLB   C4A 7976   3.668  30.096   8.770  0.0774 -0.0381 -0.0646
  333BOLB   C1B 7977   4.339  29.445   8.706  0.1733  0.3802  0.2268
  333BOLB   C2B 7978   4.399  29.902   8.632  0.2661  0.1378  0.0803
  333BOLB   C3B 7979   4.612  30.242   8.931  0.0705  0.4601  0.1468
  333BOLB   C4B 7980   4.484  30.570   9.193 -0.1626  0.1169 -0.1633
  333BOLB   NC2 7981   3.341  32.638   7.803 -0.0861 -0.2053 -0.1468
  333BOLB   PO2 7982   3.303  32.642   8.160 -0.4872  0.0265 -0.1570
  333BOLB   GL3 7983   3.241  32.098   8.189 -0.1581 -0.2507  0.2779
  333BOLB   GL4 7984   3.191  32.193   8.524  0.1803 -0.1917 -0.1439
  333BOLB   C1C 7985   3.282  31.636   8.117  0.1912  0.4497  0.2221
  333BOLB   C2C 7986   3.545  31.279   8.360  0.1529  0.6235  0.2180
  333BOLB   C3C 7987   3.575  30.882   8.464 -0.0804  0.0902 -0.2941
  333BOLB   C4C 7988   3.689  30.400   8.430  0.0211 -0.0988 -0.0967
  333BOLB   C1D 7989   3.345  31.899   8.643  0.3879  0.4994  0.1806
  333BOLB   C2D 7990   3.241  31.478   8.682  0.0889 -0.1031 -0.2511
  333BOLB   C3D 7991   3.435  31.081   8.941  0.1456  0.1630 -0.2000
  333BOLB   C4D 7992   3.688  30.700   8.986 -0.1243  0.1997  0.1257
  334BOLB   NC1 7993  12.386  22.826  16.154  0.1133 -0.1466  0.0148
  334BOLB   PO1 7994  12.687  22.566  16.284 -0.0696 -0.0879  0.2097
  334BOLB   GL1 7995  13.127  22.332  16.456 -0.3060 -0.0544 -0.2645
  334BOLB   GL2 7996  13.147  21.921  16.410  0.0717 -0.0883  0.2326
  334BOLB   C1A 7997  13.537  22.486  16.627 -0.0156  0.2614  0.2583
  334BOLB   C2A 7998  13.883  22.485  16.756  0.1899 -0.3850  0.0744
  334BOLB   C3A 7999  14.170  22.496  17.119  0.0933  0.0599  0.1212
  334BOLB   C4A 8000  14.409  22.274  17.300  0.0405 -0.0773 -0.1693
  334BOLB   C1B 8001  13.299  21.747  16.771  0.1628  0.1493  0.3727
  334BOLB   C2B 8002  13.369  21.588  17.098 -0.2705  0.1386 -0.0203
  334BOLB   C3B 8003  13.607  21.653  17.500  0.2990 -0.2416  0.4769
  334BOLB   C4B 8004  13.408  21.565  17.872  0.0427  0.1739 -0.1340
  334BOLB   NC2 8005  15.891  22.062  18.886  0.1910  0.4798 -0.1533
  334BOLB   PO2 8006  16.021  22.473  18.784 -0.0090  0.0617  0.0136
  334BOLB   GL3 8007  15.689  22.732  18.668 -0.1306 -0.0163  0.4153
  334BOLB   GL4 8008  15.453  22.582  18.805  0.1978 -0.1846  0.0848
  334BOLB   C1C 8009  15.396  22.790  18.315 -0.1664  0.0321 -0.1214
  334BOLB   C2C 8010  15.431  22.460  18.004  0.0023  0.1094 -0.0492
  334BOLB   C3C 8011  15.078  22.149  17.887  0.2067 -0.1239 -0.0896
  334BOLB   C4C 8012  14.733  22.056  17.625  0.0264 -0.2658 -0.2079
  334BOLB   C1D 8013  15.325  22.313  18.466 -0.1732 -0.2729 -0.1274
  334BOLB   C2D 8014  15.206  21.930  18.347  0.0038  0.1082  0.2268
  334BOLB   C3D 8015  15.026  21.616  18.123  0.3033  0.3509  0.1080
  334BOLB   C4D 8016  14.960  21.158  17.978 -0.0863 -0.1785 -0.0439
  335BOLB   NC1 8017   6.364  22.703  18.473  0.1087 -0.0217 -0.1632
  335BOLB   PO1 8018   6.503  23.056  18.218 -0.1795 -0.0799  0.0763
  335BOLB   GL1 8019   6.439  23.204  18.622  0.2201 -0.0521  0.0826
  335BOLB   GL2 8020   6.230  23.446  18.793 -0.1309 -0.0626  0.0869
  335BOLB   C1A 8021   6.515  23.135  19.077 -0.0876 -0.1159 -0.2363
  335BOLB   C2A 8022   6.518  23.068  19.536 -0.1035 -0.0517  0.0460
  335BOLB   C3A 8023   6.647  22.972  19.987 -0.0917 -0.0784 -0.0385
  335BOLB   C4A 8024   6.567  23.102  20.386  0.2656  0.1638 -0.1184
  335BOLB   C1B 8025   6.294  23.657  19.145  0.1950 -0.4462  0.1157
  335BOLB   C2B 8026   6.323  23.604  19.714 -0.1799 -0.2614 -0.2884
  335BOLB   C3B 8027   6.646  23.550  20.138  0.0363 -0.2188 -0.1963
  335BOLB   C4B 8028   6.965  23.631  20.552 -0.0454  0.0574 -0.1313
  335BOLB   NC2 8029   6.013  22.832  22.871 -0.2031  0.2177  0.0204
  335BOLB   PO2 8030   6.269  23.020  22.654 -0.0396  0.0911  0.0007
  335BOLB   GL3 8031   6.156  23.078  22.249  0.1970  0.0124  0.1288
  335BOLB   GL4 8032   6.311  23.342  22.123  0.0675 -0.1524  0.2497
  335BOLB   C1C 8033   6.073  22.956  21.808 -0.0137 -0.3873  0.2742
  335BOLB   C2C 8034   5.936  23.075  21.356  0.0069  0.2386  0.3151
  335BOLB   C3C 8035   5.854  23.167  20.836 -0.1115  0.0090  0.3094
  335BOLB   C4C 8036   6.049  23.165  20.470  0.0010 -0.1108 -0.1356
  335BOLB   C1D 8037   6.120  23.445  21.706  0.1751 -0.0778  0.0380
  335BOLB   C2D 8038   6.399  23.657  21.366 -0.1594 -0.1578 -0.0398
  335BOLB   C3D 8039   6.499  23.601  21.016 -0.1277  0.4693 -0.1584
  335BOLB   C4D 8040   6.303  23.484  20.723 -0.0150 -0.0375 -0.4289
  336BOLB   NC1 8041  11.378  26.008  15.075 -0.0368  0.1210  0.2225
  336BOLB   PO1 8042  11.576  26.205  14.789  0.2671 -0.0194  0.1272
  336BOLB   GL1 8043  11.763  26.476  14.943 -0.0337 -0.0641 -0.2401
  336BOLB   GL2 8044  11.876  26.326  15.155  0.1843 -0.0871 -0.1758
  336BOLB   C1A 8045  12.044  26.784  15.114  0.1494  0.2200  0.3266
  336BOLB   C2A 8046  12.229  27.036  15.305  0.2358  0.0771 -0.0860
  336BOLB   C3A 8047  12.375  27.101  15.690 -0.0494 -0.0926 -0.1311
  336BOLB   C4A 8048  12.579  27.451  16.038 -0.2308  0.2964 -0.1398
  336BOLB   C1B 8049  12.248  26.420  15.380 -0.7260  0.0230 -0.1006
  336BOLB   C2B 8050  12.661  26.707  15.542 -0.0148 -0.0224 -0.3906
  336BOLB   C3B 8051  12.694  26.904  16.099 -0.0665  0.2309  0.0670
  336BOLB   C4B 8052  12.582  26.772  16.516 -0.0332 -0.1577  0.0991
  336BOLB   NC2 8053  14.083  30.116  15.546  0.2638 -0.0472 -0.0721
  336BOLB   PO2 8054  14.068  29.657  15.618  0.2016  0.1750  0.1357
  336BOLB   GL3 8055  13.864  29.272  15.562 -0.0342  0.2227 -0.3707
  336BOLB   GL4 8056  13.783  29.269  15.240  0.1009  0.0219  0.0266
  336BOLB   C1C 8057  13.448  29.062  15.679 -0.2446  0.1569  0.1205
  336BOLB   C2C 8058  13.141  28.693  15.617 -0.0969  0.0005  0.1731
  336BOLB   C3C 8059  12.904  28.326  15.730  0.1172 -0.3158 -0.2453
  336BOLB   C4C 8060  12.786  27.862  15.780  0.0183  0.1032 -0.0006
  336BOLB   C1D 8061  13.361  29.334  15.153 -0.2497  0.1010 -0.1036
  336BOLB   C2D 8062  13.175  29.301  14.802 -0.3414  0.0834 -0.2802
  336BOLB   C3D 8063  12.994  29.358  14.454 -0.0024 -0.1731 -0.1560
  336BOLB   C4D 8064  12.912  29.660  14.132 -0.2044  0.1155 -0.3226
  337BOLB   NC1 8065  10.714  16.762  14.597  0.1345  0.0970 -0.0074
  337BOLB   PO1 8066  10.443  16.353  14.717  0.1011  0.4188 -0.1397
  337BOLB   GL1 8067  10.746  16.006  14.699 -0.3571 -0.0561 -0.0374
  337BOLB   GL2 8068  11.031  16.014  14.427 -0.1634 -0.0857 -0.0653
  337BOLB   C1A 8069  10.787  15.564  14.714  0.1259  0.0139  0.2900
  337BOLB   C2A 8070  11.012  15.299  14.389 -0.0195 -0.0194 -0.2826
  337BOLB   C3A 8071  11.136  14.791  14.364 -0.0140  0.0310  0.3294
  337BOLB   C4A 8072  11.414  14.414  14.520  0.2048  0.2111  0.0250
  337BOLB   C1B 8073  11.281  15.622  14.724  0.0402  0.0821  0.0103
  337BOLB   C2B 8074  11.384  15.153  14.819  0.2053 -0.2026  0.1674
  337BOLB   C3B 8075  11.573  14.928  15.186 -0.0483  0.1267 -0.1405
  337BOLB   C4B 8076  11.859  14.971  15.515 -0.1103  0.1883  0.2077
  337BOLB   NC2 8077  13.009  13.099  15.582 -0.0934 -0.1711 -0.0609
  337BOLB   PO2 8078  12.828  13.342  15.944  0.1541 -0.1943  0.2191
  337BOLB   GL3 8079  12.777  13.545  15.674  0.0049  0.2996 -0.1576
  337BOLB   GL4 8080  12.875  13.885  15.614  0.2704  0.1743  0.0180
  337BOLB   C1C 8081  12.407  13.730  15.429 -0.1316  0.0052  0.0793
  337BOLB   C2C 8082  12.092  13.866  15.041 -0.0057  0.0171 -0.1156
  337BOLB   C3C 8083  11.846  14.198  14.806  0.1541 -0.2799 -0.1471
  337BOLB   C4C 8084  11.724  14.271  14.442  0.0549 -0.1152 -0.2471
  337BOLB   C1D 8085  12.741  14.038  15.231  0.0102 -0.1300  0.1727
  337BOLB   C2D 8086  12.399  14.291  15.061 -0.0978 -0.1175 -0.2293
  337BOLB   C3D 8087  12.151  14.622  14.794 -0.1844 -0.0122 -0.0839
  337BOLB   C4D 8088  11.709  14.758  14.752  0.1399  0.3961 -0.2824
  338BOLB   NC1 8089  14.025  23.651  13.084  0.2332  0.0273 -0.0642
  338BOLB   PO1 8090  14.174  23.954  13.377  0.3995  0.1794  0.0544
  338BOLB   GL1 8091  14.540  24.150  13.349 -0.2614 -0.1568 -0.2887
  338BOLB   GL2 8092  14.638  23.966  13.569 -0.0839  0.1536 -0.0889
  338BOLB   C1A 8093  14.812  24.490  13.421 -0.0181 -0.0639 -0.0596
  338BOLB   C2A 8094  15.036  24.910  13.333  0.1570  0.1595  0.0699
  338BOLB   C3A 8095  15.084  25.288  13.552 -0.0142  0.3039 -0.0781
  338BOLB   C4A 8096  15.165  25.543  13.641 -0.1343 -0.0701 -0.1584
  338BOLB   C1B 8097  14.987  24.160  13.705  0.1662  0.0517 -0.0200
  338BOLB   C2B 8098  15.284  24.435  13.663  0.0367 -0.1531  0.0511
  338BOLB   C3B 8099  15.473  24.755  13.437 -0.0954  0.2538 -0.1039
  338BOLB   C4B 8100  15.970  24.749  13.355 -0.1005  0.2389 -0.2715
  338BOLB   NC2 8101  17.085  27.195  14.810  0.0263  0.2732  0.0833
  338BOLB   PO2 8102  16.748  26.903  14.916 -0.0468 -0.0083  0.2404
  338BOLB   GL3 8103  16.428  26.756  14.703 -0.2386 -0.1689 -0.1225
  338BOLB   GL4 8104  16.353  26.619  14.936 -0.0095 -0.0407 -0.2607
  338BOLB   C1C 8105  16.157  26.623  14.390 -0.2919 -0.1464 -0.3775
  338BOLB   C2C 8106  16.073  26.165  14.228  0.0406 -0.6149 -0.0962
  338BOLB   C3C 8107  15.740  25.898  14.089 -0.1024 -0.0896  0.1027
  338BOLB   C4C 8108  15.404  25.871  13.798  0.0177  0.4252  0.0479
  338BOLB   C1D 8109  15.922  26.704  14.866  0.3382 -0.1651 -0.2148
  338BOLB   C2D 8110  15.427  26.647  14.800 -0.1595  0.0461 -0.1359
  338BOLB   C3D 8111  15.054  26.473  14.602 -0.0467 -0.0049  0.3619
  338BOLB   C4D 8112  14.783  26.124  14.387 -0.3304 -0.1548  0.0492
  339BOLB   NC1 8113  11.160  24.609   4.204 -0.0341 -0.0142 -0.1554
  339BOLB   PO1 8114  10.821  24.264   4.097  0.1298  0.1860 -0.0493
  339BOLB   GL1 8115  10.773  24.569   3.854  0.2792  0.2346  0.0775
  339BOLB   GL2 8116  11.082  24.719   3.724 -0.0640 -0.1075 -0.3693
  339BOLB   C1A 8117  10.527  24.642   3.452  0.2063  0.0475 -0.1232
  339BOLB   C2A 8118  10.673  24.840   3.074  0.1228 -0.0761  0.2640
  339BOLB   C3A 8119  10.722  24.973   2.687  0.2488  0.1279 -0.3071
  339BOLB   C4A 8120  10.991  25.311   2.457  0.0927 -0.0492  0.0982
  339BOLB   C1B 8121  11.368  24.909   3.449 -0.0737  0.4790  0.3894
  339BOLB   C2B 8122  11.606  25.182   3.165 -0.4327  0.2181  0.4711
  339BOLB   C3B 8123  11.421  25.437   2.846  0.2271  0.0097 -0.0925
  339BOLB   C4B 8124  11.682  25.527   2.547  0.2182  0.0495  0.1093
  339BOLB   NC2 8125  11.246  25.377  -0.087  0.1677 -0.1085  0.2494
  339BOLB   PO2 8126  11.057  25.005   0.088  0.0864 -0.1474 -0.0054
  339BOLB   GL3 8127  11.001  25.037   0.513  0.0858  0.1768 -0.0855
  339BOLB   GL4 8128  10.713  25.337   0.561  0.1134 -0.0862  0.0151
  339BOLB   C1C 8129  11.264  24.961   0.834 -0.0740  0.1345  0.3117
  339BOLB   C2C 8130  11.338  25.145   1.264  0.0118  0.3738 -0.1780
  339BOLB   C3C 8131  11.219  25.545   1.637 -0.1598  0.5491  0.0378
  339BOLB   C4C 8132  11.125  25.559   2.044 -0.3507  0.2009  0.4042
  339BOLB   C1D 8133  10.422  25.022   0.725 -0.0986  0.0833  0.2342
  339BOLB   C2D 8134  10.217  24.733   0.946  0.0311 -0.0099  0.2029
  339BOLB   C3D 8135  10.206  24.392   1.249  0.5424 -0.0495  0.0744
  339BOLB   C4D 8136  10.513  24.131   1.486  0.5420 -0.0303  0.0234
  340BOLB   NC1 8137   5.661  28.727  13.153  0.1481  0.1580  0.0565
  340BOLB   PO1 8138   5.728  29.036  12.827  0.1617  0.1917 -0.3718
  340BOLB   GL1 8139   5.782  29.432  12.762 -0.0631 -0.3227  0.3076
  340BOLB   GL2 8140   5.601  29.468  12.456 -0.1376 -0.2408  0.1709
  340BOLB   C1A 8141   5.781  29.867  12.793  0.1631 -0.2346 -0.1988
  340BOLB   C2A 8142   5.494  30.163  12.785  0.1276  0.1768  0.2518
  340BOLB   C3A 8143   5.529  30.557  13.076  0.1279  0.2752  0.0074
  340BOLB   C4A 8144   5.453  31.048  13.160 -0.0462  0.2368 -0.1404
  340BOLB   C1B 8145   5.224  29.748  12.832 -0.1644 -0.0798  0.1450
  340BOLB   C2B 8146   4.883  30.071  12.882  0.0043  0.0608 -0.1303
  340BOLB   C3B 8147   4.523  30.432  12.796  0.0426  0.1021  0.4768
  340BOLB   C4B 8148   4.278  30.146  12.535 -0.2749  0.3539  0.2416
  340BOLB   NC2 8149   4.689  32.821  12.425  0.3066 -0.1304  0.2222
  340BOLB   PO2 8150   5.123  33.046  12.530 -0.1986 -0.0950  0.2512
  340BOLB   GL3 8151   5.247  32.598  12.496  0.1755 -0.0356 -0.3214
  340BOLB   GL4 8152   5.060  32.413  12.265 -0.2446 -0.1120  0.0332
  340BOLB   C1C 8153   5.127  32.268  12.804 -0.2262 -0.0514 -0.1335
  340BOLB   C2C 8154   5.080  32.146  13.189 -0.1551 -0.0434  0.2966
  340BOLB   C3C 8155   5.181  31.848  13.309 -0.0181 -0.0581  0.4099
  340BOLB   C4C 8156   5.424  31.490  13.223 -0.0312 -0.1465 -0.1567
  340BOLB   C1D 8157   4.711  32.180  11.956  0.0789 -0.0752  0.1471
  340BOLB   C2D 8158   4.279  32.005  11.910 -0.1308  0.1792  0.1643
  340BOLB   C3D 8159   3.930  31.997  11.909  0.1479 -0.0146  0.0177
  340BOLB   C4D 8160   3.734  31.771  12.158  0.0988 -0.0815 -0.1614
  341BOLB   NC1 8161  33.402  11.301  15.205 -0.0721 -0.1774 -0.0374
  341BOLB   PO1 8162  33.058  11.580  15.473 -0.1059 -0.2692 -0.1042
  341BOLB   GL1 8163  33.267  11.781  15.135  0.4624 -0.0955 -0.0931
  341BOLB   GL2 8164  33.580  11.751  15.168 -0.0012 -0.0308 -0.3181
  341BOLB   C1A 8165  33.394  12.131  14.802  0.1662  0.1023  0.0840
  341BOLB   C2A 8166  33.676  12.453  14.768  0.0026 -0.2451 -0.3883
  341BOLB   C3A 8167  33.842  12.627  14.506  0.2635 -0.0858  0.0539
  341BOLB   C4A 8168  33.636  12.716  14.033  0.1334  0.0238 -0.1608
  341BOLB   C1B 8169  33.943  12.090  15.136  0.0275 -0.0701 -0.2568
  341BOLB   C2B 8170  34.186  12.431  14.869  0.2353  0.1583 -0.0560
  341BOLB   C3B 8171  34.624  12.443  14.673  0.0001  0.4198  0.3161
  341BOLB   C4B 8172  34.583  12.911  14.632  0.0653 -0.1118 -0.1116
  341BOLB   NC2 8173  32.185  12.139  12.708  0.2725 -0.0948 -0.1740
  341BOLB   PO2 8174  31.940  11.971  12.986 -0.0284  0.0062  0.1031
  341BOLB   GL3 8175  32.293  12.398  13.108 -0.1314 -0.1424 -0.0846
  341BOLB   GL4 8176  32.506  12.248  13.364 -0.1904 -0.2097 -0.4967
  341BOLB   C1C 8177  32.308  12.801  13.283  0.0160 -0.0455 -0.2595
  341BOLB   C2C 8178  32.552  12.956  13.637  0.3201  0.1303 -0.0897
  341BOLB   C3C 8179  32.953  13.114  13.864 -0.0813  0.3282 -0.0154
  341BOLB   C4C 8180  33.191  12.877  14.020  0.0532 -0.2335 -0.0280
  341BOLB   C1D 8181  32.796  12.364  13.172 -0.0262  0.2694  0.2561
  341BOLB   C2D 8182  32.934  12.758  13.364 -0.0570 -0.1829 -0.1140
  341BOLB   C3D 8183  33.226  13.036  13.348 -0.2737  0.3868  0.3656
  341BOLB   C4D 8184  33.423  13.340  13.670 -0.2041  0.3990  0.0109
  342BOLB   NC1 8185   7.846  13.662  10.902 -0.0893  0.2620 -0.1457
  342BOLB   PO1 8186   7.744  13.513  11.295 -0.1247 -0.3624  0.0034
  342BOLB   GL1 8187   8.100  13.253  11.199  0.2136  0.0708 -0.1301
  342BOLB   GL2 8188   8.492  13.261  11.160  0.1320 -0.1573 -0.1014
  342BOLB   C1A 8189   8.154  12.881  11.193  0.0911  0.1017  0.4620
  342BOLB   C2A 8190   8.423  12.571  11.098  0.0206  0.1383  0.3117
  342BOLB   C3A 8191   8.801  12.500  11.145  0.1703  0.2410 -0.2030
  342BOLB   C4A 8192   9.081  12.268  11.401  0.0637  0.0032  0.2583
  342BOLB   C1B 8193   8.634  12.978  11.441  0.2478 -0.0035 -0.0622
  342BOLB   C2B 8194   8.475  12.606  11.593 -0.0585 -0.0893 -0.1868
  342BOLB   C3B 8195   8.464  12.246  11.897 -0.0836 -0.0864  0.0098
  342BOLB   C4B 8196   8.255  11.844  12.080 -0.1050  0.1949 -0.5204
  342BOLB   NC2 8197   9.835  10.238  13.323  0.2641 -0.1453  0.0702
  342BOLB   PO2 8198   9.911  10.453  12.863 -0.0684  0.1174 -0.1738
  342BOLB   GL3 8199   9.722  10.630  12.464  0.1049  0.1571  0.2633
  342BOLB   GL4 8200   9.337  10.627  12.414 -0.3537  0.1502 -0.3593
  342BOLB   C1C 8201   9.678  11.018  12.287 -0.0555 -0.2868 -0.0240
  342BOLB   C2C 8202   9.458  11.302  12.092  0.0276 -0.3247  0.0976
  342BOLB   C3C 8203   9.265  11.652  11.987 -0.3308 -0.0574  0.0895
  342BOLB   C4C 8204   9.296  11.944  11.648 -0.0810  0.1870 -0.4301
  342BOLB   C1D 8205   9.090  10.996  12.381 -0.3422  0.3149  0.1762
  342BOLB   C2D 8206   8.669  11.152  12.383  0.3573 -0.0502  0.0105
  342BOLB   C3D 8207   8.277  11.327  12.100 -0.3040  0.1791  0.2140
  342BOLB   C4D 8208   7.909  11.537  11.818  0.1340  0.1059 -0.2639
  343BOLB   NC1 8209  11.485  20.351   2.907 -0.1242 -0.1146  0.2898
  343BOLB   PO1 8210  11.395  20.709   2.635 -0.2337 -0.1460 -0.0576
  343BOLB   GL1 8211  11.622  20.491   2.374  0.2540  0.1282  0.0687
  343BOLB   GL2 8212  11.735  20.165   2.541 -0.3074  0.1106 -0.2625
  343BOLB   C1A 8213  11.619  20.197   2.004 -0.0899 -0.0125 -0.0760
  343BOLB   C2A 8214  11.767  20.108   1.556 -0.0010 -0.2401  0.0452
  343BOLB   C3A 8215  12.061  20.032   1.222 -0.0930  0.2384  0.0057
  343BOLB   C4A 8216  12.389  19.809   1.404  0.0069 -0.2360  0.1262
  343BOLB   C1B 8217  12.051  19.840   2.480  0.4050  0.0001  0.0502
  343BOLB   C2B 8218  12.444  19.878   2.358  0.2072  0.0847 -0.4728
  343BOLB   C3B 8219  12.637  20.184   2.130 -0.2289 -0.0480 -0.1170
  343BOLB   C4B 8220  12.883  20.292   1.877 -0.0722  0.3258  0.2362
  343BOLB   NC2 8221  14.264  19.793  -0.147  0.2337 -0.0045  0.0942
  343BOLB   PO2 8222  14.146  19.376  -0.182 -0.0816 -0.0180  0.1345
  343BOLB   GL3 8223  13.902  19.367   0.199 -0.1273 -0.0331 -0.2373
  343BOLB   GL4 8224  13.927  19.617   0.523 -0.2301  0.0513 -0.0300
  343BOLB   C1C 8225  13.550  19.358   0.483 -0.4090  0.1631  0.0712
  343BOLB   C2C 8226  13.308  19.332   0.688  0.1214 -0.0472  0.2181
  343BOLB   C3C 8227  13.111  19.572   0.827 -0.1161 -0.0162 -0.0729
  343BOLB   C4C 8228  12.808  19.598   1.184  0.0103  0.0542 -0.0315
  343BOLB   C1D 8229  14.193  19.625   0.858 -0.3002 -0.1308  0.1581
  343BOLB   C2D 8230  14.234  19.724   1.320  0.0659  0.1811 -0.2303
  343BOLB   C3D 8231  14.329  19.886   1.739 -0.1292 -0.3856 -0.2293
  343BOLB   C4D 8232  14.522  19.608   2.023  0.2195  0.1643 -0.1026
  344BOLB   NC1 8233   6.731  17.029   3.522 -0.0671 -0.0200  0.0572
  344BOLB   PO1 8234   6.361  16.995   3.150 -0.1410  0.0268  0.1024
  344BOLB   GL1 8235   6.385  16.750   2.773 -0.0840 -0.0855  0.1516
  344BOLB   GL2 8236   6.408  16.401   2.690 -0.2562  0.1597  0.0985
  344BOLB   C1A 8237   6.291  16.525   2.230 -0.0900 -0.0816  0.2640
  344BOLB   C2A 8238   6.317  16.464   1.757 -0.1722 -0.1536  0.2358
  344BOLB   C3A 8239   6.374  16.125   1.445  0.1926 -0.0986  0.0567
  344BOLB   C4A 8240   6.229  16.016   1.136  0.1315 -0.0194  0.2008
  344BOLB   C1B 8241   6.350  16.081   2.441 -0.1916  0.1376 -0.3425
  344BOLB   C2B 8242   6.278  15.937   2.069 -0.5107  0.1348 -0.1238
  344BOLB   C3B 8243   6.233  15.763   1.668  0.2881  0.2082  0.4364
  344BOLB   C4B 8244   6.525  15.682   1.347 -0.2807 -0.0209 -0.2311
  344BOLB   NC2 8245   6.694  13.807  -0.137  0.1109 -0.1376 -0.0814
  344BOLB   PO2 8246   6.258  13.750   0.014 -0.1547 -0.2410 -0.1253
  344BOLB   GL3 8247   6.421  14.080   0.346 -0.2300  0.3933 -0.1247
  344BOLB   GL4 8248   6.645  14.185   0.286 -0.1187  0.1620 -0.2232
  344BOLB   C1C 8249   6.202  14.406   0.478 -0.2009  0.1074 -0.1423
  344BOLB   C2C 8250   6.094  14.848   0.659  0.0040  0.2103 -0.0869
  344BOLB   C3C 8251   6.123  15.335   0.694  0.1622 -0.2450  0.0266
  344BOLB   C4C 8252   6.144  15.629   0.959  0.0997  0.3367  0.3428
  344BOLB   C1D 8253   6.933  14.336   0.603  0.1537  0.1944 -0.0619
  344BOLB   C2D 8254   6.919  14.420   1.027  0.0610  0.3142  0.1516
  344BOLB   C3D 8255   6.534  14.371   1.418  0.3364  0.0753  0.1343
  344BOLB   C4D 8256   6.402  14.331   1.861  0.2676  0.2946 -0.0190
  345BOLB   NC1 8257   6.243  27.074   4.974  0.2296 -0.1918  0.1351
  345BOLB   PO1 8258   6.502  27.307   4.767  0.0735 -0.0120 -0.0013
  345BOLB   GL1 8259   6.500  27.373   4.444  0.1816 -0.0950  0.4693
  345BOLB   GL2 8260   6.483  27.731   4.526 -0.1066 -0.1919 -0.0814
  345BOLB   C1A 8261   6.538  27.519   4.078  0.1657  0.2118 -0.0118
  345BOLB   C2A 8262   6.908  27.563   3.891  0.0695 -0.1400 -0.0217
  345BOLB   C3A 8263   6.975  27.651   3.453  0.1682  0.1314  0.3943
  345BOLB   C4A 8264   6.740  27.682   3.116 -0.1107 -0.0779  0.2550
  345BOLB   C1B 8265   6.447  28.054   4.134 -0.3230  0.2898  0.1105
  345BOLB   C2B 8266   6.402  28.278   3.863 -0.2059 -0.1899  0.2233
  345BOLB   C3B 8267   6.298  28.792   3.804  0.1747  0.1066 -0.1247
  345BOLB   C4B 8268   6.049  29.157   3.692 -0.0368 -0.1714  0.0238
  345BOLB   NC2 8269   7.138  29.992   2.401 -0.0670  0.2219  0.0690
  345BOLB   PO2 8270   6.969  29.720   2.127 -0.1857 -0.0185 -0.1669
  345BOLB   GL3 8271   6.932  29.423   2.338  0.1420 -0.0742 -0.0368
  345BOLB   GL4 8272   7.037  29.365   2.664 -0.0017 -0.1246 -0.1298
  345BOLB   C1C 8273   6.782  29.008   2.353  0.3719  0.3729 -0.1804
  345BOLB   C2C 8274   6.779  28.618   2.499  0.1287  0.0766 -0.0107
  345BOLB   C3C 8275   6.725  28.396   2.721 -0.1104  0.0949 -0.3246
  345BOLB   C4C 8276   6.620  28.072   2.884  0.0206  0.3764  0.0717
  345BOLB   C1D 8277   7.054  29.377   3.065 -0.1448 -0.1950  0.3896
  345BOLB   C2D 8278   7.201  29.201   3.513  0.3703  0.0945  0.0681
  345BOLB   C3D 8279   7.310  28.990   3.877 -0.1417  0.1541 -0.1181
  345BOLB   C4D 8280   7.489  29.137   4.312 -0.1640  0.0661  0.0258
  346BOLB   NC1 8281   6.157  28.085   6.305 -0.0993 -0.2572 -0.2607
  346BOLB   PO1 8282   5.747  27.986   6.285  0.1812  0.0859  0.3598
  346BOLB   GL1 8283   5.668  28.301   6.124  0.1245 -0.3122  0.0148
  346BOLB   GL2 8284   5.338  28.288   6.113 -0.0661  0.0557 -0.0581
  346BOLB   C1A 8285   5.815  28.621   5.921  0.1689 -0.1848  0.1452
  346BOLB   C2A 8286   5.861  28.803   5.462 -0.4178  0.0234 -0.0949
  346BOLB   C3A 8287   6.096  28.902   5.061 -0.0882 -0.1529 -0.1165
  346BOLB   C4A 8288   6.153  29.311   4.746 -0.0565  0.0064 -0.2790
  346BOLB   C1B 8289   5.320  28.657   5.901 -0.0016 -0.0047 -0.1194
  346BOLB   C2B 8290   5.360  28.938   5.480  0.4092 -0.1945 -0.1719
  346BOLB   C3B 8291   5.471  29.038   5.013 -0.1036  0.3707  0.1257
  346BOLB   C4B 8292   5.554  29.115   4.641  0.2199 -0.1254 -0.1343
  346BOLB   NC2 8293   6.783  31.018   3.536 -0.1263 -0.0684 -0.2588
  346BOLB   PO2 8294   6.399  31.086   3.393 -0.2290 -0.1826  0.3563
  346BOLB   GL3 8295   6.302  30.964   3.799  0.1219 -0.0266 -0.4549
  346BOLB   GL4 8296   5.948  31.066   3.817 -0.0795 -0.2137 -0.4355
  346BOLB   C1C 8297   6.125  30.549   3.931 -0.1487  0.0984 -0.1233
  346BOLB   C2C 8298   6.002  30.195   4.093  0.1145  0.0696 -0.1379
  346BOLB   C3C 8299   6.112  30.034   4.440 -0.3794 -0.1278 -0.0112
  346BOLB   C4C 8300   6.163  29.716   4.704 -0.0298  0.1547 -0.2623
  346BOLB   C1D 8301   5.664  30.704   3.756  0.1647  0.0914  0.0157
  346BOLB   C2D 8302   5.577  30.348   3.959  0.1736 -0.1758 -0.0216
  346BOLB   C3D 8303   5.638  29.894   4.265 -0.1375 -0.1218  0.2327
  346BOLB   C4D 8304   5.516  29.608   4.440 -0.2192 -0.2368  0.1142
  347BOLB   NC1 8305  10.715  19.945  17.759 -0.0967  0.0670  0.0278
  347BOLB   PO1 8306  10.947  20.181  17.494 -0.1410 -0.1997  0.1237
  347BOLB   GL1 8307  11.242  19.905  17.871 -0.1424 -0.1436  0.1832
  347BOLB   GL2 8308  11.409  19.540  17.835  0.2556  0.2274  0.2768
  347BOLB   C1A 8309  11.143  19.975  18.265 -0.0626  0.1501  0.0187
  347BOLB   C2A 8310  11.090  19.536  18.528 -0.2565  0.0154  0.0605
  347BOLB   C3A 8311  10.982  19.343  18.984 -0.1137 -0.2681 -0.0240
  347BOLB   C4A 8312  10.921  18.966  19.243 -0.3009 -0.2151  0.0999
  347BOLB   C1B 8313  11.490  19.687  18.318 -0.3181  0.1845  0.1462
  347BOLB   C2B 8314  11.698  19.908  18.580  0.2885  0.1841 -0.2266
  347BOLB   C3B 8315  11.929  19.818  18.935 -0.1193  0.0488 -0.3114
  347BOLB   C4B 8316  12.089  20.131  19.173 -0.1635  0.0701  0.1529
  347BOLB   NC2 8317  11.852  17.752  20.922 -0.1593  0.3423 -0.2092
  347BOLB   PO2 8318  12.239  17.613  20.662 -0.0538  0.2828 -0.0618
  347BOLB   GL3 8319  12.015  17.837  20.379  0.0772 -0.1652  0.0757
  347BOLB   GL4 8320  12.283  18.059  20.274 -0.2767 -0.2899  0.0284
  347BOLB   C1C 8321  11.665  17.699  20.129  0.2208 -0.0723  0.1358
  347BOLB   C2C 8322  11.413  18.076  19.973  0.0130 -0.0473 -0.4123
  347BOLB   C3C 8323  11.322  18.448  19.769  0.1000  0.0786  0.2785
  347BOLB   C4C 8324  11.137  18.814  19.507 -0.1785 -0.0651  0.3264
  347BOLB   C1D 8325  12.207  17.753  19.956  0.2002 -0.1346 -0.0087
  347BOLB   C2D 8326  11.909  17.765  19.584 -0.0836 -0.2613  0.3201
  347BOLB   C3D 8327  11.780  17.969  19.196  0.0693 -0.0740  0.1917
  347BOLB   C4D 8328  11.370  18.071  18.899 -0.1379 -0.0316  0.1006
  348BOLB   NC1 8329   6.209  13.458  13.219  0.1808 -0.1092 -0.0843
  348BOLB   PO1 8330   5.881  13.670  12.971  0.1499  0.0642  0.0458
  348BOLB   GL1 8331   5.786  13.221  13.039  0.2330 -0.0493 -0.1449
  348BOLB   GL2 8332   5.942  13.065  13.373  0.0796 -0.2179 -0.4248
  348BOLB   C1A 8333   5.459  12.937  13.094 -0.3390  0.2207 -0.0217
  348BOLB   C2A 8334   5.147  12.794  13.478  0.2023 -0.1478 -0.1498
  348BOLB   C3A 8335   4.918  12.401  13.492 -0.0445 -0.0308 -0.0458
  348BOLB   C4A 8336   4.919  12.039  13.693 -0.1609 -0.1950 -0.1162
  348BOLB   C1B 8337   5.765  12.689  13.363 -0.0403  0.1218  0.2905
  348BOLB   C2B 8338   5.479  12.485  13.684  0.1630 -0.0301 -0.0502
  348BOLB   C3B 8339   5.493  12.032  13.856  0.0533 -0.0040 -0.2313
  348BOLB   C4B 8340   5.703  11.655  13.861 -0.0376 -0.2074  0.2563
  348BOLB   NC2 8341   5.621   9.569  14.479  0.1975  0.0587 -0.0266
  348BOLB   PO2 8342   5.678   9.989  14.509 -0.2498  0.0799  0.1314
  348BOLB   GL3 8343   5.493  10.275  14.359 -0.0282 -0.3638  0.0204
  348BOLB   GL4 8344   5.299  10.349  14.646 -0.2996 -0.1017 -0.2890
  348BOLB   C1C 8345   5.549  10.592  14.230  0.4473  0.3168  0.0338
  348BOLB   C2C 8346   5.235  10.918  14.111 -0.1165  0.2037  0.4244
  348BOLB   C3C 8347   5.324  11.368  14.213  0.0105  0.1986  0.1094
  348BOLB   C4C 8348   5.101  11.716  14.018  0.0141 -0.0060 -0.0252
  348BOLB   C1D 8349   5.068  10.478  14.405  0.0345 -0.0960 -0.1885
  348BOLB   C2D 8350   4.803  10.733  14.049 -0.0335 -0.2623 -0.0048
  348BOLB   C3D 8351   4.434  11.059  14.047 -0.0011 -0.1908  0.0336
  348BOLB   C4D 8352   4.012  11.297  14.086  0.0821 -0.0499 -0.1466
  349BOLB   NC1 8353   2.036  22.148  25.006 -0.1031  0.0213 -0.2672
  349BOLB   PO1 8354   2.311  21.863  25.248 -0.0912 -0.2842  0.2385
  349BOLB   GL1 8355   2.514  21.650  25.629  0.0617  0.0418  0.0415
  349BOLB   GL2 8356   2.456  21.265  25.608 -0.0604 -0.3751  0.0929
  349BOLB   C1A 8357   2.501  21.507  26.051  0.1382 -0.1728 -0.0591
  349BOLB   C2A 8358   2.683  21.297  26.283 -0.3329 -0.0548 -0.0031
  349BOLB   C3A 8359   3.039  21.177  26.630  0.1647 -0.2759 -0.2005
  349BOLB   C4A 8360   3.303  21.084  26.970 -0.1046 -0.0873  0.2532
  349BOLB   C1B 8361   2.757  20.899  25.853  0.2800 -0.1694  0.3441
  349BOLB   C2B 8362   3.101  20.915  26.191 -0.2488 -0.1101  0.1633
  349BOLB   C3B 8363   3.407  20.779  26.467 -0.0454  0.3619  0.0801
  349BOLB   C4B 8364   3.601  20.604  26.818  0.1824 -0.0080 -0.1181
  349BOLB   NC2 8365   3.858  22.018  29.437  0.0063  0.0566 -0.0442
  349BOLB   PO2 8366   4.106  21.926  29.049  0.0280 -0.1526  0.3854
  349BOLB   GL3 8367   4.097  21.808  28.700  0.1380 -0.0579  0.0104
  349BOLB   GL4 8368   4.157  21.514  28.686 -0.0461  0.2590 -0.1677
  349BOLB   C1C 8369   4.091  21.723  28.245  0.0015  0.0536 -0.3182
  349BOLB   C2C 8370   3.855  21.820  28.001 -0.0742  0.1535 -0.2925
  349BOLB   C3C 8371   3.602  21.563  27.641 -0.1575  0.3381  0.1373
  349BOLB   C4C 8372   3.636  21.284  27.276  0.1199 -0.0332  0.1368
  349BOLB   C1D 8373   3.809  21.321  28.507 -0.0484 -0.1494  0.1554
  349BOLB   C2D 8374   3.767  21.222  27.987 -0.3055  0.0636  0.2127
  349BOLB   C3D 8375   3.972  21.008  27.628  0.1874  0.1127 -0.0175
  349BOLB   C4D 8376   4.159  20.682  27.391 -0.2308 -0.0101 -0.1985
  350BOLB   NC1 8377   2.984  28.200   9.075  0.2345 -0.1975 -0.0285
  350BOLB   PO1 8378   2.782  27.886   8.822 -0.1816 -0.1106  0.1717
  350BOLB   GL1 8379   2.692  28.269   8.625  0.1244 -0.2179 -0.2149
  350BOLB   GL2 8380   2.844  28.576   8.721 -0.1326 -0.1822 -0.2418
  350BOLB   C1A 8381   2.512  28.415   8.195  0.2561 -0.0126  0.0361
  350BOLB   C2A 8382   2.292  28.718   7.866 -0.0708 -0.0003  0.2847
  350BOLB   C3A 8383   2.268  29.207   7.857  0.3559 -0.0324  0.0029
  350BOLB   C4A 8384   2.201  29.577   8.021  0.1167 -0.2590  0.2869
  350BOLB   C1B 8385   2.698  28.982   8.508 -0.2375  0.1452 -0.0537
  350BOLB   C2B 8386   2.607  29.437   8.370  0.0226  0.1512 -0.4432
  350BOLB   C3B 8387   2.513  29.852   8.362  0.2193 -0.1465  0.3123
  350BOLB   C4B 8388   2.583  30.184   8.323  0.1335  0.0496  0.1427
  350BOLB   NC2 8389   0.929  31.900   8.140 -0.2189  0.0970  0.0820
  350BOLB   PO2 8390   1.067  31.867   7.709 -0.1300  0.1906  0.1699
  350BOLB   GL3 8391   1.369  31.610   7.805  0.3540  0.2509 -0.0356
  350BOLB   GL4 8392   1.304  31.541   8.014 -0.0450 -0.0077 -0.2252
  350BOLB   C1C 8393   1.507  31.231   7.699 -0.1074  0.1643 -0.2023
  350BOLB   C2C 8394   1.698  30.901   7.909 -0.1102  0.1365 -0.1002
  350BOLB   C3C 8395   1.856  30.474   8.004  0.0401 -0.0898 -0.1465
  350BOLB   C4C 8396   2.048  30.037   8.184  0.0449 -0.2524  0.0029
  350BOLB   C1D 8397   1.183  31.131   8.032 -0.2912 -0.0359  0.0637
  350BOLB   C2D 8398   1.262  30.816   7.669  0.1554  0.1721 -0.1521
  350BOLB   C3D 8399   1.621  30.471   7.555  0.3218  0.4115  0.1160
  350BOLB   C4D 8400   1.988  30.297   7.480 -0.4146 -0.0214  0.0658
  351BOLB   NC1 8401  10.607  27.266   7.761  0.1329 -0.0034  0.0982
  351BOLB   PO1 8402  10.873  27.213   7.456  0.4075 -0.1845 -0.4005
  351BOLB   GL1 8403  10.999  27.576   7.142 -0.2554 -0.1551 -0.0173
  351BOLB   GL2 8404  11.329  27.475   6.999 -0.0568 -0.2332 -0.0784
  351BOLB   C1A 8405  10.978  27.908   6.844 -0.1321  0.1291 -0.2333
  351BOLB   C2A 8406  11.362  28.046   6.498  0.0401 -0.0243 -0.1448
  351BOLB   C3A 8407  11.503  28.315   6.172  0.2218  0.2238 -0.2507
  351BOLB   C4A 8408  11.505  28.730   6.135  0.1362  0.3258  0.1130
  351BOLB   C1B 8409  11.717  27.448   6.780  0.0069  0.2922  0.0604
  351BOLB   C2B 8410  12.049  27.659   6.708 -0.1268 -0.5435  0.2774
  351BOLB   C3B 8411  12.409  27.591   6.771  0.2387  0.0411 -0.2356
  351BOLB   C4B 8412  12.696  27.268   6.884  0.1046  0.1695 -0.0207
  351BOLB   NC2 8413  11.871  30.124   4.600  0.3917 -0.1584 -0.4637
  351BOLB   PO2 8414  12.300  30.141   4.575 -0.1065  0.0223  0.1567
  351BOLB   GL3 8415  12.306  29.812   4.857 -0.0032  0.0384  0.0029
  351BOLB   GL4 8416  11.996  29.751   4.905  0.1714 -0.2265 -0.1451
  351BOLB   C1C 8417  12.276  29.419   5.111 -0.3222 -0.1269 -0.2205
  351BOLB   C2C 8418  12.173  29.254   5.570 -0.0084  0.0264 -0.2384
  351BOLB   C3C 8419  12.190  29.038   5.905  0.2277  0.1501 -0.1509
  351BOLB   C4C 8420  11.920  28.869   6.056 -0.0527 -0.1786 -0.2859
  351BOLB   C1D 8421  11.750  29.594   5.058  0.0355 -0.1543 -0.1499
  351BOLB   C2D 8422  11.281  29.678   5.225 -0.0755 -0.2363  0.0468
  351BOLB   C3D 8423  11.224  30.002   5.537 -0.0178  0.0722  0.1848
  351BOLB   C4D 8424  11.316  30.344   5.706 -0.0256 -0.1322  0.1823
  352BOLB   NC1 8425  36.624  27.229  16.835  0.5001 -0.0391 -0.0847
  352BOLB   PO1 8426  36.512  27.244  16.402 -0.2861 -0.0551  0.2154
  352BOLB   GL1 8427  36.836  27.122  16.264  0.0836  0.0022  0.0264
  352BOLB   GL2 8428  37.046  26.866  16.441 -0.2073 -0.2427  0.0413
  352BOLB   C1A 8429  37.274  27.267  16.241 -0.0674 -0.0298  0.1293
  352BOLB   C2A 8430  37.590  27.458  15.906 -0.1448 -0.2175  0.0109
  352BOLB   C3A 8431  37.996  27.614  15.707  0.0009 -0.1700 -0.1884
  352BOLB   C4A 8432  38.442  27.487  15.678  0.1332  0.0743  0.3574
  352BOLB   C1B 8433  37.331  26.762  16.016  0.1991  0.2065 -0.0017
  352BOLB   C2B 8434  37.535  26.992  15.696 -0.0916  0.0042 -0.1962
  352BOLB   C3B 8435  37.589  27.314  15.421 -0.0882  0.3866  0.1959
  352BOLB   C4B 8436  37.782  27.670  15.240 -0.0742 -0.0037  0.0629
  352BOLB   NC2 8437  38.297  29.446  16.570  0.0420 -0.1089  0.0116
  352BOLB   PO2 8438  38.683  29.332  16.906  0.2278  0.2966 -0.1634
  352BOLB   GL3 8439  38.775  28.900  16.925  0.0258  0.4033  0.0764
  352BOLB   GL4 8440  39.147  29.022  16.849 -0.1854  0.1080  0.0579
  352BOLB   C1C 8441  38.732  28.504  16.926 -0.2286 -0.1145  0.3782
  352BOLB   C2C 8442  38.709  28.208  16.654  0.1955  0.2712 -0.2877
  352BOLB   C3C 8443  38.710  27.963  16.329 -0.0806 -0.2129  0.2540
  352BOLB   C4C 8444  38.799  27.746  15.938 -0.0336  0.2329  0.1257
  352BOLB   C1D 8445  38.982  28.680  16.519 -0.0489  0.1002 -0.1865
  352BOLB   C2D 8446  39.104  28.386  16.290  0.3851  0.0844  0.1481
  352BOLB   C3D 8447  39.215  27.976  16.169 -0.0535  0.2771  0.4196
  352BOLB   C4D 8448  39.234  27.914  15.750 -0.0098  0.1675  0.0271
  353BOLB   NC1 8449  10.666  24.516  17.278  0.1338  0.0501 -0.1716
  353BOLB   PO1 8450  10.362  24.614  17.594  0.3504  0.0225  0.0524
  353BOLB   GL1 8451  10.723  24.749  17.776  0.0861  0.0795  0.1448
  353BOLB   GL2 8452  10.824  25.106  17.834  0.2319  0.1538 -0.0005
  353BOLB   C1A 8453  11.023  24.711  18.050  0.1151  0.0041  0.2244
  353BOLB   C2A 8454  11.423  24.677  18.182 -0.0330 -0.0820  0.2082
  353BOLB   C3A 8455  11.799  24.643  18.273  0.1728  0.1839 -0.0648
  353BOLB   C4A 8456  12.109  24.835  18.464 -0.1026  0.1724  0.1940
  353BOLB   C1B 8457  10.950  25.178  18.277 -0.1729 -0.0453  0.0165
  353BOLB   C2B 8458  11.085  25.107  18.750  0.0714 -0.1343  0.0411
  353BOLB   C3B 8459  11.051  24.939  19.177  0.1415 -0.1747  0.2027
  353BOLB   C4B 8460  10.808  25.029  19.506 -0.2609 -0.2222  0.1140
  353BOLB   NC2 8461  14.314  24.967  19.423 -0.1912 -0.1614  0.2298
  353BOLB   PO2 8462  13.984  25.212  19.412  0.1777  0.1307  0.0085
  353BOLB   GL3 8463  13.902  24.979  19.095 -0.2076 -0.1372 -0.4161
  353BOLB   GL4 8464  14.138  24.795  18.976  0.0549 -0.1403 -0.1176
  353BOLB   C1C 8465  13.555  24.926  18.923  0.0595  0.1605 -0.0339
  353BOLB   C2C 8466  13.189  25.142  18.875 -0.1230 -0.0144 -0.2489
  353BOLB   C3C 8467  12.864  25.064  18.641  0.1365 -0.1362  0.3687
  353BOLB   C4C 8468  12.465  24.926  18.553  0.2916 -0.4077 -0.1178
  353BOLB   C1D 8469  13.914  24.504  18.736 -0.0848  0.0085 -0.2068
  353BOLB   C2D 8470  13.710  24.275  18.527  0.2582  0.2258 -0.1900
  353BOLB   C3D 8471  13.503  23.982  18.196 -0.0541 -0.1275 -0.2033
  353BOLB   C4D 8472  13.199  23.948  17.968 -0.1076 -0.0599  0.1501
  354BOLB   NC1 8473   7.329  15.931  15.275 -0.1019 -0.2766 -0.0091
  354BOLB   PO1 8474   7.059  15.676  15.628 -0.0573  0.1737  0.5843
  354BOLB   GL1 8475   6.898  15.247  15.732 -0.2246  0.1431 -0.0905
  354BOLB   GL2 8476   6.908  15.476  16.031  0.0916  0.1069  0.2176
  354BOLB   C1A 8477   6.987  14.837  15.992 -0.0700  0.1271 -0.0971
  354BOLB   C2A 8478   6.960  14.436  16.274 -0.1293 -0.0630 -0.2404
  354BOLB   C3A 8479   6.972  13.970  16.305  0.1111  0.0420  0.2951
  354BOLB   C4A 8480   7.075  13.734  16.574  0.2950 -0.0306 -0.1798
  354BOLB   C1B 8481   7.049  15.151  16.405 -0.0913  0.1724 -0.0036
  354BOLB   C2B 8482   7.274  14.832  16.591 -0.1035 -0.2220  0.2921
  354BOLB   C3B 8483   7.547  14.621  16.850 -0.0320  0.0621  0.3303
  354BOLB   C4B 8484   7.599  14.367  17.200  0.1906  0.0216  0.0650
  354BOLB   NC2 8485   6.641  11.726  17.322  0.4019  0.0294 -0.1610
  354BOLB   PO2 8486   6.929  11.382  17.475  0.0359  0.2424 -0.2115
  354BOLB   GL3 8487   7.136  11.867  17.237  0.1199  0.0501  0.5477
  354BOLB   GL4 8488   6.961  11.846  16.855 -0.0975  0.0823  0.1337
  354BOLB   C1C 8489   6.999  12.237  17.167 -0.1417  0.3970 -0.1949
  354BOLB   C2C 8490   6.956  12.646  17.234  0.0042  0.0108 -0.0532
  354BOLB   C3C 8491   6.938  13.097  17.156  0.4375  0.0759 -0.0503
  354BOLB   C4C 8492   6.921  13.417  16.773  0.1356  0.4096 -0.2232
  354BOLB   C1D 8493   7.390  12.106  16.797  0.0290  0.0833 -0.2427
  354BOLB   C2D 8494   7.447  12.237  16.415 -0.1018  0.2740  0.3047
  354BOLB   C3D 8495   7.612  12.537  16.247  0.0285  0.1299 -0.0345
  354BOLB   C4D 8496   7.644  13.095  16.203  0.0748  0.0690 -0.1079
  355BOLB   NC1 8497   3.186  21.449  17.508  0.0981 -0.1477 -0.1462
  355BOLB   PO1 8498   3.045  21.242  17.843 -0.1125  0.0425  0.1038
  355BOLB   GL1 8499   2.771  21.398  18.181  0.0884 -0.1604  0.0386
  355BOLB   GL2 8500   2.462  21.524  18.064  0.1658 -0.0685 -0.0029
  355BOLB   C1A 8501   2.652  21.475  18.613  0.4002  0.2053  0.0457
  355BOLB   C2A 8502   2.739  21.433  19.066 -0.1306 -0.0346 -0.0954
  355BOLB   C3A 8503   2.968  21.128  19.336  0.1680 -0.1558 -0.3837
  355BOLB   C4A 8504   3.052  20.839  19.712 -0.1060 -0.0304  0.0799
  355BOLB   C1B 8505   2.342  21.094  18.307 -0.1499  0.0888 -0.0531
  355BOLB   C2B 8506   2.024  21.070  18.594 -0.3602  0.0140  0.0272
  355BOLB   C3B 8507   1.866  20.940  18.946 -0.0906  0.0486  0.1108
  355BOLB   C4B 8508   1.631  20.788  19.344  0.2512 -0.0373  0.3048
  355BOLB   NC2 8509   2.483  20.274  22.298 -0.0648  0.2703  0.1105
  355BOLB   PO2 8510   2.295  20.582  22.178  0.2223  0.2550 -0.1430
  355BOLB   GL3 8511   2.664  20.501  21.880 -0.5237  0.1089 -0.0633
  355BOLB   GL4 8512   2.948  20.428  21.893  0.0336 -0.3084 -0.0942
  355BOLB   C1C 8513   2.879  20.716  21.455  0.2841  0.1999 -0.0079
  355BOLB   C2C 8514   2.816  20.746  20.977 -0.1187 -0.0734 -0.0144
  355BOLB   C3C 8515   3.016  20.824  20.546 -0.1820 -0.3456  0.1178
  355BOLB   C4C 8516   3.218  20.817  20.142 -0.4423 -0.0616 -0.0905
  355BOLB   C1D 8517   2.991  20.232  21.494  0.1303  0.4175 -0.2112
  355BOLB   C2D 8518   2.855  20.219  21.030  0.1257  0.1482  0.3613
  355BOLB   C3D 8519   3.105  20.335  20.771  0.2548 -0.2837  0.2020
  355BOLB   C4D 8520   3.322  20.387  20.478 -0.1034  0.6181 -0.1828
  356BOLB   NC1 8521   9.067  14.958   6.011 -0.1627  0.1327  0.0989
  356BOLB   PO1 8522   9.041  14.923   5.519 -0.1923 -0.2168 -0.2196
  356BOLB   GL1 8523   9.157  14.655   5.206  0.0873 -0.1702  0.3623
  356BOLB   GL2 8524   9.541  14.749   5.139  0.0291 -0.1946  0.3152
  356BOLB   C1A 8525   9.096  14.311   4.817  0.4100  0.1597 -0.2108
  356BOLB   C2A 8526   8.990  13.951   4.615  0.1088  0.1271 -0.2760
  356BOLB   C3A 8527   9.205  13.551   4.458 -0.2447 -0.1862 -0.1663
  356BOLB   C4A 8528   9.164  13.075   4.455 -0.0504  0.2721  0.1303
  356BOLB   C1B 8529   9.641  14.285   4.990  0.0263 -0.0114  0.1723
  356BOLB   C2B 8530   9.546  13.915   4.776 -0.1388 -0.0254  0.0719
  356BOLB   C3B 8531   9.627  13.552   4.641  0.2050 -0.1514 -0.1966
  356BOLB   C4B 8532   9.706  13.251   4.480  0.2754 -0.3789 -0.1538
  356BOLB   NC2 8533   9.299  11.077   3.702 -0.1892 -0.0604  0.0695
  356BOLB   PO2 8534   9.662  11.208   3.634  0.0076  0.0647 -0.0122
  356BOLB   GL3 8535   9.559  11.492   3.895  0.0301 -0.1123  0.1321
  356BOLB   GL4 8536   9.221  11.494   3.984 -0.1145  0.2684 -0.0795
  356BOLB   C1C 8537   9.460  11.912   4.027  0.1590 -0.0368  0.0711
  356BOLB   C2C 8538   9.566  12.283   4.133 -0.1833 -0.0598  0.0482
  356BOLB   C3C 8539   9.451  12.426   4.395  0.2207 -0.3788 -0.0744
  356BOLB   C4C 8540   9.184  12.652   4.460  0.2618 -0.1812  0.0835
  356BOLB   C1D 8541   9.122  11.727   3.702  0.5151  0.0967  0.4837
  356BOLB   C2D 8542   9.008  12.223   3.596 -0.0224 -0.1894  0.3155
  356BOLB   C3D 8543   8.650  12.631   3.730  0.0393 -0.3357 -0.0605
  356BOLB   C4D 8544   8.371  12.747   4.055 -0.0380  0.1746  0.0957
  357BOLB   NC1 8545   7.181  22.458  18.460  0.1129 -0.0819 -0.1659
  357BOLB   PO1 8546   6.776  22.408  18.519 -0.1861  0.1417  0.1213
  357BOLB   GL1 8547   6.973  22.184  18.852 -0.3593  0.3296 -0.3292
  357BOLB   GL2 8548   7.261  22.144  18.874 -0.1435  0.1965 -0.2520
  357BOLB   C1A 8549   7.091  22.399  19.245 -0.0761 -0.1427  0.1327
  357BOLB   C2A 8550   7.271  22.340  19.638 -0.3653  0.2058  0.1158
  357BOLB   C3A 8551   7.517  22.439  20.048  0.1569 -0.3531 -0.4145
  357BOLB   C4A 8552   7.857  22.558  20.243 -0.0135 -0.1374 -0.2294
  357BOLB   C1B 8553   7.572  22.160  19.243  0.0746 -0.2176  0.1883
  357BOLB   C2B 8554   7.700  22.079  19.575 -0.0043 -0.0420  0.1501
  357BOLB   C3B 8555   7.798  21.986  19.949 -0.0942  0.1547 -0.1599
  357BOLB   C4B 8556   8.119  21.904  20.296 -0.0503  0.0261 -0.1612
  357BOLB   NC2 8557   8.585  21.266  22.511 -0.0508  0.1550 -0.3859
  357BOLB   PO2 8558   8.331  21.505  22.566 -0.0601  0.2719  0.0348
  357BOLB   GL3 8559   8.121  21.825  22.217 -0.1031 -0.0853  0.0732
  357BOLB   GL4 8560   7.889  22.127  22.253 -0.0383 -0.0874  0.0052
  357BOLB   C1C 8561   8.220  22.046  21.768 -0.4624  0.1139 -0.1483
  357BOLB   C2C 8562   8.139  22.144  21.380  0.1079 -0.1410  0.0495
  357BOLB   C3C 8563   8.034  22.383  21.072  0.2955  0.0287  0.0080
  357BOLB   C4C 8564   8.034  22.586  20.735 -0.0952  0.3649 -0.1275
  357BOLB   C1D 8565   7.854  22.388  21.915 -0.0802  0.1913 -0.0042
  357BOLB   C2D 8566   7.650  22.414  21.596 -0.0691  0.1404 -0.0026
  357BOLB   C3D 8567   7.394  22.605  21.294  0.2273 -0.2477  0.0999
  357BOLB   C4D 8568   7.280  22.805  20.971 -0.1416 -0.0539  0.0012
  358BOLB   NC1 8569  10.332  15.828  14.495  0.3629  0.0067 -0.1420
  358BOLB   PO1 8570  10.168  15.987  14.884 -0.2258 -0.0924 -0.2062
  358BOLB   GL1 8571  10.452  15.752  15.047 -0.0113  0.0803  0.1102
  358BOLB   GL2 8572  10.610  15.957  15.252 -0.1885 -0.1696 -0.1798
  358BOLB   C1A 8573  10.407  15.262  15.094 -0.1619  0.0682 -0.3828
  358BOLB   C2A 8574  10.561  14.835  15.152 -0.1643  0.1504 -0.3444
  358BOLB   C3A 8575  10.781  14.428  15.201 -0.2455 -0.0116 -0.1692
  358BOLB   C4A 8576  11.096  14.270  15.475  0.2950 -0.1807 -0.1849
  358BOLB   C1B 8577  10.984  15.608  15.206  0.1433  0.0993 -0.0544
  358BOLB   C2B 8578  10.928  15.190  15.144 -0.1866  0.2821 -0.0837
  358BOLB   C3B 8579  11.074  14.791  15.367 -0.2382  0.1043  0.0233
  358BOLB   C4B 8580  11.055  14.650  15.776 -0.1345 -0.3489  0.0345
  358BOLB   NC2 8581  11.106  12.490  17.255  0.3671  0.1378 -0.0555
  358BOLB   PO2 8582  11.049  12.835  17.059  0.1427 -0.0063  0.1994
  358BOLB   GL3 8583  11.080  12.972  16.657 -0.3099 -0.1342 -0.4585
  358BOLB   GL4 8584  11.200  12.795  16.410  0.0860 -0.1284  0.2908
  358BOLB   C1C 8585  11.358  13.239  16.466 -0.1849 -0.1575 -0.2206
  358BOLB   C2C 8586  11.193  13.502  16.275  0.1047  0.0509  0.2360
  358BOLB   C3C 8587  11.011  13.731  16.055  0.0992  0.0646  0.0672
  358BOLB   C4C 8588  10.985  13.904  15.689  0.0917  0.2000 -0.0069
  358BOLB   C1D 8589  11.123  13.081  16.067 -0.1993  0.1496  0.0421
  358BOLB   C2D 8590  10.891  13.178  15.759  0.2074 -0.4412 -0.0891
  358BOLB   C3D 8591  10.796  13.302  15.297 -0.0217  0.0559  0.0532
  358BOLB   C4D 8592  10.470  13.508  15.041  0.1409  0.2860  0.0184
  359BOLB   NC1 8593   5.410  13.607   5.425 -0.0203 -0.4593  0.0208
  359BOLB   PO1 8594   5.805  13.638   5.302  0.0782 -0.3240 -0.3338
  359BOLB   GL1 8595   5.851  13.202   5.195 -0.2228  0.0644 -0.1732
  359BOLB   GL2 8596   5.566  13.129   5.214 -0.1425 -0.2497  0.3341
  359BOLB   C1A 8597   5.946  12.803   5.009 -0.1012  0.0404  0.1337
  359BOLB   C2A 8598   6.129  12.407   4.866  0.1141 -0.1474  0.1055
  359BOLB   C3A 8599   6.405  12.047   4.810  0.2165  0.0032  0.0519
  359BOLB   C4A 8600   6.129  11.887   4.451  0.2992 -0.0224 -0.2039
  359BOLB   C1B 8601   5.471  12.774   5.134  0.1332  0.1638  0.1123
  359BOLB   C2B 8602   5.358  12.431   4.986  0.3674 -0.0665 -0.1615
  359BOLB   C3B 8603   5.248  12.053   5.206  0.0091 -0.0480  0.1274
  359BOLB   C4B 8604   5.407  12.004   5.494  0.1717 -0.1581  0.0906
  359BOLB   NC2 8605   5.437  10.915   3.144  0.0603 -0.1089  0.3356
  359BOLB   PO2 8606   5.863  10.810   2.932  0.0617  0.0993  0.1748
  359BOLB   GL3 8607   5.678  11.234   2.856  0.1223  0.0586 -0.1401
  359BOLB   GL4 8608   5.558  11.400   3.174  0.2169  0.0996  0.3727
  359BOLB   C1C 8609   5.919  11.599   2.866 -0.0276  0.3217 -0.2360
  359BOLB   C2C 8610   6.158  11.727   3.219  0.1235  0.3445 -0.2293
  359BOLB   C3C 8611   6.184  11.634   3.746 -0.1130  0.1477  0.1778
  359BOLB   C4C 8612   6.254  11.891   4.078  0.0358  0.1039 -0.0820
  359BOLB   C1D 8613   5.694  11.642   3.539 -0.0377 -0.2011 -0.0303
  359BOLB   C2D 8614   5.658  12.038   3.710 -0.3342 -0.0018 -0.0142
  359BOLB   C3D 8615   5.432  12.398   3.862 -0.1127 -0.3425  0.0908
  359BOLB   C4D 8616   5.628  12.668   4.066  0.4142 -0.1723  0.0818
  360BOLB   NC1 8617   4.407  28.521  13.236 -0.2309 -0.1363 -0.2094
  360BOLB   PO1 8618   4.495  28.612  12.782 -0.1568 -0.0386  0.0222
  360BOLB   GL1 8619   4.255  28.969  12.976  0.2161 -0.4033 -0.0279
  360BOLB   GL2 8620   4.275  29.272  12.820  0.0386  0.0635 -0.0525
  360BOLB   C1A 8621   4.527  29.297  13.255  0.3910 -0.1706  0.0513
  360BOLB   C2A 8622   4.527  29.416  13.752 -0.0781 -0.0860 -0.1277
  360BOLB   C3A 8623   4.324  29.592  14.063 -0.1245  0.1049 -0.1079
  360BOLB   C4A 8624   4.168  29.877  14.319 -0.0702 -0.0233  0.1091
  360BOLB   C1B 8625   4.109  29.577  13.188 -0.0777 -0.0174  0.0965
  360BOLB   C2B 8626   4.319  29.772  13.445  0.1645 -0.1740  0.3118
  360BOLB   C3B 8627   4.611  29.909  13.793 -0.1519  0.0537  0.3797
  360BOLB   C4B 8628   4.982  29.744  13.900  0.1972  0.0650 -0.0656
  360BOLB   NC2 8629   2.487  31.567  15.573 -0.1131  0.0637 -0.2696
  360BOLB   PO2 8630   2.849  31.468  15.358  0.0047  0.0542  0.2580
  360BOLB   GL3 8631   3.020  31.125  15.126 -0.1194 -0.1840  0.3558
  360BOLB   GL4 8632   2.809  30.894  15.183 -0.0754  0.0600  0.1391
  360BOLB   C1C 8633   3.234  31.089  14.766  0.1338 -0.3262  0.0680
  360BOLB   C2C 8634   3.508  30.820  14.632 -0.1141 -0.0440 -0.1724
  360BOLB   C3C 8635   3.882  30.606  14.598 -0.1209  0.1310 -0.1180
  360BOLB   C4C 8636   4.052  30.241  14.573 -0.0732  0.0662  0.0675
  360BOLB   C1D 8637   2.936  30.521  15.459  0.0103 -0.0960  0.0861
  360BOLB   C2D 8638   2.846  30.198  15.486 -0.0096  0.3271 -0.0878
  360BOLB   C3D 8639   3.030  29.778  15.468  0.1870 -0.2431  0.2227
  360BOLB   C4D 8640   3.340  29.558  15.523  0.1866  0.2254  0.0117
  361BOLB   NC1 8641  12.697  16.309   5.712 -0.3134  0.0877 -0.0166
  361BOLB   PO1 8642  12.799  16.314   6.096  0.1225 -0.1483 -0.2656
  361BOLB   GL1 8643  13.111  16.038   6.084 -0.1082 -0.0122  0.0684
  361BOLB   GL2 8644  13.244  15.994   5.798  0.2271 -0.2485  0.0284
  361BOLB   C1A 8645  13.174  15.600   6.239  0.0631 -0.2996  0.1122
  361BOLB   C2A 8646  13.429  15.465   6.617  0.0172  0.1268 -0.1247
  361BOLB   C3A 8647  13.842  15.257   6.639  0.1915  0.3040  0.0916
  361BOLB   C4A 8648  14.239  14.991   6.670  0.1796  0.0295 -0.0519
  361BOLB   C1B 8649  13.147  15.479   5.760  0.0942  0.0550 -0.1413
  361BOLB   C2B 8650  13.094  15.054   5.670  0.1625 -0.1775 -0.2851
  361BOLB   C3B 8651  13.079  14.833   5.385  0.1072 -0.2866 -0.1089
  361BOLB   C4B 8652  13.406  14.671   5.229 -0.0899  0.1599 -0.3417
  361BOLB   NC2 8653  15.619  12.740   6.265 -0.1382 -0.3408 -0.2075
  361BOLB   PO2 8654  15.218  12.999   6.067  0.0170  0.3030  0.1489
  361BOLB   GL3 8655  14.903  13.302   6.336  0.2578 -0.1142  0.0434
  361BOLB   GL4 8656  14.597  13.142   6.719  0.1718  0.1306  0.0021
  361BOLB   C1C 8657  14.826  13.567   6.707 -0.0625 -0.2458 -0.3266
  361BOLB   C2C 8658  14.593  13.881   6.902 -0.0234 -0.2268  0.0891
  361BOLB   C3C 8659  14.454  14.237   7.044 -0.3491 -0.2406  0.1750
  361BOLB   C4C 8660  14.479  14.571   6.750  0.1140 -0.0151 -0.0513
  361BOLB   C1D 8661  14.413  13.432   6.498  0.1255  0.2512 -0.0655
  361BOLB   C2D 8662  14.038  13.680   6.433 -0.2444  0.1515  0.2062
  361BOLB   C3D 8663  13.744  13.897   6.480  0.0344 -0.1821  0.0711
  361BOLB   C4D 8664  13.580  14.269   6.531  0.0706 -0.1683  0.2499
  362BOLB   NC1 8665   1.304  27.037  10.983  0.0301 -0.0192  0.1281
  362BOLB   PO1 8666   1.034  27.048  11.393  0.1519  0.0469 -0.2794
  362BOLB   GL1 8667   0.848  27.415  11.407 -0.1340  0.0062 -0.1420
  362BOLB   GL2 8668   1.051  27.714  11.501  0.0328  0.2000  0.0178
  362BOLB   C1A 8669   0.513  27.683  11.457  0.0939 -0.1511 -0.0961
  362BOLB   C2A 8670   0.291  27.962  11.799 -0.4430  0.0789 -0.1652
  362BOLB   C3A 8671   0.371  28.390  11.891  0.0155 -0.0154  0.2385
  362BOLB   C4A 8672   0.249  28.568  11.608 -0.2370 -0.2443  0.0748
  362BOLB   C1B 8673   1.161  28.160  11.380 -0.0104  0.1097 -0.3112
  362BOLB   C2B 8674   0.869  28.541  11.245  0.3292  0.0781  0.2972
  362BOLB   C3B 8675   0.616  28.869  11.377 -0.1277  0.2210  0.1592
  362BOLB   C4B 8676   0.585  28.871  11.807 -0.3530 -0.1197 -0.0715
  362BOLB   NC2 8677  -1.405  30.380  11.703  0.2835 -0.1778  0.2083
  362BOLB   PO2 8678  -1.030  30.374  11.999 -0.0406 -0.1482 -0.1987
  362BOLB   GL3 8679  -0.869  30.044  11.817 -0.0678  0.0144 -0.1703
  362BOLB   GL4 8680  -0.986  29.952  11.558 -0.0560 -0.3829 -0.2548
  362BOLB   C1C 8681  -0.464  29.999  11.679 -0.2163 -0.0488 -0.2116
  362BOLB   C2C 8682  -0.140  29.742  11.763  0.0830  0.3385 -0.1049
  362BOLB   C3C 8683   0.131  29.428  11.549  0.0938  0.1361 -0.1247
  362BOLB   C4C 8684   0.216  29.078  11.548  0.2355  0.3974 -0.0257
  362BOLB   C1D 8685  -0.746  29.659  11.412  0.0587 -0.2986 -0.0970
  362BOLB   C2D 8686  -0.536  29.266  11.331  0.2527  0.2143 -0.2909
  362BOLB   C3D 8687  -0.604  28.884  11.139 -0.4974  0.1646  0.1999
  362BOLB   C4D 8688  -0.631  28.477  11.264 -0.3110 -0.1374  0.0771
  363BOLB   NC1 8689  38.019  24.137  13.799  0.0396 -0.0562  0.1974
  363BOLB   PO1 8690  38.174  24.320  14.132  0.1273 -0.1492  0.1666
  363BOLB   GL1 8691  38.105  24.623  14.398 -0.2759  0.0655 -0.2944
  363BOLB   GL2 8692  38.150  24.502  14.688  0.2013 -0.2779 -0.1058
  363BOLB   C1A 8693  37.830  24.983  14.249  0.0656 -0.2499  0.0496
  363BOLB   C2A 8694  37.652  25.240  14.553  0.2377 -0.3677 -0.2882
  363BOLB   C3A 8695  37.618  25.483  14.876 -0.0026 -0.0548 -0.0033
  363BOLB   C4A 8696  37.496  25.459  15.369 -0.0667  0.1597 -0.1400
  363BOLB   C1B 8697  37.966  24.538  15.114 -0.1144  0.1569  0.1284
  363BOLB   C2B 8698  38.091  24.641  15.573  0.3684 -0.1482 -0.0747
  363BOLB   C3B 8699  37.757  24.697  15.892  0.1205  0.1254  0.0055
  363BOLB   C4B 8700  37.426  24.492  16.168  0.3412  0.1593  0.2585
  363BOLB   NC2 8701  35.800  26.615  16.310 -0.3038  0.1165 -0.1066
  363BOLB   PO2 8702  36.047  26.878  16.497  0.0714 -0.2939  0.0061
  363BOLB   GL3 8703  36.377  26.691  16.429  0.0740 -0.0308  0.1324
  363BOLB   GL4 8704  36.570  26.720  16.601  0.0821 -0.1671 -0.1108
  363BOLB   C1C 8705  36.377  26.217  16.162  0.0384  0.0521  0.2134
  363BOLB   C2C 8706  36.625  25.802  16.043  0.0139 -0.1274 -0.0107
  363BOLB   C3C 8707  36.865  25.463  15.876  0.2234  0.0745  0.2030
  363BOLB   C4C 8708  37.285  25.365  15.691  0.0940  0.1455 -0.1679
  363BOLB   C1D 8709  36.851  26.362  16.458 -0.3993 -0.0402 -0.1371
  363BOLB   C2D 8710  36.972  26.167  16.091  0.0288  0.1492 -0.0538
  363BOLB   C3D 8711  37.240  26.400  15.732  0.0438 -0.0780  0.0093
  363BOLB   C4D 8712  37.553  26.485  15.443 -0.1180  0.0180 -0.0772
  364BOLB   NC1 8713   6.413  26.899  15.521  0.1513 -0.0396  0.1236
  364BOLB   PO1 8714   6.276  27.170  15.867  0.1267 -0.4239 -0.1109
  364BOLB   GL1 8715   6.188  27.619  15.910 -0.1411 -0.3719 -0.3365
  364BOLB   GL2 8716   5.835  27.782  16.010  0.1890 -0.0392  0.2555
  364BOLB   C1A 8717   6.310  28.097  15.954 -0.0641  0.0942  0.0610
  364BOLB   C2A 8718   6.225  28.257  16.311 -0.1358 -0.0195  0.4409
  364BOLB   C3A 8719   6.197  28.594  16.599 -0.1880  0.0798 -0.1075
  364BOLB   C4A 8720   6.143  28.617  17.075  0.0202 -0.2628  0.1338
  364BOLB   C1B 8721   5.754  28.133  16.306  0.1405 -0.2225  0.0885
  364BOLB   C2B 8722   5.716  28.506  16.605  0.1937  0.0667  0.1507
  364BOLB   C3B 8723   5.784  28.838  16.918  0.0234 -0.0187 -0.0813
  364BOLB   C4B 8724   6.022  29.176  16.829  0.0820 -0.3395 -0.2401
  364BOLB   NC2 8725   6.596  29.963  19.015  0.3779 -0.1946 -0.1615
  364BOLB   PO2 8726   6.180  29.902  19.102 -0.1672 -0.0666  0.3770
  364BOLB   GL3 8727   6.283  29.503  18.787  0.2146 -0.2577 -0.0013
  364BOLB   GL4 8728   6.662  29.589  18.673 -0.0967  0.0485  0.2347
  364BOLB   C1C 8729   6.353  29.075  18.586  0.1097 -0.4375  0.1080
  364BOLB   C2C 8730   6.198  28.768  18.260  0.1983  0.0426  0.1555
  364BOLB   C3C 8731   5.959  28.620  17.951  0.1597  0.1742 -0.2464
  364BOLB   C4C 8732   5.974  28.526  17.507  0.2575  0.2922  0.1511
  364BOLB   C1D 8733   6.817  29.131  18.463 -0.2411  0.1202  0.0132
  364BOLB   C2D 8734   7.102  28.849  18.400 -0.2252 -0.0354  0.1511
  364BOLB   C3D 8735   7.323  28.455  18.208  0.1407  0.0890 -0.2518
  364BOLB   C4D 8736   7.516  28.199  18.058 -0.0617  0.3543  0.2929
  365BOLB   NC1 8737  11.950  27.317  12.095 -0.2135 -0.2818  0.2413
  365BOLB   PO1 8738  12.150  27.031  11.692 -0.0298 -0.0667 -0.1226
  365BOLB   GL1 8739  12.400  27.379  11.877 -0.0402  0.1323 -0.1987
  365BOLB   GL2 8740  12.590  27.592  11.516 -0.0087 -0.0461 -0.0549
  365BOLB   C1A 8741  12.717  27.515  11.993 -0.0716 -0.1194 -0.0418
  365BOLB   C2A 8742  13.104  27.549  11.795 -0.3170  0.0763  0.2091
  365BOLB   C3A 8743  13.461  27.617  12.004  0.1124 -0.0002 -0.0761
  365BOLB   C4A 8744  13.676  28.050  11.950 -0.0582  0.2485  0.1208
  365BOLB   C1B 8745  12.880  27.941  11.671 -0.3355 -0.0880  0.1738
  365BOLB   C2B 8746  12.793  28.423  11.697  0.0076  0.3303 -0.1362
  365BOLB   C3B 8747  12.981  28.699  12.105 -0.0893 -0.0436 -0.0839
  365BOLB   C4B 8748  13.367  28.485  12.280 -0.1007 -0.0399 -0.1764
  365BOLB   NC2 8749  16.032  28.910  12.224 -0.2306  0.0135  0.1083
  365BOLB   PO2 8750  15.593  29.042  12.097  0.0195  0.0346 -0.3835
  365BOLB   GL3 8751  15.242  28.935  11.842 -0.1508 -0.1223 -0.1148
  365BOLB   GL4 8752  15.472  29.060  11.589  0.5128  0.1344 -0.2783
  365BOLB   C1C 8753  14.948  28.801  11.548  0.0123 -0.2101 -0.3647
  365BOLB   C2C 8754  14.519  28.509  11.677  0.1906 -0.1770  0.1842
  365BOLB   C3C 8755  14.141  28.317  11.541 -0.2055  0.0675  0.0620
  365BOLB   C4C 8756  13.800  28.314  11.821  0.1852  0.0808  0.1502
  365BOLB   C1D 8757  15.701  28.732  11.450 -0.3889 -0.0240  0.4359
  365BOLB   C2D 8758  15.726  28.328  11.389  0.0031  0.1976  0.0535
  365BOLB   C3D 8759  15.625  27.896  11.222  0.2629 -0.0711 -0.0109
  365BOLB   C4D 8760  15.886  27.697  11.055  0.0552  0.1744  0.2227
  366BOLB   NC1 8761  13.919  22.654  14.461 -0.0579  0.0625 -0.2178
  366BOLB   PO1 8762  14.284  22.883  14.281 -0.0898  0.0183  0.0053
  366BOLB   GL1 8763  14.723  22.816  14.467 -0.0728 -0.1422 -0.1550
  366BOLB   GL2 8764  14.802  22.508  14.358  0.0007  0.0661 -0.3222
  366BOLB   C1A 8765  15.067  22.666  14.744 -0.1784 -0.1669  0.1364
  366BOLB   C2A 8766  15.576  22.702  14.770 -0.1514  0.0153 -0.1257
  366BOLB   C3A 8767  15.899  23.044  14.913  0.2523  0.0142  0.2993
  366BOLB   C4A 8768  16.199  23.393  14.663 -0.2120  0.1307 -0.0943
  366BOLB   C1B 8769  14.749  22.205  14.669  0.2383  0.2123 -0.0788
  366BOLB   C2B 8770  14.910  22.291  15.037  0.2093 -0.0174 -0.2233
  366BOLB   C3B 8771  15.092  22.157  15.459 -0.2642  0.0083 -0.1857
  366BOLB   C4B 8772  14.972  22.151  15.845  0.1296  0.0376 -0.0333
  366BOLB   NC2 8773  18.380  23.967  14.574  0.0862 -0.1655 -0.0926
  366BOLB   PO2 8774  18.328  24.369  14.484  0.0497 -0.0665  0.0351
  366BOLB   GL3 8775  17.929  24.083  14.388  0.0313 -0.0130  0.1804
  366BOLB   GL4 8776  17.670  24.127  14.204 -0.3079  0.0184 -0.2753
  366BOLB   C1C 8777  17.592  23.904  14.640 -0.0330  0.3069  0.2339
  366BOLB   C2C 8778  17.312  23.618  14.770 -0.4135 -0.1812  0.0561
  366BOLB   C3C 8779  16.916  23.527  14.780 -0.2585  0.2627 -0.2365
  366BOLB   C4C 8780  16.544  23.627  14.499  0.1307  0.1005 -0.1172
  366BOLB   C1D 8781  17.241  24.026  14.298 -0.0636 -0.2198 -0.2912
  366BOLB   C2D 8782  16.959  23.722  14.220 -0.2162 -0.2213 -0.0416
  366BOLB   C3D 8783  16.613  23.729  13.952  0.0978  0.1215  0.4384
  366BOLB   C4D 8784  16.410  23.768  13.629 -0.1674  0.0682 -0.0402
  367BOLB   NC1 8785  10.063  14.322  12.449  0.2332 -0.2119  0.1162
  367BOLB   PO1 8786  10.308  14.780  12.504 -0.0263  0.5401  0.1656
  367BOLB   GL1 8787  10.532  14.394  12.698 -0.0414  0.1698  0.7383
  367BOLB   GL2 8788  10.385  14.026  12.790  0.2834 -0.4942 -0.4314
  367BOLB   C1A 8789  10.702  14.381  13.042  0.0317  0.2061 -0.2727
  367BOLB   C2A 8790  11.110  14.130  12.992 -0.0196 -0.0708  0.0093
  367BOLB   C3A 8791  11.029  13.697  13.123  0.1471 -0.0606 -0.0126
  367BOLB   C4A 8792  11.081  13.531  13.546  0.2155  0.4902  0.4062
  367BOLB   C1B 8793  10.515  13.764  13.103 -0.0923  0.0044  0.1570
  367BOLB   C2B 8794  10.427  13.359  13.318  0.3302  0.1863 -0.0175
  367BOLB   C3B 8795  10.716  12.966  13.215  0.1025 -0.0854 -0.0007
  367BOLB   C4B 8796  10.740  12.560  12.948  0.0450  0.2973 -0.3642
  367BOLB   NC2 8797  12.096  11.832  14.694 -0.0995  0.0043  0.2855
  367BOLB   PO2 8798  12.520  12.161  14.655  0.2222  0.1003 -0.2095
  367BOLB   GL3 8799  12.275  12.515  14.433  0.1728  0.2787  0.0078
  367BOLB   GL4 8800  12.461  12.789  14.410 -0.1193  0.3766  0.2347
  367BOLB   C1C 8801  11.821  12.424  14.287  0.2305 -0.1789  0.2784
  367BOLB   C2C 8802  11.465  12.512  14.157 -0.0301 -0.0114 -0.1667
  367BOLB   C3C 8803  11.197  12.556  13.967 -0.0779  0.3226 -0.0696
  367BOLB   C4C 8804  11.068  12.971  13.828 -0.2567 -0.0360 -0.0351
  367BOLB   C1D 8805  12.314  12.878  14.057  0.0949  0.1656 -0.2401
  367BOLB   C2D 8806  12.145  13.147  13.737  0.2783 -0.0299  0.2305
  367BOLB   C3D 8807  11.995  13.233  13.483  0.2217  0.0978  0.2664
  367BOLB   C4D 8808  11.906  13.393  13.004  0.2003  0.1243  0.0651
  368BOLB   NC1 8809   6.475  15.695  16.222 -0.1511 -0.0365  0.2107
  368BOLB   PO1 8810   6.430  15.444  15.754  0.1454 -0.2117  0.1609
  368BOLB   GL1 8811   6.373  15.190  16.220  0.1006  0.0356 -0.0380
  368BOLB   GL2 8812   6.498  15.328  16.562 -0.0254  0.1582  0.0483
  368BOLB   C1A 8813   6.592  14.858  16.388  0.1953 -0.4036 -0.1049
  368BOLB   C2A 8814   6.560  14.547  16.657  0.1122  0.2191  0.1247
  368BOLB   C3A 8815   6.566  14.188  16.544 -0.3141  0.0663 -0.1754
  368BOLB   C4A 8816   6.624  13.871  16.845  0.0705  0.2029  0.1098
  368BOLB   C1B 8817   6.674  15.065  16.839 -0.0752 -0.2972  0.2435
  368BOLB   C2B 8818   6.975  14.611  16.993  0.2559 -0.0866 -0.0338
  368BOLB   C3B 8819   7.103  14.314  16.778  0.0145 -0.1073  0.0548
  368BOLB   C4B 8820   7.504  14.129  16.687 -0.2520 -0.1093  0.2130
  368BOLB   NC2 8821   7.811  12.233  18.554 -0.0297  0.1707  0.1080
  368BOLB   PO2 8822   7.616  12.475  18.787  0.0139  0.0187 -0.2606
  368BOLB   GL3 8823   7.734  12.830  18.547  0.0396 -0.1892 -0.0140
  368BOLB   GL4 8824   7.588  13.134  18.723  0.0691 -0.1999  0.1817
  368BOLB   C1C 8825   7.595  13.129  18.228  0.1373  0.0972  0.1747
  368BOLB   C2C 8826   7.304  13.451  17.940 -0.0142 -0.0733  0.2301
  368BOLB   C3C 8827   6.973  13.303  17.589 -0.1134  0.2138  0.0954
  368BOLB   C4C 8828   6.779  13.580  17.216  0.2723  0.0594  0.2704
  368BOLB   C1D 8829   7.343  13.518  18.589  0.1353 -0.0711 -0.0741
  368BOLB   C2D 8830   7.147  13.832  18.319 -0.1443 -0.1962  0.0780
  368BOLB   C3D 8831   7.135  14.214  18.199 -0.0444  0.0283 -0.0199
  368BOLB   C4D 8832   7.040  14.467  17.907  0.0214 -0.1847  0.1544
  369BOLB   NC1 8833   5.832  13.155   9.948 -0.0453  0.1518 -0.2771
  369BOLB   PO1 8834   5.863  12.972   9.554 -0.1571 -0.0647  0.2757
  369BOLB   GL1 8835   5.863  12.682   9.189 -0.1484 -0.4722 -0.2851
  369BOLB   GL2 8836   5.533  12.578   9.142 -0.0608  0.1751 -0.0112
  369BOLB   C1A 8837   6.008  12.238   9.252 -0.0399  0.1687 -0.0961
  369BOLB   C2A 8838   6.071  11.816   9.259 -0.2017 -0.1199  0.1565
  369BOLB   C3A 8839   6.047  11.441   9.160  0.0973  0.1764  0.1544
  369BOLB   C4A 8840   6.275  11.083   9.190  0.0488  0.0400  0.3662
  369BOLB   C1B 8841   5.335  12.361   9.245  0.0229  0.0886  0.3600
  369BOLB   C2B 8842   5.148  11.927   9.267 -0.0106 -0.0946 -0.1392
  369BOLB   C3B 8843   5.036  11.531   9.265  0.0705 -0.1078  0.1248
  369BOLB   C4B 8844   5.007  11.183   9.561  0.0012 -0.0091 -0.2981
  369BOLB   NC2 8845   7.181   8.589   8.589  0.2684  0.1521  0.3181
  369BOLB   PO2 8846   6.843   8.858   8.652 -0.1634  0.0594  0.3540
  369BOLB   GL3 8847   6.923   9.315   8.581 -0.0783 -0.1771  0.2446
  369BOLB   GL4 8848   6.914   9.524   8.381 -0.2861 -0.0170 -0.0042
  369BOLB   C1C 8849   7.024   9.719   8.817  0.1532  0.0284 -0.0029
  369BOLB   C2C 8850   6.837  10.062   8.725 -0.1241 -0.0144 -0.0164
  369BOLB   C3C 8851   6.679  10.458   8.678  0.0652  0.1435 -0.0807
  369BOLB   C4C 8852   6.268  10.709   8.851  0.0375  0.0479  0.2909
  369BOLB   C1D 8853   6.696   9.764   8.036  0.2722  0.1346 -0.1321
  369BOLB   C2D 8854   6.201  10.060   7.984  0.0748  0.5292 -0.0840
  369BOLB   C3D 8855   5.977  10.420   7.931 -0.3585  0.0342  0.0169
  369BOLB   C4D 8856   5.746  10.738   7.621  0.1064 -0.1708 -0.1794
  370BOLB   NC1 8857   3.401  16.101   8.215  0.0131 -0.0324 -0.2470
  370BOLB   PO1 8858   3.467  15.876   7.744  0.2606  0.0855  0.2398
  370BOLB   GL1 8859   3.164  15.687   7.633 -0.3336 -0.0968  0.1042
  370BOLB   GL2 8860   3.015  15.896   7.428 -0.0854  0.1188 -0.0213
  370BOLB   C1A 8861   3.011  15.333   7.362 -0.4468 -0.2457 -0.2778
  370BOLB   C2A 8862   2.637  15.106   7.182  0.2614 -0.0607  0.2216
  370BOLB   C3A 8863   2.171  15.045   7.049  0.1537  0.1175 -0.0180
  370BOLB   C4A 8864   1.813  15.315   7.022 -0.2707 -0.3393 -0.1162
  370BOLB   C1B 8865   3.044  15.710   6.970 -0.2379  0.2369  0.1733
  370BOLB   C2B 8866   2.754  15.561   6.657 -0.4257 -0.0132  0.1045
  370BOLB   C3B 8867   2.762  15.228   6.361  0.2073  0.0806  0.2233
  370BOLB   C4B 8868   2.718  14.783   6.152 -0.0259  0.1546 -0.1288
  370BOLB   NC2 8869   3.386  16.755   6.974  0.1538 -0.0145  0.0012
  370BOLB   PO2 8870   3.536  16.460   6.589  0.0396  0.3557  0.2617
  370BOLB   GL3 8871   3.196  16.278   6.569  0.1944  0.1099 -0.0050
  370BOLB   GL4 8872   3.022  16.174   6.189  0.0817 -0.0258  0.2717
  370BOLB   C1C 8873   2.919  16.085   6.684 -0.2976  0.0935  0.0460
  370BOLB   C2C 8874   2.505  15.954   6.678  0.0355  0.3220  0.0602
  370BOLB   C3C 8875   2.027  15.872   6.644 -0.2119 -0.4716 -0.0283
  370BOLB   C4C 8876   1.782  15.650   6.878 -0.1950  0.0800  0.1267
  370BOLB   C1D 8877   2.626  16.358   6.340  0.1111 -0.1320 -0.1196
  370BOLB   C2D 8878   2.278  16.135   6.317  0.0293 -0.1336  0.0742
  370BOLB   C3D 8879   1.862  16.140   6.197 -0.1277  0.0694  0.0439
  370BOLB   C4D 8880   1.511  16.027   6.449  0.2718 -0.4072  0.2345
  371BOLB   NC1 8881  34.601  18.371  20.471  0.0191 -0.0663  0.2653
  371BOLB   PO1 8882  34.135  18.045  20.322  0.0286  0.2880  0.0215
  371BOLB   GL1 8883  34.340  17.775  20.061  0.1613 -0.1027 -0.0935
  371BOLB   GL2 8884  34.593  18.092  20.047 -0.1243 -0.1115  0.0017
  371BOLB   C1A 8885  34.544  17.491  19.698 -0.3281  0.0334 -0.2824
  371BOLB   C2A 8886  34.919  17.319  19.523  0.1573  0.2163  0.0389
  371BOLB   C3A 8887  35.354  17.454  19.302 -0.4847  0.3316  0.3271
  371BOLB   C4A 8888  35.876  17.616  19.235 -0.2566 -0.0577 -0.1052
  371BOLB   C1B 8889  34.591  18.104  19.579 -0.0017  0.0455 -0.2580
  371BOLB   C2B 8890  34.195  18.401  19.407  0.0486  0.1751 -0.3392
  371BOLB   C3B 8891  33.855  18.621  19.162 -0.0377 -0.1590  0.1039
  371BOLB   C4B 8892  33.840  18.678  18.738  0.2020 -0.1531 -0.2572
  371BOLB   NC2 8893  34.830  19.222  20.610 -0.2967  0.1214  0.1010
  371BOLB   PO2 8894  35.245  18.910  20.842 -0.2296  0.0306 -0.2483
  371BOLB   GL3 8895  35.214  19.000  20.395  0.0615 -0.0683  0.1631
  371BOLB   GL4 8896  35.055  18.875  20.152  0.0260  0.3526 -0.1575
  371BOLB   C1C 8897  35.535  18.921  20.030  0.0351 -0.0286 -0.0672
  371BOLB   C2C 8898  35.609  18.628  19.746  0.1281  0.0703  0.0294
  371BOLB   C3C 8899  36.045  18.398  19.595 -0.3850 -0.0263 -0.0347
  371BOLB   C4C 8900  36.059  17.974  19.537 -0.2270 -0.4019  0.1977
  371BOLB   C1D 8901  34.875  19.049  19.819 -0.1911  0.0739 -0.1397
  371BOLB   C2D 8902  34.454  19.087  19.658 -0.3529 -0.5422 -0.0753
  371BOLB   C3D 8903  34.309  18.883  19.323  0.1723 -0.0594 -0.1082
  371BOLB   C4D 8904  34.312  18.748  18.913 -0.4769  0.0594  0.0843
  372BOLB   NC1 8905  11.659  11.330   4.626 -0.0056 -0.0273  0.1173
  372BOLB   PO1 8906  11.586  11.206   4.902 -0.0121 -0.1319  0.0452
  372BOLB   GL1 8907  11.602  11.498   5.155 -0.1890 -0.0751  0.3710
  372BOLB   GL2 8908  11.852  11.619   5.135 -0.0808 -0.1004 -0.2881
  372BOLB   C1A 8909  11.292  11.818   5.427  0.1221  0.0024  0.0396
  372BOLB   C2A 8910  10.961  12.024   5.643  0.0420  0.0809  0.1978
  372BOLB   C3A 8911  10.935  12.368   5.831 -0.0653  0.0124 -0.1321
  372BOLB   C4A 8912  11.170  12.697   6.033  0.1834 -0.0908 -0.3983
  372BOLB   C1B 8913  11.407  11.838   4.887 -0.1486 -0.0122 -0.0635
  372BOLB   C2B 8914  11.035  11.958   4.979 -0.0147  0.1810  0.0621
  372BOLB   C3B 8915  10.643  12.002   5.092  0.0428  0.0227 -0.0568
  372BOLB   C4B 8916  10.487  12.083   5.482  0.1858  0.0555 -0.0250
  372BOLB   NC2 8917  10.634  15.018   7.015  0.0877  0.1557 -0.2311
  372BOLB   PO2 8918  10.466  14.770   6.679  0.1432  0.0461 -0.0519
  372BOLB   GL3 8919  10.823  14.527   6.590  0.1409 -0.0249 -0.0248
  372BOLB   GL4 8920  10.955  14.750   6.319 -0.2536  0.2900 -0.2174
  372BOLB   C1C 8921  10.971  14.238   6.351  0.1999  0.2055  0.1488
  372BOLB   C2C 8922  10.875  13.901   6.095  0.1836  0.2529 -0.1587
  372BOLB   C3C 8923  10.930  13.527   5.974 -0.0042 -0.0680  0.0079
  372BOLB   C4C 8924  11.102  13.150   5.940  0.1119  0.1434  0.1069
  372BOLB   C1D 8925  10.843  14.747   5.813 -0.0894 -0.2240 -0.3997
  372BOLB   C2D 8926  11.115  14.488   5.616  0.0681 -0.2853 -0.0285
  372BOLB   C3D 8927  11.296  14.156   5.435  0.2171  0.1125 -0.2324
  372BOLB   C4D 8928  11.233  14.029   5.016  0.0051 -0.1112 -0.1187
  373BOLB   NC1 8929  12.736  24.096  15.727  0.0631  0.2459 -0.0467
  373BOLB   PO1 8930  12.412  24.182  15.951  0.4954 -0.2329 -0.5825
  373BOLB   GL1 8931  12.677  24.223  16.331 -0.0893 -0.0033  0.1120
  373BOLB   GL2 8932  12.999  24.105  16.187  0.0580  0.0907 -0.2871
  373BOLB   C1A 8933  12.845  24.237  16.736 -0.0751  0.2036  0.2954
  373BOLB   C2A 8934  13.067  24.324  17.088  0.0161 -0.0729  0.0476
  373BOLB   C3A 8935  13.250  24.385  17.392 -0.1692  0.1100 -0.3736
  373BOLB   C4A 8936  13.517  24.374  17.688 -0.0083 -0.1443 -0.2176
  373BOLB   C1B 8937  13.305  24.207  16.541 -0.0023 -0.0922 -0.0894
  373BOLB   C2B 8938  13.518  24.454  16.902  0.2064  0.0706 -0.0854
  373BOLB   C3B 8939  13.898  24.689  17.028  0.1168 -0.3896 -0.2190
  373BOLB   C4B 8940  14.287  24.800  17.009  0.2726 -0.1612  0.2047
  373BOLB   NC2 8941  14.027  24.075  19.753  0.1354  0.0234 -0.1040
  373BOLB   PO2 8942  14.107  24.443  19.394  0.2188  0.1006  0.4054
  373BOLB   GL3 8943  14.395  24.404  19.192 -0.0919 -0.0841  0.0649
  373BOLB   GL4 8944  14.385  24.125  19.006 -0.1017 -0.1097 -0.0267
  373BOLB   C1C 8945  14.691  24.631  18.906  0.1738 -0.1190 -0.0422
  373BOLB   C2C 8946  14.535  24.765  18.565 -0.0322 -0.1650 -0.0753
  373BOLB   C3C 8947  14.092  24.699  18.301 -0.2974  0.0368 -0.2098
  373BOLB   C4C 8948  13.809  24.467  18.074  0.2349  0.1672 -0.1002
  373BOLB   C1D 8949  14.447  23.866  18.659 -0.1377 -0.2282  0.0035
  373BOLB   C2D 8950  14.379  23.638  18.261  0.1558  0.0728 -0.0208
  373BOLB   C3D 8951  14.283  23.504  17.881 -0.0384  0.0898  0.1621
  373BOLB   C4D 8952  14.093  23.139  17.804 -0.3393  0.3386  0.0919
  374BOLB   NC1 8953  16.637  19.585   1.953  0.1361  0.1264  0.3673
  374BOLB   PO1 8954  16.434  19.163   2.111  0.0842  0.2146 -0.0017
  374BOLB   GL1 8955  16.253  19.262   2.399 -0.0868 -0.3782  0.1402
  374BOLB   GL2 8956  16.066  19.016   2.532  0.0436  0.1063 -0.1784
  374BOLB   C1A 8957  16.076  19.570   2.756 -0.2157  0.0476  0.0170
  374BOLB   C2A 8958  15.692  19.665   2.810 -0.2531  0.0036 -0.0606
  374BOLB   C3A 8959  15.237  19.612   2.596 -0.2425 -0.1557 -0.1980
  374BOLB   C4A 8960  14.859  19.760   2.882  0.0694  0.0853  0.1426
  374BOLB   C1B 8961  15.721  19.105   2.868  0.3278 -0.0204 -0.0720
  374BOLB   C2B 8962  15.411  19.302   3.083  0.1196 -0.0929 -0.0736
  374BOLB   C3B 8963  15.030  19.284   3.073 -0.0910 -0.1357 -0.3704
  374BOLB   C4B 8964  14.908  19.177   3.462  0.0811 -0.1958  0.2290
  374BOLB   NC2 8965  13.287  20.549   4.705  0.0600 -0.1577  0.1503
  374BOLB   PO2 8966  13.611  20.701   4.470 -0.2366 -0.0279  0.2673
  374BOLB   GL3 8967  13.673  20.860   4.076 -0.0726  0.2677 -0.2882
  374BOLB   GL4 8968  13.999  21.007   3.975  0.0363 -0.0554  0.0902
  374BOLB   C1C 8969  13.822  20.749   3.596  0.3253  0.0287  0.0546
  374BOLB   C2C 8970  14.104  20.468   3.485  0.0914 -0.2036 -0.2261
  374BOLB   C3C 8971  14.198  20.430   3.047 -0.3933 -0.0145 -0.2279
  374BOLB   C4C 8972  14.517  20.158   2.890  0.1732  0.0664  0.1119
  374BOLB   C1D 8973  14.351  20.824   3.800 -0.0762 -0.2394  0.0576
  374BOLB   C2D 8974  14.540  20.728   3.337  0.3061 -0.4162 -0.2161
  374BOLB   C3D 8975  14.518  20.727   2.778  0.0922  0.1827  0.1917
  374BOLB   C4D 8976  14.306  20.537   2.427 -0.0471 -0.1424  0.0719
  375BOLB   NC1 8977   0.678   6.582  10.456  0.2477 -0.1677 -0.0461
  375BOLB   PO1 8978   0.766   6.520  10.858  0.0052 -0.2917 -0.1286
  375BOLB   GL1 8979   1.062   6.843  10.678  0.1834 -0.0234  0.0007
  375BOLB   GL2 8980   0.810   7.023  10.834 -0.1809 -0.2377 -0.0682
  375BOLB   C1A 8981   1.225   7.221  10.640 -0.0381 -0.3704 -0.0350
  375BOLB   C2A 8982   1.419   7.550  10.508  0.3149  0.0137  0.2776
  375BOLB   C3A 8983   1.772   7.716  10.699  0.1236  0.1123  0.0615
  375BOLB   C4A 8984   2.007   8.134  10.744  0.2472 -0.0784  0.0577
  375BOLB   C1B 8985   0.502   7.278  11.052 -0.1377  0.2546 -0.0560
  375BOLB   C2B 8986   0.547   7.636  11.273 -0.3113  0.1409 -0.0315
  375BOLB   C3B 8987   0.583   7.933  11.580 -0.0798 -0.0057  0.2412
  375BOLB   C4B 8988   0.479   8.336  11.822  0.0655  0.1574 -0.1812
  375BOLB   NC2 8989   4.048   6.734  11.525  0.0554 -0.3362 -0.2617
  375BOLB   PO2 8990   3.726   6.951  11.303 -0.1284 -0.2110  0.0437
  375BOLB   GL3 8991   3.530   7.166  11.295  0.0108  0.4492  0.1797
  375BOLB   GL4 8992   3.447   7.226  10.946 -0.0284  0.0211 -0.0631
  375BOLB   C1C 8993   3.209   7.466  11.498  0.1355 -0.2137  0.2132
  375BOLB   C2C 8994   2.983   7.823  11.398 -0.4416  0.0921  0.2875
  375BOLB   C3C 8995   2.709   8.074  11.222 -0.1483 -0.1188 -0.1014
  375BOLB   C4C 8996   2.264   8.172  11.135 -0.2090 -0.2070  0.3262
  375BOLB   C1D 8997   3.402   7.724  11.138 -0.1322 -0.1638  0.2194
  375BOLB   C2D 8998   3.289   8.165  11.229 -0.0237 -0.0527 -0.0819
  375BOLB   C3D 8999   3.164   8.511  11.112 -0.0576  0.5294 -0.1793
  375BOLB   C4D 9000   3.305   8.730  10.760  0.2508  0.1213 -0.2485
  376BOLB   NC1 9001  29.338  21.392   9.137 -0.1153 -0.4624 -0.1764
  376BOLB   PO1 9002  29.187  21.703   9.414  0.0112 -0.1537  0.1591
  376BOLB   GL1 9003  29.652  21.725   9.396  0.0374  0.0965 -0.1454
  376BOLB   GL2 9004  29.901  21.499   9.226  0.1481  0.4642 -0.0003
  376BOLB   C1A 9005  30.052  21.670   9.644  0.1175  0.1532 -0.0278
  376BOLB   C2A 9006  30.444  21.551   9.812 -0.0852  0.4060  0.0085
  376BOLB   C3A 9007  30.690  21.770  10.109 -0.1362  0.1537 -0.2943
  376BOLB   C4A 9008  30.824  22.304  10.236 -0.3810 -0.1328  0.2004
  376BOLB   C1B 9009  30.354  21.558   9.243 -0.0455  0.0864 -0.1519
  376BOLB   C2B 9010  30.739  21.566   9.010  0.2783  0.2601 -0.0753
  376BOLB   C3B 9011  31.061  21.606   9.082 -0.2467  0.0743 -0.0132
  376BOLB   C4B 9012  31.068  21.283   9.430 -0.1278  0.2137  0.0924
  376BOLB   NC2 9013  29.368  23.009   8.063  0.2625 -0.3665 -0.1234
  376BOLB   PO2 9014  29.460  22.964   8.502 -0.1565  0.2394  0.1147
  376BOLB   GL3 9015  29.840  22.967   8.822 -0.0801 -0.1888  0.1622
  376BOLB   GL4 9016  29.931  22.624   8.959  0.0506  0.3943 -0.1206
  376BOLB   C1C 9017  30.279  22.904   8.808 -0.0144  0.2020 -0.3953
  376BOLB   C2C 9018  30.594  22.608   8.990  0.1700 -0.0550 -0.2775
  376BOLB   C3C 9019  30.650  22.417   9.470 -0.3248 -0.3254 -0.4132
  376BOLB   C4C 9020  30.657  22.581   9.828 -0.1569 -0.3606  0.0340
  376BOLB   C1D 9021  30.198  22.485   9.267 -0.2937  0.1121  0.1700
  376BOLB   C2D 9022  30.204  22.677   9.706  0.1693  0.1173 -0.2241
  376BOLB   C3D 9023  30.371  23.053   9.913 -0.1275  0.1978 -0.0528
  376BOLB   C4D 9024  30.347  23.358  10.140  0.0412 -0.3373 -0.1959
  377BOLB   NC1 9025  15.301  21.464   8.068  0.3989  0.2398  0.1132
  377BOLB   PO1 9026  14.909  21.576   7.807 -0.1538 -0.3520 -0.0054
  377BOLB   GL1 9027  15.296  21.870   7.727 -0.0886  0.3297 -0.0908
  377BOLB   GL2 9028  15.595  21.647   7.701 -0.0978  0.0482  0.0074
  377BOLB   C1A 9029  15.686  22.083   7.565  0.3679  0.2093 -0.2978
  377BOLB   C2A 9030  16.087  22.093   7.470 -0.0414  0.1258 -0.0363
  377BOLB   C3A 9031  16.498  22.263   7.445  0.2142 -0.0645  0.2402
  377BOLB   C4A 9032  16.898  22.440   7.293  0.1211  0.0709  0.1018
  377BOLB   C1B 9033  15.963  21.613   7.862 -0.0712  0.1494  0.1637
  377BOLB   C2B 9034  16.326  21.575   8.000  0.0390  0.0944  0.0621
  377BOLB   C3B 9035  16.717  21.687   8.264  0.2102 -0.0099  0.3641
  377BOLB   C4B 9036  17.089  21.973   8.198 -0.1927  0.3216 -0.2848
  377BOLB   NC2 9037  19.580  23.133   7.026 -0.1863  0.1553  0.1098
  377BOLB   PO2 9038  19.413  22.823   7.124 -0.1763 -0.0174  0.0654
  377BOLB   GL3 9039  18.875  22.707   7.210 -0.1057 -0.0478  0.2349
  377BOLB   GL4 9040  18.580  23.032   7.195  0.2224 -0.2366  0.1753
  377BOLB   C1C 9041  18.375  22.677   7.382  0.1072  0.0424  0.0787
  377BOLB   C2C 9042  18.083  22.637   7.151  0.1923 -0.1568 -0.3777
  377BOLB   C3C 9043  17.697  22.700   7.413 -0.1538 -0.0448  0.0880
  377BOLB   C4C 9044  17.349  22.373   7.275  0.2171 -0.3285  0.0175
  377BOLB   C1D 9045  18.236  23.093   6.972 -0.3577  0.2793 -0.0555
  377BOLB   C2D 9046  17.781  22.980   6.868 -0.0390 -0.0513 -0.1022
  377BOLB   C3D 9047  17.559  22.604   6.888 -0.0792 -0.0179 -0.1490
  377BOLB   C4D 9048  17.436  22.147   6.763 -0.1338  0.4553 -0.1083
  378BOLB   NC1 9049  15.453  29.517  11.817  0.0496  0.0762 -0.4035
  378BOLB   PO1 9050  15.397  29.481  12.299 -0.0416 -0.0045  0.0214
  378BOLB   GL1 9051  15.145  29.211  12.295 -0.1829  0.1852 -0.1816
  378BOLB   GL2 9052  14.973  29.176  12.557  0.0318 -0.0074  0.0955
  378BOLB   C1A 9053  15.083  28.686  12.297 -0.0351  0.1261  0.0917
  378BOLB   C2A 9054  15.097  28.294  12.025 -0.0680 -0.1828  0.2143
  378BOLB   C3A 9055  14.788  28.138  11.851  0.2122 -0.0612  0.2160
  378BOLB   C4A 9056  14.706  27.835  11.600 -0.0086 -0.0235 -0.1046
  378BOLB   C1B 9057  14.661  29.393  12.455 -0.0128  0.3730  0.1903
  378BOLB   C2B 9058  14.295  29.284  12.355 -0.0271 -0.0691  0.0170
  378BOLB   C3B 9059  14.011  29.206  12.105  0.0713  0.0486  0.0361
  378BOLB   C4B 9060  13.748  29.528  11.860  0.4035  0.0120  0.0379
  378BOLB   NC2 9061  13.228  25.660  11.888  0.1955 -0.0951 -0.0536
  378BOLB   PO2 9062  13.197  25.910  11.424 -0.0401 -0.0722 -0.0838
  378BOLB   GL3 9063  13.581  25.903  11.556  0.2612  0.0515 -0.2060
  378BOLB   GL4 9064  13.899  25.631  11.441 -0.1277 -0.0252  0.1230
  378BOLB   C1C 9065  13.869  26.205  11.656  0.1293 -0.1181 -0.0350
  378BOLB   C2C 9066  14.018  26.652  11.510  0.1807  0.1651 -0.1805
  378BOLB   C3C 9067  14.289  27.068  11.660  0.0902  0.0044 -0.1806
  378BOLB   C4C 9068  14.578  27.371  11.709 -0.2605 -0.0753 -0.2086
  378BOLB   C1D 9069  14.226  25.618  11.490  0.1062  0.1438 -0.2575
  378BOLB   C2D 9070  14.554  25.812  11.429 -0.1209 -0.3447  0.2940
  378BOLB   C3D 9071  14.893  25.894  11.304  0.0030  0.2613  0.2236
  378BOLB   C4D 9072  15.298  26.156  11.484  0.1335 -0.2283 -0.2865
  379BOLB   NC1 9073   5.048  20.962   2.609  0.3181 -0.0063  0.1819
  379BOLB   PO1 9074   5.386  21.195   2.652  0.1495  0.1168 -0.2942
  379BOLB   GL1 9075   5.164  21.231   2.184  0.1334  0.3496 -0.1810
  379BOLB   GL2 9076   5.336  21.198   2.016  0.0965 -0.1762  0.0045
  379BOLB   C1A 9077   4.995  21.476   1.803  0.0656  0.0816 -0.0415
  379BOLB   C2A 9078   4.829  21.488   1.298 -0.1783 -0.1999 -0.3868
  379BOLB   C3A 9079   4.671  21.579   0.850 -0.1703  0.0179 -0.1218
  379BOLB   C4A 9080   4.479  21.518   0.432 -0.2306  0.0617 -0.0987
  379BOLB   C1B 9081   5.340  21.035   1.595  0.0032  0.2056 -0.0082
  379BOLB   C2B 9082   5.414  21.228   1.157 -0.1389 -0.0932 -0.0386
  379BOLB   C3B 9083   5.504  21.039   0.724 -0.2139  0.0815  0.0023
  379BOLB   C4B 9084   5.609  20.603   0.731 -0.0286  0.0498  0.0364
  379BOLB   NC2 9085   3.636  22.043  -1.838 -0.1357 -0.1937  0.0826
  379BOLB   PO2 9086   4.041  22.270  -1.809 -0.1497  0.3850  0.0160
  379BOLB   GL3 9087   4.166  22.430  -1.456  0.2569 -0.1852 -0.1821
  379BOLB   GL4 9088   3.870  22.562  -1.171 -0.2345  0.1634 -0.2958
  379BOLB   C1C 9089   4.221  22.355  -0.917  0.0954  0.2566  0.0439
  379BOLB   C2C 9090   4.162  22.288  -0.538  0.3123  0.0894 -0.1915
  379BOLB   C3C 9091   4.105  22.045  -0.258  0.5640  0.0661 -0.0093
  379BOLB   C4C 9092   4.273  21.788   0.003  0.2429  0.1055  0.1361
  379BOLB   C1D 9093   3.688  22.354  -0.882  0.3560  0.1458 -0.0711
  379BOLB   C2D 9094   3.644  22.351  -0.463 -0.0117  0.0612  0.1126
  379BOLB   C3D 9095   3.706  22.165  -0.039 -0.0705 -0.2923 -0.1461
  379BOLB   C4D 9096   3.829  21.870   0.140 -0.0947 -0.4549 -0.0142
  380BOLB   NC1 9097   3.010  26.672  15.315 -0.0919 -0.3335 -0.1962
  380BOLB   PO1 9098   3.119  27.087  15.146 -0.3373 -0.3404 -0.1509
  380BOLB   GL1 9099   3.006  27.404  15.279  0.2304 -0.2139 -0.2107
  380BOLB   GL2 9100   3.004  27.629  15.009 -0.0860  0.0029 -0.2688
  380BOLB   C1A 9101   2.699  27.587  15.469  0.2618  0.0019 -0.3192
  380BOLB   C2A 9102   2.386  27.736  15.737 -0.3428 -0.0775 -0.4297
  380BOLB   C3A 9103   2.184  27.992  16.003  0.1412  0.1333  0.2075
  380BOLB   C4A 9104   2.042  28.139  16.438  0.3638  0.2679 -0.1077
  380BOLB   C1B 9105   2.574  27.875  15.096  0.1104 -0.2938  0.2726
  380BOLB   C2B 9106   2.172  27.973  15.346  0.0667  0.1038  0.1171
  380BOLB   C3B 9107   1.852  27.996  15.586  0.1289  0.0661 -0.1717
  380BOLB   C4B 9108   1.625  28.388  15.580 -0.1772 -0.1710  0.3405
  380BOLB   NC2 9109   1.350  30.594  16.240  0.1133 -0.0530 -0.1715
  380BOLB   PO2 9110   1.800  30.494  16.530 -0.0871 -0.0670 -0.3494
  380BOLB   GL3 9111   1.731  30.135  16.613 -0.2346  0.0411 -0.1068
  380BOLB   GL4 9112   2.126  30.045  16.556  0.4111  0.1777 -0.1764
  380BOLB   C1C 9113   1.698  29.683  16.396  0.0063  0.1338 -0.1018
  380BOLB   C2C 9114   1.661  29.314  16.676 -0.0524  0.0406  0.0875
  380BOLB   C3C 9115   1.658  28.929  16.763  0.1524 -0.1909 -0.2080
  380BOLB   C4C 9116   1.769  28.577  16.497 -0.2752  0.3807 -0.4023
  380BOLB   C1D 9117   2.245  29.589  16.389  0.1731 -0.3106 -0.2426
  380BOLB   C2D 9118   2.261  29.351  15.903  0.0344  0.3922 -0.0512
  380BOLB   C3D 9119   2.587  29.441  15.534  0.1375  0.0209 -0.2271
  380BOLB   C4D 9120   2.777  29.335  15.255 -0.3622 -0.2146 -0.2764
  381BOLB   NC1 9121   0.375  24.092   5.511 -0.1433  0.3089  0.2509
  381BOLB   PO1 9122   0.321  23.702   5.285 -0.0572 -0.2942  0.4536
  381BOLB   GL1 9123   0.135  23.984   5.018 -0.1799 -0.1115  0.1295
  381BOLB   GL2 9124  -0.116  24.036   5.332  0.0204  0.1538 -0.4025
  381BOLB   C1A 9125  -0.139  24.198   4.723  0.2168 -0.0859  0.0847
  381BOLB   C2A 9126  -0.600  24.327   4.523 -0.1578 -0.0060  0.3687
  381BOLB   C3A 9127  -0.838  24.194   4.098  0.2061 -0.0572  0.0277
  381BOLB   C4A 9128  -0.642  24.157   3.783  0.3702 -0.3971 -0.0230
  381BOLB   C1B 9129   0.034  24.457   5.108  0.1845  0.0109 -0.1800
  381BOLB   C2B 9130  -0.180  24.728   4.734 -0.1503 -0.0853 -0.0940
  381BOLB   C3B 9131  -0.498  24.761   4.322  0.4471  0.1715  0.2109
  381BOLB   C4B 9132  -0.515  25.103   4.051 -0.0872  0.0400  0.1121
  381BOLB   NC2 9133  -1.571  25.338   2.123 -0.0506 -0.0771  0.3875
  381BOLB   PO2 9134  -1.692  24.919   2.313  0.0252  0.1033 -0.0011
  381BOLB   GL3 9135  -1.309  24.927   2.478 -0.3844 -0.2999  0.1832
  381BOLB   GL4 9136  -1.236  25.005   2.768 -0.1965  0.1836  0.0743
  381BOLB   C1C 9137  -0.869  24.779   2.538  0.5553  0.0632  0.0715
  381BOLB   C2C 9138  -0.497  24.792   2.905  0.1604 -0.1501  0.0698
  381BOLB   C3C 9139  -0.245  24.700   3.256  0.1132  0.2318 -0.2744
  381BOLB   C4C 9140  -0.389  24.277   3.433 -0.1385  0.0818 -0.2118
  381BOLB   C1D 9141  -1.489  24.826   3.027 -0.2020  0.2067  0.0499
  381BOLB   C2D 9142  -1.740  24.544   3.335  0.0591  0.1800  0.2858
  381BOLB   C3D 9143  -1.563  24.331   3.675 -0.1642  0.1242 -0.0997
  381BOLB   C4D 9144  -1.431  24.030   3.951  0.0988 -0.1458  0.0236
  382BOLB   NC1 9145  30.743  20.325   2.461  0.0046  0.3549  0.0798
  382BOLB   PO1 9146  30.869  20.585   2.697 -0.1387 -0.0216 -0.0019
  382BOLB   GL1 9147  31.130  20.692   2.963  0.1029  0.3007  0.2421
  382BOLB   GL2 9148  31.159  20.454   3.225  0.1598 -0.1396 -0.1013
  382BOLB   C1A 9149  31.591  20.858   3.045 -0.3656 -0.0406  0.2664
  382BOLB   C2A 9150  31.908  21.193   3.156  0.0037  0.1588  0.2497
  382BOLB   C3A 9151  32.169  21.612   3.115  0.2714 -0.1601  0.2617
  382BOLB   C4A 9152  32.376  21.969   3.080 -0.0425  0.0687 -0.0787
  382BOLB   C1B 9153  31.523  20.394   3.450  0.1830  0.2081  0.0567
  382BOLB   C2B 9154  31.889  20.334   3.686 -0.2636 -0.0032 -0.2595
  382BOLB   C3B 9155  32.069  20.192   4.053 -0.0215  0.1191 -0.5655
  382BOLB   C4B 9156  32.133  20.363   4.493 -0.0772 -0.0560  0.1478
  382BOLB   NC2 9157  33.838  22.751   1.547 -0.1532 -0.0380  0.2332
  382BOLB   PO2 9158  33.628  23.004   1.683 -0.2554 -0.2544  0.1891
  382BOLB   GL3 9159  33.674  22.837   2.065 -0.2925 -0.0630 -0.0050
  382BOLB   GL4 9160  33.903  22.487   2.106  0.0541  0.0810 -0.1849
  382BOLB   C1C 9161  33.621  22.722   2.496  0.1499  0.2720 -0.0878
  382BOLB   C2C 9162  33.318  22.729   2.639 -0.0287 -0.1001 -0.2721
  382BOLB   C3C 9163  32.960  22.671   2.857 -0.2730 -0.3897  0.0047
  382BOLB   C4C 9164  32.611  22.402   3.043  0.2552  0.0294  0.2221
  382BOLB   C1D 9165  34.131  22.429   2.550 -0.0583  0.2990 -0.0474
  382BOLB   C2D 9166  33.860  22.499   2.934  0.1681  0.0143  0.3364
  382BOLB   C3D 9167  33.536  22.239   3.089  0.2528 -0.2541  0.0459
  382BOLB   C4D 9168  33.380  22.029   3.462  0.0570  0.1462  0.0751
  383BOLB   NC1 9169   5.757  27.032   5.213  0.2271 -0.2249  0.0977
  383BOLB   PO1 9170   6.135  27.360   5.397  0.0244  0.1219  0.1742
  383BOLB   GL1 9171   6.240  27.576   5.051  0.0376 -0.1893 -0.1733
  383BOLB   GL2 9172   6.037  27.475   4.709 -0.0161 -0.0104 -0.0476
  383BOLB   C1A 9173   6.174  27.996   4.721  0.0476  0.0473  0.4733
  383BOLB   C2A 9174   6.076  28.286   4.479  0.1844  0.0738  0.0277
  383BOLB   C3A 9175   6.211  28.680   4.287  0.3058  0.1872  0.0972
  383BOLB   C4A 9176   6.026  29.004   4.235  0.1263  0.1271  0.2038
  383BOLB   C1B 9177   5.717  27.840   4.646  0.0182 -0.2790  0.1555
  383BOLB   C2B 9178   5.616  28.235   4.638 -0.1413  0.0928 -0.0122
  383BOLB   C3B 9179   5.441  28.577   4.769 -0.0535  0.5169  0.0565
  383BOLB   C4B 9180   5.000  28.844   4.708  0.0527 -0.1557  0.1369
  383BOLB   NC2 9181   6.303  30.027   2.684  0.1222 -0.1325  0.2430
  383BOLB   PO2 9182   6.194  30.376   2.772 -0.1397 -0.1015  0.1873
  383BOLB   GL3 9183   6.245  30.569   3.236 -0.1872 -0.1241  0.0269
  383BOLB   GL4 9184   6.574  30.586   3.440 -0.1744 -0.0336 -0.0297
  383BOLB   C1C 9185   5.911  30.330   3.477 -0.1975  0.0380  0.0236
  383BOLB   C2C 9186   5.701  29.780   3.597  0.0806 -0.0468 -0.1527
  383BOLB   C3C 9187   5.524  29.564   3.927  0.2818  0.3004  0.0361
  383BOLB   C4C 9188   5.673  29.162   4.108  0.0467  0.2287 -0.1128
  383BOLB   C1D 9189   6.488  30.268   3.542 -0.0135 -0.1179 -0.2118
  383BOLB   C2D 9190   6.237  30.026   3.702 -0.2415 -0.1751 -0.0440
  383BOLB   C3D 9191   6.084  29.678   3.921 -0.1372  0.0142 -0.2385
  383BOLB   C4D 9192   5.982  29.510   4.279 -0.0294  0.1785 -0.3733
  384BOLB   NC1 9193   9.442  18.709  17.106 -0.1310  0.2374 -0.0824
  384BOLB   PO1 9194   9.813  18.405  17.162 -0.2058  0.1166  0.2921
  384BOLB   GL1 9195   9.871  18.112  17.461 -0.0439  0.0949 -0.1972
  384BOLB   GL2 9196  10.088  18.189  17.688 -0.1729  0.3665  0.1775
  384BOLB   C1A 9197   9.960  17.721  17.802 -0.0716  0.2190 -0.0635
  384BOLB   C2A 9198  10.223  17.420  18.042  0.0214  0.2530 -0.0463
  384BOLB   C3A 9199  10.563  17.561  18.337 -0.0787  0.0400  0.1620
  384BOLB   C4A 9200  10.698  17.522  18.757  0.1818 -0.2068  0.0727
  384BOLB   C1B 9201  10.412  17.957  18.013 -0.0710  0.3723  0.1339
  384BOLB   C2B 9202  10.755  17.836  17.983 -0.0483  0.2322 -0.1643
  384BOLB   C3B 9203  11.078  17.464  18.125  0.1003 -0.2046 -0.2030
  384BOLB   C4B 9204  11.130  17.117  18.308  0.0219  0.3575 -0.4432
  384BOLB   NC2 9205  12.486  16.446  19.836 -0.3691  0.0437 -0.0901
  384BOLB   PO2 9206  12.334  16.134  19.641 -0.0788 -0.0195  0.0121
  384BOLB   GL3 9207  12.079  16.352  19.458  0.0520  0.0906  0.0443
  384BOLB   GL4 9208  12.030  16.590  19.719 -0.0417 -0.1906 -0.0121
  384BOLB   C1C 9209  11.869  16.453  19.150  0.0769  0.3610 -0.1033
  384BOLB   C2C 9210  11.516  16.552  18.877 -0.1814 -0.1091 -0.0195
  384BOLB   C3C 9211  11.255  16.829  18.719 -0.0251 -0.2253  0.2662
  384BOLB   C4C 9212  10.999  17.235  18.779  0.0157  0.1965  0.3923
  384BOLB   C1D 9213  11.960  16.886  19.399  0.2098 -0.2244  0.4151
  384BOLB   C2D 9214  11.739  17.271  19.354 -0.0206  0.1363  0.1367
  384BOLB   C3D 9215  11.489  17.506  19.103  0.1224  0.0279 -0.2592
  384BOLB   C4D 9216  11.055  17.718  19.108  0.1212  0.2465 -0.3047
  385BOLB   NC1 9217   7.756  26.240  17.429  0.2070  0.1754  0.0855
  385BOLB   PO1 9218   7.318  26.258  17.528  0.1120  0.0430  0.1460
  385BOLB   GL1 9219   7.218  26.400  17.924 -0.0522  0.3802  0.1212
  385BOLB   GL2 9220   7.015  26.700  17.680  0.4636 -0.0279 -0.4118
  385BOLB   C1A 9221   7.200  26.595  18.424 -0.0793  0.0372  0.2490
  385BOLB   C2A 9222   7.080  26.591  18.754 -0.2890 -0.1722  0.0190
  385BOLB   C3A 9223   7.180  26.621  19.188  0.1148  0.0299 -0.0115
  385BOLB   C4A 9224   7.197  26.704  19.592 -0.2288  0.1835 -0.1345
  385BOLB   C1B 9225   6.924  27.033  17.867 -0.3800 -0.1790  0.1669
  385BOLB   C2B 9226   6.871  27.403  17.934 -0.2235 -0.1309 -0.2288
  385BOLB   C3B 9227   7.229  27.790  18.005 -0.1295 -0.1030 -0.1718
  385BOLB   C4B 9228   7.276  27.954  18.399  0.3384  0.0936  0.1296
  385BOLB   NC2 9229   8.191  26.973  22.134 -0.1988  0.3889 -0.0563
  385BOLB   PO2 9230   7.961  26.511  21.997  0.2945 -0.1792 -0.0590
  385BOLB   GL3 9231   7.737  26.486  21.608  0.0621 -0.0806 -0.1574
  385BOLB   GL4 9232   7.963  26.309  21.481  0.1145 -0.0122  0.0394
  385BOLB   C1C 9233   7.610  26.479  21.183 -0.0967  0.2898  0.0501
  385BOLB   C2C 9234   7.661  26.824  20.855 -0.3468 -0.1038 -0.0293
  385BOLB   C3C 9235   7.626  26.819  20.445 -0.1748  0.0816 -0.3080
  385BOLB   C4C 9236   7.486  26.695  19.949  0.2749 -0.6431  0.1114
  385BOLB   C1D 9237   7.896  26.063  21.148  0.1707 -0.0718 -0.2745
  385BOLB   C2D 9238   8.128  26.006  20.831 -0.3520 -0.3134 -0.3237
  385BOLB   C3D 9239   8.210  26.019  20.394 -0.1573  0.3232 -0.0393
  385BOLB   C4D 9240   8.498  26.185  20.133 -0.2652  0.2042  0.3618
  386BOLB   NC1 9241  11.496  18.362   3.299 -0.0650 -0.1464 -0.2049
  386BOLB   PO1 9242  11.051  18.516   3.423  0.1393 -0.1617 -0.1429
  386BOLB   GL1 9243  11.096  18.639   2.880  0.0652  0.4969  0.0386
  386BOLB   GL2 9244  11.062  18.361   2.617 -0.1528 -0.0232  0.2674
  386BOLB   C1A 9245  11.298  18.752   2.557  0.2453 -0.2297  0.0509
  386BOLB   C2A 9246  11.585  18.607   2.297  0.4715 -0.2581  0.3762
  386BOLB   C3A 9247  11.941  18.254   2.209  0.0802  0.1442 -0.0296
  386BOLB   C4A 9248  12.316  18.250   1.977 -0.0979 -0.2977  0.5474
  386BOLB   C1B 9249  11.207  18.301   2.192 -0.0703  0.1384 -0.3265
  386BOLB   C2B 9250  11.135  18.074   1.823 -0.0662  0.1206 -0.3394
  386BOLB   C3B 9251  10.920  17.813   1.503  0.2348 -0.1340  0.0904
  386BOLB   C4B 9252  10.656  17.384   1.444 -0.2946 -0.2581 -0.1357
  386BOLB   NC2 9253  13.192  18.336  -1.017  0.2848  0.2367 -0.0096
  386BOLB   PO2 9254  12.945  18.262  -0.540 -0.1511  0.1248  0.1755
  386BOLB   GL3 9255  12.958  18.441  -0.156 -0.2755 -0.0205 -0.1307
  386BOLB   GL4 9256  13.021  18.770   0.012 -0.1459  0.0047 -0.1164
  386BOLB   C1C 9257  12.889  18.335   0.339  0.0572 -0.1903  0.2722
  386BOLB   C2C 9258  12.819  18.388   0.752 -0.2385  0.1051  0.0110
  386BOLB   C3C 9259  12.674  18.477   1.226  0.2322  0.1799 -0.1039
  386BOLB   C4C 9260  12.562  18.375   1.601  0.2174  0.2005 -0.0081
  386BOLB   C1D 9261  12.629  18.757   0.392 -0.0156 -0.1401  0.4205
  386BOLB   C2D 9262  12.553  18.778   0.787  0.2232  0.0019  0.0377
  386BOLB   C3D 9263  12.347  18.854   1.087  0.2285  0.0745 -0.1576
  386BOLB   C4D 9264  12.322  18.836   1.585 -0.1236  0.0077  0.0690
  387BOLB   NC1 9265  10.425  15.870  26.295  0.0033  0.0150  0.0992
  387BOLB   PO1 9266  10.486  15.391  26.308 -0.0310 -0.2188  0.2831
  387BOLB   GL1 9267  10.787  15.662  26.572 -0.0452  0.0350  0.0110
  387BOLB   GL2 9268  10.707  16.053  26.679  0.0252  0.0527  0.2847
  387BOLB   C1A 9269  10.723  15.628  27.013  0.1859  0.1428  0.0955
  387BOLB   C2A 9270  10.473  15.839  27.229 -0.1494  0.0039  0.0400
  387BOLB   C3A 9271  10.013  16.090  27.324  0.0679  0.1135 -0.1240
  387BOLB   C4A 9272   9.702  16.127  27.420  0.1788  0.0785 -0.5294
  387BOLB   C1B 9273  10.952  16.156  27.062  0.2345  0.4480 -0.0602
  387BOLB   C2B 9274  10.847  16.218  27.557  0.1280 -0.3891 -0.2884
  387BOLB   C3B 9275  10.973  16.584  27.856 -0.0702  0.2428 -0.1245
  387BOLB   C4B 9276  10.983  16.585  28.182  0.2487  0.0174 -0.1914
  387BOLB   NC2 9277   9.296  16.850  29.679  0.0862 -0.3618 -0.0541
  387BOLB   PO2 9278   8.861  16.885  29.607  0.2577  0.0247  0.2138
  387BOLB   GL3 9279   8.737  16.799  29.195  0.3593 -0.1249 -0.0585
  387BOLB   GL4 9280   8.391  16.704  29.080  0.2432 -0.0926  0.1153
  387BOLB   C1C 9281   8.828  16.494  28.903 -0.3855  0.0799 -0.0741
  387BOLB   C2C 9282   9.071  16.283  28.518  0.0672  0.0415  0.1888
  387BOLB   C3C 9283   9.399  16.125  28.178 -0.1998  0.1389  0.0629
  387BOLB   C4C 9284   9.501  16.322  27.752  0.1524  0.1660  0.5136
  387BOLB   C1D 9285   8.368  16.346  28.733 -0.0494 -0.0457 -0.1207
  387BOLB   C2D 9286   8.197  16.249  28.375  0.2453 -0.1026 -0.1008
  387BOLB   C3D 9287   8.043  15.973  28.137  0.0182  0.1235 -0.1181
  387BOLB   C4D 9288   8.291  15.566  27.890 -0.2346 -0.0434 -0.0807
  388BOLB   NC1 9289   3.872  24.082   3.266 -0.0174 -0.0988  0.0544
  388BOLB   PO1 9290   3.550  23.913   3.439 -0.0276  0.0644 -0.1929
  388BOLB   GL1 9291   3.452  24.159   3.053 -0.1496  0.1768 -0.0870
  388BOLB   GL2 9292   3.716  24.301   2.797  0.0521  0.1875  0.1769
  388BOLB   C1A 9293   3.030  24.202   2.743 -0.1512  0.2241 -0.0453
  388BOLB   C2A 9294   2.814  24.106   2.338 -0.1707  0.2116  0.1964
  388BOLB   C3A 9295   2.876  23.984   1.936  0.0839 -0.0641  0.2696
  388BOLB   C4A 9296   3.134  24.120   1.500 -0.1572  0.0510  0.0455
  388BOLB   C1B 9297   3.456  24.256   2.468 -0.0245 -0.3236  0.0194
  388BOLB   C2B 9298   3.276  24.516   2.207  0.2660  0.1073  0.1319
  388BOLB   C3B 9299   3.056  24.459   1.858 -0.4306 -0.0061 -0.1158
  388BOLB   C4B 9300   2.750  24.463   1.786  0.0256 -0.2113  0.1289
  388BOLB   NC2 9301   3.373  24.440  -0.933 -0.0796  0.0125 -0.1277
  388BOLB   PO2 9302   3.673  24.785  -0.859 -0.4829 -0.0086 -0.3649
  388BOLB   GL3 9303   3.680  24.594  -0.485 -0.0071 -0.0520  0.1410
  388BOLB   GL4 9304   3.995  24.709  -0.409 -0.0225  0.1624  0.1107
  388BOLB   C1C 9305   3.655  24.565  -0.089  0.3182  0.1789  0.0019
  388BOLB   C2C 9306   3.427  24.395   0.229  0.1665  0.0489 -0.0909
  388BOLB   C3C 9307   3.416  24.246   0.699 -0.1770  0.1224  0.0114
  388BOLB   C4C 9308   3.290  23.953   1.064  0.3010  0.0991 -0.1196
  388BOLB   C1D 9309   4.349  24.619  -0.129 -0.2770  0.2372  0.0287
  388BOLB   C2D 9310   4.562  24.783   0.185  0.2831 -0.1020 -0.1218
  388BOLB   C3D 9311   4.680  24.600   0.606 -0.3423 -0.3545  0.0826
  388BOLB   C4D 9312   4.919  24.236   0.761  0.2674 -0.0616  0.0037
  389BOLB   NC1 9313  31.268  16.897   3.397 -0.3103  0.0329  0.0617
  389BOLB   PO1 9314  30.996  16.863   3.789  0.1470  0.1857  0.1268
  389BOLB   GL1 9315  31.269  16.877   4.144 -0.1294  0.0083 -0.0084
  389BOLB   GL2 9316  31.367  16.656   4.289 -0.0051  0.0627 -0.1142
  389BOLB   C1A 9317  31.545  17.136   4.368  0.1984  0.0327  0.2067
  389BOLB   C2A 9318  31.888  17.362   4.341 -0.0026  0.2146 -0.3047
  389BOLB   C3A 9319  32.136  17.764   4.424  0.2507  0.0818 -0.3112
  389BOLB   C4A 9320  32.530  17.975   4.374  0.0960  0.1598 -0.5463
  389BOLB   C1B 9321  31.723  16.646   4.051 -0.0839 -0.0068 -0.4246
  389BOLB   C2B 9322  32.102  16.744   3.793  0.0189 -0.0699 -0.1328
  389BOLB   C3B 9323  32.322  16.876   3.412 -0.2170  0.0756  0.0281
  389BOLB   C4B 9324  32.726  16.764   3.175 -0.5884 -0.3120  0.1775
  389BOLB   NC2 9325  31.047  18.215   3.426  0.0204  0.1599 -0.1787
  389BOLB   PO2 9326  30.897  18.411   3.788 -0.1532 -0.1284  0.1994
  389BOLB   GL3 9327  31.304  18.338   4.011 -0.2976  0.0771 -0.3556
  389BOLB   GL4 9328  31.284  18.041   4.243  0.4410 -0.0753  0.1139
  389BOLB   C1C 9329  31.618  18.409   4.412  0.4114 -0.2998 -0.0748
  389BOLB   C2C 9330  31.875  18.647   4.668 -0.1131 -0.1352  0.0701
  389BOLB   C3C 9331  32.322  18.478   4.706 -0.0338  0.0126  0.0640
  389BOLB   C4C 9332  32.652  18.293   4.474 -0.1579 -0.2012  0.2271
  389BOLB   C1D 9333  31.578  17.952   4.557 -0.0594  0.0428  0.1586
  389BOLB   C2D 9334  31.825  18.171   4.815  0.1931  0.2365  0.1744
  389BOLB   C3D 9335  32.264  18.036   4.911 -0.3701 -0.2160  0.1130
  389BOLB   C4D 9336  32.591  17.613   4.746 -0.1904  0.3859 -0.2135
  390BOLB   NC1 9337   4.497  20.036   2.448  0.1149  0.3196 -0.0959
  390BOLB   PO1 9338   4.342  19.661   2.321 -0.0743 -0.0348 -0.1892
  390BOLB   GL1 9339   4.325  19.516   1.833  0.1948  0.0817 -0.0418
  390BOLB   GL2 9340   4.048  19.422   1.743 -0.0614  0.4151 -0.0216
  390BOLB   C1A 9341   4.490  19.465   1.390  0.1116  0.1483  0.4160
  390BOLB   C2A 9342   4.350  19.404   1.025  0.2084  0.2147 -0.1021
  390BOLB   C3A 9343   4.281  19.381   0.592 -0.0189 -0.0314  0.1743
  390BOLB   C4A 9344   4.289  19.618   0.401 -0.1613 -0.1354  0.3513
  390BOLB   C1B 9345   4.201  19.094   1.478  0.1941 -0.1766  0.0064
  390BOLB   C2B 9346   4.142  18.917   1.167  0.1050  0.0291 -0.0239
  390BOLB   C3B 9347   4.171  18.878   0.671 -0.0829 -0.0182 -0.0689
  390BOLB   C4B 9348   3.902  19.024   0.394  0.2129  0.1039 -0.0937
  390BOLB   NC2 9349   3.038  19.265  -1.355 -0.0896  0.1361  0.2221
  390BOLB   PO2 9350   3.423  19.309  -1.432  0.0331 -0.3178  0.1889
  390BOLB   GL3 9351   3.684  19.456  -1.145 -0.3666  0.1725 -0.0009
  390BOLB   GL4 9352   3.680  19.308  -0.844 -0.2213 -0.0477 -0.0575
  390BOLB   C1C 9353   3.951  19.737  -0.925  0.0924  0.0139  0.1085
  390BOLB   C2C 9354   4.319  19.858  -0.667 -0.1574  0.2427 -0.3758
  390BOLB   C3C 9355   4.412  20.075  -0.224 -0.0691 -0.2896 -0.0226
  390BOLB   C4C 9356   4.403  19.998   0.211 -0.2528 -0.0487  0.4140
  390BOLB   C1D 9357   3.475  19.015  -0.497  0.0710 -0.3377  0.3919
  390BOLB   C2D 9358   3.208  18.669  -0.541 -0.0879  0.0623  0.1655
  390BOLB   C3D 9359   2.729  18.492  -0.351  0.2462 -0.3008 -0.0222
  390BOLB   C4D 9360   2.207  18.366  -0.239  0.2145 -0.2251 -0.1438
  391BOLB   NC1 9361  32.083  26.907   7.879  0.1987 -0.3106  0.3048
  391BOLB   PO1 9362  32.433  26.674   7.967  0.1008 -0.5188  0.0991
  391BOLB   GL1 9363  32.666  26.403   8.140  0.2487  0.0026 -0.2029
  391BOLB   GL2 9364  32.990  26.492   8.036  0.0998 -0.1492  0.1943
  391BOLB   C1A 9365  32.797  25.988   8.192 -0.0360  0.0839 -0.0358
  391BOLB   C2A 9366  32.716  25.680   7.927  0.2070 -0.0109 -0.1672
  391BOLB   C3A 9367  32.587  25.262   7.887  0.2312  0.1066  0.1651
  391BOLB   C4A 9368  32.460  24.848   7.733  0.1298 -0.1059  0.5470
  391BOLB   C1B 9369  33.180  25.978   7.914 -0.2460 -0.0943  0.1357
  391BOLB   C2B 9370  33.263  25.614   7.972 -0.1308  0.1796  0.0106
  391BOLB   C3B 9371  33.133  25.286   7.782  0.1371  0.0484 -0.1253
  391BOLB   C4B 9372  33.008  24.874   7.983 -0.0344  0.1113 -0.1084
  391BOLB   NC2 9373  31.117  25.617   7.371 -0.1711 -0.0575  0.1282
  391BOLB   PO2 9374  31.269  25.428   6.918  0.2119 -0.0084 -0.0364
  391BOLB   GL3 9375  31.565  25.322   6.649 -0.1015  0.4161 -0.2973
  391BOLB   GL4 9376  31.970  25.449   6.657  0.0354  0.3385  0.1050
  391BOLB   C1C 9377  31.753  24.925   6.594  0.0952  0.1881  0.0673
  391BOLB   C2C 9378  32.073  24.594   6.551  0.0822 -0.1402  0.0308
  391BOLB   C3C 9379  32.399  24.654   6.936  0.0281 -0.3077  0.2124
  391BOLB   C4C 9380  32.544  24.680   7.288  0.3479 -0.1509  0.0641
  391BOLB   C1D 9381  32.347  25.404   6.863  0.0952  0.2170  0.0069
  391BOLB   C2D 9382  32.701  25.206   7.081 -0.0506  0.0921 -0.0219
  391BOLB   C3D 9383  32.845  25.060   7.462  0.1334  0.0225  0.0582
  391BOLB   C4D 9384  33.232  24.856   7.524 -0.2541  0.0391  0.2852
  392BOLB   NC1 9385  12.631  26.551  12.933 -0.1705  0.0613 -0.2217
  392BOLB   PO1 9386  12.386  26.881  12.748  0.0524  0.5639  0.2850
  392BOLB   GL1 9387  12.639  27.153  12.906 -0.5512  0.3573 -0.2247
  392BOLB   GL2 9388  12.885  26.992  13.097 -0.0601  0.2013 -0.3647
  392BOLB   C1A 9389  12.783  27.420  13.017  0.0793 -0.1264  0.1061
  392BOLB   C2A 9390  12.985  27.768  12.971  0.1047  0.0447  0.0957
  392BOLB   C3A 9391  13.341  27.969  12.762 -0.2319  0.2193  0.2066
  392BOLB   C4A 9392  13.527  28.039  12.432  0.1881  0.1393 -0.2258
  392BOLB   C1B 9393  13.164  27.191  12.827  0.1099 -0.1387 -0.0236
  392BOLB   C2B 9394  13.445  27.395  12.748  0.0245 -0.2563  0.2439
  392BOLB   C3B 9395  13.748  27.679  12.891  0.0680 -0.2143  0.0080
  392BOLB   C4B 9396  13.914  28.166  12.857  0.0313  0.1847 -0.0103
  392BOLB   NC2 9397  15.462  29.111  12.664  0.1066  0.1051 -0.2489
  392BOLB   PO2 9398  15.298  29.318  13.104 -0.2253 -0.2655  0.2131
  392BOLB   GL3 9399  15.046  29.065  13.136 -0.1573 -0.0182  0.0716
  392BOLB   GL4 9400  15.109  28.966  13.440 -0.1877 -0.3049 -0.3630
  392BOLB   C1C 9401  14.764  28.735  12.870 -0.1317  0.0681  0.0881
  392BOLB   C2C 9402  14.538  28.795  12.505  0.1265 -0.4795 -0.1881
  392BOLB   C3C 9403  14.227  28.739  12.227  0.0465  0.0440  0.2873
  392BOLB   C4C 9404  13.904  28.388  12.310 -0.0939  0.0376 -0.1181
  392BOLB   C1D 9405  14.866  28.520  13.366  0.5052 -0.1443  0.0750
  392BOLB   C2D 9406  14.733  28.182  13.032 -0.1694 -0.1154 -0.2338
  392BOLB   C3D 9407  14.608  27.811  12.997  0.0621  0.0312 -0.3333
  392BOLB   C4D 9408  14.249  27.688  12.840  0.1809 -0.0178  0.0952
  393BOLB   NC1 9409   8.746  14.089   6.940 -0.2275 -0.1337  0.3108
  393BOLB   PO1 9410   8.757  13.680   7.112 -0.0815 -0.0045 -0.4340
  393BOLB   GL1 9411   8.867  13.320   7.013 -0.1017 -0.0289  0.0892
  393BOLB   GL2 9412   9.079  13.167   7.268 -0.2637 -0.0413 -0.1159
  393BOLB   C1A 9413   9.202  12.963   6.856 -0.2965  0.1643 -0.1506
  393BOLB   C2A 9414   9.232  12.543   6.840 -0.1891  0.0342 -0.1139
  393BOLB   C3A 9415   9.215  12.049   7.049 -0.1733  0.0283  0.0965
  393BOLB   C4A 9416   9.490  11.836   7.428 -0.3142 -0.1307  0.0570
  393BOLB   C1B 9417   9.116  12.723   7.485  0.0140  0.0567  0.0965
  393BOLB   C2B 9418   9.065  12.244   7.462  0.3803  0.1613 -0.5083
  393BOLB   C3B 9419   8.989  11.816   7.456 -0.0826  0.0122  0.0990
  393BOLB   C4B 9420   8.936  11.386   7.402  0.0282  0.1918  0.1725
  393BOLB   NC2 9421   9.764   9.483   7.042 -0.1453 -0.1684  0.0940
  393BOLB   PO2 9422   9.937   9.626   7.462 -0.0373 -0.5738 -0.2326
  393BOLB   GL3 9423   9.647   9.935   7.331  0.1859 -0.0618 -0.1045
  393BOLB   GL4 9424   9.824  10.296   7.303  0.1041  0.0400  0.1080
  393BOLB   C1C 9425   9.353  10.294   7.540  0.1046 -0.0898  0.0403
  393BOLB   C2C 9426   9.279  10.779   7.693  0.1211 -0.2762  0.2537
  393BOLB   C3C 9427   9.330  11.255   7.662 -0.4243  0.2506 -0.1061
  393BOLB   C4C 9428   9.525  11.536   7.638  0.2668  0.1824 -0.1012
  393BOLB   C1D 9429  10.190  10.649   7.247  0.2682 -0.1282 -0.0786
  393BOLB   C2D 9430  10.508  10.939   7.420  0.0842 -0.4073 -0.0596
  393BOLB   C3D 9431  10.666  11.362   7.364  0.4221  0.2894  0.0575
  393BOLB   C4D 9432  10.741  11.754   7.610 -0.1544 -0.0969 -0.0395
  394BOLB   NC1 9433  13.180  23.177   5.491 -0.3316 -0.3344 -0.1806
  394BOLB   PO1 9434  12.999  23.476   5.302 -0.0800 -0.2552  0.0896
  394BOLB   GL1 9435  13.314  23.745   5.377 -0.1216  0.0923 -0.4137
  394BOLB   GL2 9436  13.480  23.494   5.198 -0.0502 -0.5025  0.0957
  394BOLB   C1A 9437  13.747  23.908   5.370 -0.0339 -0.1159  0.2490
  394BOLB   C2A 9438  14.073  23.991   5.056 -0.4298 -0.0998 -0.3825
  394BOLB   C3A 9439  14.427  24.085   4.725  0.2490  0.1104  0.0564
  394BOLB   C4A 9440  14.707  24.101   4.374 -0.2866 -0.2206 -0.0396
  394BOLB   C1B 9441  13.698  23.639   4.882 -0.0427  0.1206  0.0537
  394BOLB   C2B 9442  13.942  23.909   4.570  0.2093 -0.0101 -0.1990
  394BOLB   C3B 9443  14.129  24.286   4.212  0.3039  0.1518  0.0582
  394BOLB   C4B 9444  14.234  24.581   3.755  0.1313  0.2242  0.1451
  394BOLB   NC2 9445  15.630  24.985   2.633 -0.1194  0.1780  0.0316
  394BOLB   PO2 9446  15.793  24.498   2.592 -0.0998  0.1210 -0.0972
  394BOLB   GL3 9447  15.692  24.458   2.964 -0.0997  0.0835  0.4486
  394BOLB   GL4 9448  15.765  24.244   3.107 -0.0698  0.0839 -0.3865
  394BOLB   C1C 9449  15.296  24.397   3.169 -0.2333  0.1224  0.0737
  394BOLB   C2C 9450  14.932  24.232   3.275 -0.0803 -0.0533 -0.3323
  394BOLB   C3C 9451  14.632  24.240   3.557 -0.0626  0.0394 -0.1340
  394BOLB   C4C 9452  14.569  24.251   4.003  0.1147  0.1347 -0.1977
  394BOLB   C1D 9453  15.545  24.095   3.522 -0.0682 -0.2162 -0.2723
  394BOLB   C2D 9454  15.481  23.881   3.851  0.2122 -0.1960  0.1646
  394BOLB   C3D 9455  15.704  23.804   4.180 -0.2077  0.1743  0.1258
  394BOLB   C4D 9456  15.920  23.670   4.402  0.1548 -0.2735  0.1817
  395BOLB   NC1 9457  14.690  22.290   9.354 -0.0756  0.0674 -0.2619
  395BOLB   PO1 9458  15.160  22.066   9.435  0.0832 -0.0620  0.5321
  395BOLB   GL1 9459  15.541  22.096   9.396  0.1435 -0.2487  0.0393
  395BOLB   GL2 9460  15.838  22.184   9.251 -0.1876  0.5711 -0.1878
  395BOLB   C1A 9461  15.750  22.123   9.750  0.1122 -0.0349 -0.1480
  395BOLB   C2A 9462  16.068  22.301   9.856  0.0854 -0.2302  0.1279
  395BOLB   C3A 9463  16.548  22.405  10.021  0.4162  0.1048 -0.2396
  395BOLB   C4A 9464  16.900  22.108  10.052  0.1831 -0.4921 -0.1722
  395BOLB   C1B 9465  16.217  22.272   9.349 -0.0725  0.1249  0.0655
  395BOLB   C2B 9466  16.628  22.209   9.061 -0.0684 -0.0177  0.0414
  395BOLB   C3B 9467  17.077  22.524   9.068  0.0718  0.0648  0.1084
  395BOLB   C4B 9468  17.319  22.739   9.452  0.1023  0.1039 -0.1457
  395BOLB   NC2 9469  19.688  21.971   9.315 -0.2096  0.1490 -0.1513
  395BOLB   PO2 9470  19.425  22.021   9.653  0.1760 -0.0394  0.0574
  395BOLB   GL3 9471  19.079  21.991   9.973 -0.1099 -0.0691 -0.1441
  395BOLB   GL4 9472  19.176  21.655   9.904 -0.3002  0.1146  0.0020
  395BOLB   C1C 9473  18.607  22.120   9.963 -0.1925  0.0449  0.2118
  395BOLB   C2C 9474  18.192  21.933  10.082 -0.0761  0.2253  0.0433
  395BOLB   C3C 9475  17.719  21.848  10.015  0.1556  0.0692 -0.2584
  395BOLB   C4C 9476  17.286  21.995   9.943 -0.1495  0.5147  0.3013
  395BOLB   C1D 9477  18.640  21.655   9.990 -0.2190  0.3732 -0.0304
  395BOLB   C2D 9478  18.397  21.226  10.070  0.2016  0.0122 -0.0314
  395BOLB   C3D 9479  18.544  20.807   9.940  0.1090  0.1710  0.2135
  395BOLB   C4D 9480  18.311  20.396   9.972 -0.3227 -0.0866 -0.3276
  396BOLB   NC1 9481   1.897  21.351   3.998 -0.0318 -0.2241  0.1571
  396BOLB   PO1 9482   1.594  21.032   3.939  0.2953  0.0829  0.2225
  396BOLB   GL1 9483   1.522  20.818   3.541 -0.2978  0.0820 -0.2657
  396BOLB   GL2 9484   1.756  20.719   3.333  0.2176 -0.2423 -0.3565
  396BOLB   C1A 9485   1.220  20.961   3.191 -0.0070  0.0551 -0.0755
  396BOLB   C2A 9486   0.842  21.081   3.085 -0.2397  0.3244  0.0227
  396BOLB   C3A 9487   0.511  20.966   2.825  0.0020 -0.0066  0.3966
  396BOLB   C4A 9488   0.327  20.926   2.473 -0.1832 -0.2058 -0.3769
  396BOLB   C1B 9489   1.568  20.526   3.063 -0.0448  0.1288  0.1467
  396BOLB   C2B 9490   1.377  20.418   2.611 -0.1590  0.1202  0.1587
  396BOLB   C3B 9491   1.169  20.188   2.295 -0.1269 -0.0758 -0.0178
  396BOLB   C4B 9492   1.223  20.336   1.871 -0.2846  0.2100  0.0204
  396BOLB   NC2 9493  -0.755  22.030   0.884  0.4505  0.0980  0.2565
  396BOLB   PO2 9494  -0.499  21.726   0.689  0.2192  0.3328 -0.1204
  396BOLB   GL3 9495  -0.463  21.659   1.068  0.4635  0.0140 -0.3400
  396BOLB   GL4 9496  -0.372  21.390   1.106  0.0256  0.5059  0.3090
  396BOLB   C1C 9497  -0.209  21.763   1.410  0.1415  0.0900  0.0556
  396BOLB   C2C 9498  -0.014  21.481   1.729 -0.1540  0.2886 -0.0846
  396BOLB   C3C 9499   0.224  21.125   1.699 -0.0397  0.2658 -0.2141
  396BOLB   C4C 9500   0.371  20.972   2.073 -0.1565  0.0280 -0.2613
  396BOLB   C1D 9501  -0.425  21.276   1.498  0.0533  0.2389 -0.0293
  396BOLB   C2D 9502  -0.414  21.078   1.891  0.1138  0.2004 -0.0347
  396BOLB   C3D 9503  -0.111  21.174   2.150  0.2916 -0.1592 -0.0752
  396BOLB   C4D 9504   0.222  21.503   2.162  0.0732 -0.0352 -0.2606
  397BOLB   NC1 9505   4.536  26.650  16.292  0.2296 -0.3500 -0.3549
  397BOLB   PO1 9506   4.939  26.779  16.182  0.1768 -0.0137 -0.2749
  397BOLB   GL1 9507   4.830  27.095  16.506 -0.0251 -0.3009  0.0277
  397BOLB   GL2 9508   5.046  27.265  16.502  0.0584 -0.0429  0.3208
  397BOLB   C1A 9509   4.455  27.383  16.642 -0.0719  0.0874 -0.2294
  397BOLB   C2A 9510   4.228  27.721  16.839  0.1293 -0.0399  0.1762
  397BOLB   C3A 9511   4.048  28.056  16.976  0.2572 -0.0326  0.0682
  397BOLB   C4A 9512   3.901  28.415  16.968 -0.0462  0.0620  0.3478
  397BOLB   C1B 9513   4.896  27.723  16.561 -0.1943  0.0903 -0.0226
  397BOLB   C2B 9514   4.730  27.998  16.968 -0.1274 -0.0199 -0.0316
  397BOLB   C3B 9515   4.531  27.667  17.194  0.0560  0.1564 -0.1563
  397BOLB   C4B 9516   4.270  27.409  17.412  0.0884 -0.2327  0.1987
  397BOLB   NC2 9517   4.230  30.569  18.390  0.0069 -0.2279  0.0606
  397BOLB   PO2 9518   4.034  30.131  18.488 -0.0966 -0.3747 -0.3608
  397BOLB   GL3 9519   4.011  29.771  18.228 -0.2049  0.2045 -0.1723
  397BOLB   GL4 9520   3.943  29.431  18.367  0.2231 -0.1796  0.0626
  397BOLB   C1C 9521   4.054  29.654  17.853 -0.0045  0.0443 -0.0233
  397BOLB   C2C 9522   4.200  29.511  17.554  0.1405 -0.0336  0.0504
  397BOLB   C3C 9523   4.030  29.026  17.534  0.2639 -0.2845  0.0939
  397BOLB   C4C 9524   3.861  28.781  17.188  0.0268 -0.1319 -0.1894
  397BOLB   C1D 9525   4.132  29.175  18.006  0.1225 -0.0078 -0.0331
  397BOLB   C2D 9526   4.467  28.775  17.865 -0.0395  0.2276 -0.0830
  397BOLB   C3D 9527   4.625  28.527  17.488  0.0342 -0.0328 -0.2996
  397BOLB   C4D 9528   4.900  28.409  17.109 -0.0321 -0.2317 -0.2119
  398BOLB   NC1 9529   9.540  16.381  15.805  0.1114 -0.0447 -0.1015
  398BOLB   PO1 9530   9.874  16.527  15.577 -0.1436  0.1075 -0.2953
  398BOLB   GL1 9531  10.127  16.268  15.743 -0.0060 -0.1194 -0.0408
  398BOLB   GL2 9532  10.027  16.240  16.015  0.2602  0.0488  0.1422
  398BOLB   C1A 9533  10.468  16.022  15.783  0.3202 -0.1328 -0.0586
  398BOLB   C2A 9534  10.610  15.909  16.104 -0.0213  0.2510  0.1135
  398BOLB   C3A 9535  10.726  15.430  16.107 -0.0305 -0.0897  0.1960
  398BOLB   C4A 9536  10.586  15.034  16.252  0.2725 -0.3129  0.1428
  398BOLB   C1B 9537  10.277  16.082  16.401  0.0931  0.1462 -0.0317
  398BOLB   C2B 9538  10.116  15.768  16.814  0.2207 -0.2970 -0.0070
  398BOLB   C3B 9539   9.764  15.590  17.166 -0.3193  0.0347 -0.1331
  398BOLB   C4B 9540   9.398  15.284  17.024 -0.0192 -0.0249 -0.0138
  398BOLB   NC2 9541  12.024  13.324  17.800 -0.3011  0.2277  0.3515
  398BOLB   PO2 9542  11.861  13.361  17.424  0.1611  0.0685 -0.1599
  398BOLB   GL3 9543  11.810  13.526  17.013 -0.2434 -0.2948 -0.1084
  398BOLB   GL4 9544  11.462  13.514  16.982 -0.0884 -0.1725  0.1303
  398BOLB   C1C 9545  11.697  14.019  16.902 -0.1915 -0.2902  0.1614
  398BOLB   C2C 9546  11.260  14.140  16.918  0.2761 -0.1681 -0.3690
  398BOLB   C3C 9547  10.965  14.483  16.907 -0.0311  0.0277 -0.3794
  398BOLB   C4C 9548  10.682  14.765  16.661 -0.0073 -0.0472  0.0901
  398BOLB   C1D 9549  11.640  13.621  16.551 -0.1163 -0.0423  0.1279
  398BOLB   C2D 9550  11.582  13.902  16.095  0.0479  0.1912  0.1207
  398BOLB   C3D 9551  11.447  14.267  15.916 -0.2465 -0.3467  0.1475
  398BOLB   C4D 9552  11.515  14.568  15.542 -0.4359  0.0733 -0.0552
  399BOLB   NC1 9553   9.002  27.757  12.813 -0.0297 -0.1357 -0.1042
  399BOLB   PO1 9554   9.249  27.872  13.101 -0.2109  0.3373  0.4118
  399BOLB   GL1 9555   9.491  28.240  13.255  0.0407 -0.1210  0.2672
  399BOLB   GL2 9556   9.790  28.157  13.558  0.2265 -0.1693  0.1292
  399BOLB   C1A 9557   9.608  28.677  13.216  0.0108 -0.0727  0.1317
  399BOLB   C2A 9558   9.775  29.038  13.501 -0.1475 -0.1831 -0.0027
  399BOLB   C3A 9559   9.834  29.477  13.617  0.2011  0.0147  0.0789
  399BOLB   C4A 9560   9.841  29.901  13.407  0.2384 -0.1924 -0.1436
  399BOLB   C1B 9561  10.034  28.519  13.520 -0.1609  0.1013 -0.1182
  399BOLB   C2B 9562  10.149  28.912  13.788 -0.0589 -0.0479 -0.2118
  399BOLB   C3B 9563  10.182  29.301  14.074 -0.0046  0.0455  0.0958
  399BOLB   C4B 9564  10.453  29.663  14.331 -0.0219 -0.0545  0.1331
  399BOLB   NC2 9565   9.978  32.332  14.694  0.2575 -0.2588 -0.4593
  399BOLB   PO2 9566  10.294  32.075  14.461 -0.3198  0.0181 -0.1612
  399BOLB   GL3 9567  10.161  31.677  14.222  0.0948 -0.0802 -0.0369
  399BOLB   GL4 9568  10.342  31.413  14.004  0.0214 -0.1593 -0.1672
  399BOLB   C1C 9569   9.929  31.322  14.247  0.4806  0.1493 -0.0937
  399BOLB   C2C 9570   9.670  31.069  13.992 -0.3239  0.1847  0.0949
  399BOLB   C3C 9571   9.903  30.731  13.770  0.0654  0.2657  0.0407
  399BOLB   C4C 9572   9.854  30.369  13.504 -0.0536 -0.0083  0.3508
  399BOLB   C1D 9573  10.195  30.972  14.053  0.1384 -0.0451 -0.0988
  399BOLB   C2D 9574  10.208  30.530  14.200 -0.0296 -0.1635 -0.1108
  399BOLB   C3D 9575  10.030  30.180  14.172  0.1002  0.0947 -0.1155
  399BOLB   C4D 9576   9.747  29.920  13.904 -0.2036  0.0543 -0.3551
  400BOLB   NC1 9577  11.594  22.840   3.553 -0.2314  0.1411  0.0379
  400BOLB   PO1 9578  11.655  23.262   3.821  0.2381  0.0555 -0.2048
  400BOLB   GL1 9579  11.786  23.383   3.530  0.2105  0.0423  0.0416
  400BOLB   GL2 9580  11.836  23.210   3.311 -0.0888  0.0484 -0.1692
  400BOLB   C1A 9581  11.862  23.666   3.260 -0.2617 -0.1939 -0.3371
  400BOLB   C2A 9582  11.912  23.944   3.005 -0.1756 -0.1101 -0.1722
  400BOLB   C3A 9583  12.224  24.182   2.737 -0.4195 -0.0275 -0.0084
  400BOLB   C4A 9584  12.634  24.253   2.619  0.0979 -0.1184 -0.1617
  400BOLB   C1B 9585  11.837  23.311   2.965 -0.1490 -0.2280  0.0194
  400BOLB   C2B 9586  11.959  23.474   2.729 -0.0307  0.0490 -0.0784
  400BOLB   C3B 9587  12.280  23.692   2.649  0.1490  0.3903 -0.2237
  400BOLB   C4B 9588  12.705  23.658   2.617 -0.0004  0.1831  0.1143
  400BOLB   NC2 9589  13.276  25.409   0.670  0.0844 -0.1058 -0.0803
  400BOLB   PO2 9590  13.219  24.998   0.576  0.1407  0.2914  0.1932
  400BOLB   GL3 9591  13.018  24.822   0.861  0.2839 -0.0322 -0.4594
  400BOLB   GL4 9592  13.221  24.605   1.092  0.0904  0.0983 -0.0440
  400BOLB   C1C 9593  12.763  24.823   1.267 -0.1276 -0.5400  0.1430
  400BOLB   C2C 9594  12.781  24.658   1.620 -0.2132  0.1125 -0.2200
  400BOLB   C3C 9595  13.015  24.609   1.973 -0.0105  0.0491  0.0861
  400BOLB   C4C 9596  12.996  24.533   2.439 -0.2063  0.1574  0.0367
  400BOLB   C1D 9597  13.404  24.165   1.165  0.1024 -0.0115  0.0662
  400BOLB   C2D 9598  13.231  23.821   1.537 -0.1849 -0.1216 -0.0492
  400BOLB   C3D 9599  13.037  23.648   1.898  0.1720 -0.3465  0.0805
  400BOLB   C4D 9600  12.709  23.501   2.178  0.0586 -0.1841 -0.2754
  401BOLB   NC1 9601   3.300  27.975   9.835 -0.0464  0.1675  0.0121
  401BOLB   PO1 9602   3.484  28.325   9.714 -0.0015  0.3653 -0.1270
  401BOLB   GL1 9603   3.300  28.633   9.802 -0.7059 -0.1071  0.0342
  401BOLB   GL2 9604   3.394  28.792  10.014 -0.0181 -0.0610 -0.0463
  401BOLB   C1A 9605   3.201  29.065   9.599 -0.2000 -0.0189  0.2024
  401BOLB   C2A 9606   3.115  29.376   9.319  0.0194  0.0449  0.4018
  401BOLB   C3A 9607   3.041  29.835   9.209  0.2456  0.0099  0.0290
  401BOLB   C4A 9608   2.799  30.144   9.338 -0.2891 -0.0593  0.1739
  401BOLB   C1B 9609   3.315  29.163  10.143  0.0036  0.0086 -0.3514
  401BOLB   C2B 9610   3.112  29.482  10.276 -0.1705 -0.0696  0.1141
  401BOLB   C3B 9611   2.977  29.767  10.560  0.0799  0.1981 -0.0708
  401BOLB   C4B 9612   2.684  30.059  10.545  0.3624 -0.0842 -0.1441
  401BOLB   NC2 9613   3.190  32.737   8.616 -0.3413 -0.2635  0.2316
  401BOLB   PO2 9614   2.910  32.376   8.853 -0.1309 -0.0864 -0.1258
  401BOLB   GL3 9615   3.020  32.091   9.034 -0.3159 -0.2331 -0.1148
  401BOLB   GL4 9616   3.321  32.252   9.160 -0.2198 -0.0157 -0.2837
  401BOLB   C1C 9617   3.033  31.643   9.133  0.1867  0.1992 -0.0279
  401BOLB   C2C 9618   3.068  31.308   9.299  0.0901  0.2134 -0.0798
  401BOLB   C3C 9619   3.153  30.937   9.353  0.1502 -0.1145 -0.0790
  401BOLB   C4C 9620   2.935  30.573   9.356 -0.0467  0.0004 -0.1480
  401BOLB   C1D 9621   3.462  31.941   9.512 -0.1690 -0.0319  0.1669
  401BOLB   C2D 9622   3.634  32.061   9.956 -0.0608  0.0824 -0.5091
  401BOLB   C3D 9623   3.599  31.966  10.345  0.1761  0.0026  0.0579
  401BOLB   C4D 9624   3.309  31.756  10.657 -0.0602 -0.0672  0.0117
  402BOLB   NC1 9625   7.238  29.484  10.569 -0.0335  0.0736  0.0553
  402BOLB   PO1 9626   7.047  29.156  10.280  0.2896  0.0375 -0.3088
  402BOLB   GL1 9627   6.875  29.617  10.233 -0.1376 -0.0630 -0.2228
  402BOLB   GL2 9628   7.095  29.937  10.348  0.0102 -0.2998  0.2350
  402BOLB   C1A 9629   6.711  29.929  10.030 -0.1501  0.2375  0.0111
  402BOLB   C2A 9630   6.508  30.334  10.059  0.0593  0.1753  0.1258
  402BOLB   C3A 9631   6.603  30.646  10.330 -0.1638  0.3047 -0.1803
  402BOLB   C4A 9632   6.359  31.017  10.488  0.0490  0.1436 -0.1852
  402BOLB   C1B 9633   7.065  30.398  10.295 -0.4482  0.1324  0.0320
  402BOLB   C2B 9634   7.028  30.726  10.011  0.1145 -0.0181 -0.2088
  402BOLB   C3B 9635   6.989  30.412   9.683  0.3084  0.1978 -0.1327
  402BOLB   C4B 9636   6.670  30.221   9.546  0.1014 -0.0041  0.1912
  402BOLB   NC2 9637   5.918  33.168   9.822 -0.3167  0.1019  0.1335
  402BOLB   PO2 9638   5.826  33.250  10.228 -0.0353  0.2520 -0.0875
  402BOLB   GL3 9639   5.897  32.801  10.301  0.2835 -0.1533 -0.1540
  402BOLB   GL4 9640   5.889  32.589  10.082 -0.0023 -0.2144  0.0079
  402BOLB   C1C 9641   6.115  32.570  10.609 -0.1527  0.1233  0.2305
  402BOLB   C2C 9642   6.102  32.184  10.789 -0.0694  0.0796  0.0428
  402BOLB   C3C 9643   6.169  31.804  10.913  0.1763  0.2927 -0.1767
  402BOLB   C4C 9644   6.156  31.298  10.911  0.0384 -0.0475 -0.0019
  402BOLB   C1D 9645   5.601  32.287   9.851 -0.0196 -0.0103 -0.2506
  402BOLB   C2D 9646   5.531  31.947  10.192 -0.0494  0.1051 -0.1098
  402BOLB   C3D 9647   5.663  31.472  10.221  0.1812 -0.0655  0.4400
  402BOLB   C4D 9648   5.721  31.247  10.645 -0.2487 -0.1943  0.2746
  403BOLB   NC1 9649   6.108  25.282  17.601 -0.3371  0.1036 -0.3219
  403BOLB   PO1 9650   6.143  24.854  17.747  0.2189 -0.0045 -0.0156
  403BOLB   GL1 9651   5.948  25.091  18.044  0.2890  0.2433  0.2105
  403BOLB   GL2 9652   5.646  25.088  18.031 -0.1979 -0.0191 -0.1507
  403BOLB   C1A 9653   6.007  25.355  18.423  0.1940 -0.3064  0.1395
  403BOLB   C2A 9654   5.923  25.343  18.873  0.0955 -0.0323 -0.0475
  403BOLB   C3A 9655   5.821  25.575  19.186  0.1757 -0.0105  0.3715
  403BOLB   C4A 9656   5.985  25.702  19.541 -0.0221 -0.0325 -0.1167
  403BOLB   C1B 9657   5.271  25.179  18.426 -0.0174 -0.4706 -0.0848
  403BOLB   C2B 9658   4.936  25.216  18.828  0.3055 -0.0146 -0.3792
  403BOLB   C3B 9659   4.580  25.299  19.139  0.2022  0.1477 -0.0740
  403BOLB   C4B 9660   4.321  25.542  19.370  0.0670  0.0699  0.0047
  403BOLB   NC2 9661   5.601  25.708  22.023 -0.2536 -0.0122 -0.1462
  403BOLB   PO2 9662   5.279  26.007  21.872 -0.1461 -0.1620  0.2726
  403BOLB   GL3 9663   5.377  25.897  21.520 -0.1343  0.1773  0.0373
  403BOLB   GL4 9664   5.442  25.575  21.553  0.0863  0.2924 -0.0078
  403BOLB   C1C 9665   5.467  26.079  21.064  0.0422  0.2300 -0.2578
  403BOLB   C2C 9666   5.890  25.929  20.928 -0.0980 -0.0310 -0.1597
  403BOLB   C3C 9667   5.966  25.861  20.508 -0.0973 -0.1035  0.0454
  403BOLB   C4C 9668   5.994  25.848  20.044  0.0951 -0.2200 -0.3043
  403BOLB   C1D 9669   5.525  25.505  21.113 -0.0662 -0.2080  0.1094
  403BOLB   C2D 9670   5.501  25.665  20.686  0.0430  0.0048 -0.1751
  403BOLB   C3D 9671   5.498  25.759  20.269  0.2027  0.1854 -0.0561
  403BOLB   C4D 9672   5.547  25.882  19.844 -0.2141 -0.2070 -0.3345
  404BOLB   NC1 9673   8.709  19.972   2.362 -0.1061 -0.1307 -0.0694
  404BOLB   PO1 9674   9.105  20.077   2.343  0.2807 -0.0552 -0.0376
  404BOLB   GL1 9675   9.195  19.972   1.838 -0.1168  0.1041 -0.0111
  404BOLB   GL2 9676   8.814  19.978   1.764  0.0585  0.1233  0.3619
  404BOLB   C1A 9677   9.293  19.817   1.462  0.1303  0.0768 -0.3752
  404BOLB   C2A 9678   9.386  19.917   1.162 -0.2234  0.0040  0.1478
  404BOLB   C3A 9679   9.700  20.186   1.022 -0.2544 -0.0177 -0.1173
  404BOLB   C4A 9680   9.720  20.333   0.660  0.1002 -0.1737  0.2748
  404BOLB   C1B 9681   8.913  20.183   1.359 -0.0454  0.1381 -0.1731
  404BOLB   C2B 9682   8.739  20.325   1.005  0.4055 -0.1222  0.1494
  404BOLB   C3B 9683   8.416  20.442   0.632 -0.1033 -0.0587 -0.2404
  404BOLB   C4B 9684   8.555  20.615   0.146 -0.1429  0.1989 -0.0389
  404BOLB   NC2 9685   9.296  20.350  -1.784 -0.1346 -0.0156 -0.0026
  404BOLB   PO2 9686   9.783  20.413  -1.880 -0.2330  0.1105  0.2293
  404BOLB   GL3 9687   9.710  20.574  -1.468  0.2831 -0.2324  0.1618
  404BOLB   GL4 9688   9.999  20.634  -1.215  0.1259  0.2632  0.5544
  404BOLB   C1C 9689   9.526  20.342  -1.168 -0.0226 -0.1281 -0.1750
  404BOLB   C2C 9690   9.486  20.179  -0.741  0.0138  0.2137 -0.1016
  404BOLB   C3C 9691   9.670  20.080  -0.162  0.0500 -0.1879 -0.0539
  404BOLB   C4C 9692   9.623  20.132   0.262 -0.1272  0.0652 -0.1267
  404BOLB   C1D 9693   9.958  20.583  -0.741 -0.7615 -0.3561  0.0326
  404BOLB   C2D 9694   9.860  20.486  -0.358  0.2020 -0.4087 -0.0728
  404BOLB   C3D 9695   9.785  20.600   0.064 -0.2808  0.2720 -0.1009
  404BOLB   C4D 9696   9.925  20.673   0.371  0.2100 -0.1994  0.1228
  405BOLB   NC1 9697   3.303  27.702  13.976  0.0661 -0.0509 -0.0737
  405BOLB   PO1 9698   3.679  27.696  14.142  0.0761  0.2773  0.0081
  405BOLB   GL1 9699   3.670  28.107  14.307 -0.2745 -0.1924  0.0827
  405BOLB   GL2 9700   3.941  28.085  14.443  0.4131  0.0510 -0.1006
  405BOLB   C1A 9701   3.283  28.334  14.400 -0.1825 -0.0142  0.7172
  405BOLB   C2A 9702   2.881  28.555  14.364  0.1509 -0.2821 -0.0026
  405BOLB   C3A 9703   2.547  28.662  14.695 -0.0416 -0.3271 -0.3038
  405BOLB   C4A 9704   2.094  28.833  14.787  0.1219 -0.0267 -0.2222
  405BOLB   C1B 9705   4.086  28.436  14.744 -0.0083 -0.0137  0.0712
  405BOLB   C2B 9706   3.928  28.844  14.762  0.2967 -0.3196  0.1225
  405BOLB   C3B 9707   3.605  29.186  14.775 -0.1586  0.3021 -0.0288
  405BOLB   C4B 9708   3.354  29.406  15.046 -0.3047 -0.2268 -0.1925
  405BOLB   NC2 9709   2.018  30.618  16.069  0.0218  0.0743 -0.0584
  405BOLB   PO2 9710   1.701  30.937  15.976  0.1401 -0.0040 -0.1643
  405BOLB   GL3 9711   1.643  30.505  15.776 -0.0763 -0.0673  0.0720
  405BOLB   GL4 9712   1.348  30.444  15.672  0.2747  0.0468  0.0242
  405BOLB   C1C 9713   1.833  30.172  15.573  0.0647 -0.0021 -0.3789
  405BOLB   C2C 9714   1.713  29.839  15.340 -0.1587 -0.1492 -0.0303
  405BOLB   C3C 9715   1.668  29.577  15.024 -0.0825 -0.1250  0.1766
  405BOLB   C4C 9716   1.926  29.190  14.777 -0.0954  0.0470  0.0071
  405BOLB   C1D 9717   1.329  29.920  15.647  0.0705 -0.1667  0.2001
  405BOLB   C2D 9718   1.351  29.449  15.463  0.1892  0.1072 -0.2624
  405BOLB   C3D 9719   1.423  29.008  15.382 -0.0808  0.1172  0.3076
  405BOLB   C4D 9720   1.239  28.574  15.357 -0.3899 -0.0881  0.1418
  406BOLB   NC1 9721  12.277  21.762   3.503 -0.1564 -0.3434  0.1074
  406BOLB   PO1 9722  12.018  22.102   3.422 -0.2386  0.0335  0.0809
  406BOLB   GL1 9723  12.440  22.120   3.178  0.0952  0.0430  0.0617
  406BOLB   GL2 9724  12.746  22.246   3.289  0.0216  0.1552 -0.2966
  406BOLB   C1A 9725  12.306  22.318   2.783 -0.2154 -0.0385 -0.1798
  406BOLB   C2A 9726  12.472  22.239   2.388  0.1251 -0.0642  0.1453
  406BOLB   C3A 9727  12.831  22.130   2.173  0.0842  0.1471 -0.0770
  406BOLB   C4A 9728  12.928  22.122   1.770  0.2747 -0.2047  0.0951
  406BOLB   C1B 9729  13.010  22.472   3.058 -0.0316 -0.0098  0.5158
  406BOLB   C2B 9730  13.243  22.745   3.065  0.2306 -0.2031 -0.0865
  406BOLB   C3B 9731  13.398  23.060   3.120 -0.0544 -0.0874  0.3793
  406BOLB   C4B 9732  13.720  23.239   3.014 -0.2345 -0.1484  0.1454
  406BOLB   NC2 9733  14.407  20.816   0.076 -0.1774  0.2443 -0.1323
  406BOLB   PO2 9734  14.278  21.191   0.198  0.0481  0.2753  0.1043
  406BOLB   GL3 9735  14.132  21.239   0.569  0.3003 -0.1202 -0.3555
  406BOLB   GL4 9736  14.083  21.144   0.805  0.1024 -0.0088  0.1708
  406BOLB   C1C 9737  13.916  21.610   0.895 -0.1246  0.3907  0.3370
  406BOLB   C2C 9738  13.464  21.739   1.000  0.2831 -0.2884 -0.2434
  406BOLB   C3C 9739  13.021  21.826   1.038  0.0793  0.0468 -0.4188
  406BOLB   C4C 9740  12.996  21.918   1.400  0.0983  0.0918  0.0219
  406BOLB   C1D 9741  13.615  21.081   0.982  0.0036  0.1545  0.1834
  406BOLB   C2D 9742  13.270  21.336   1.126  0.2165 -0.1519  0.1035
  406BOLB   C3D 9743  12.901  21.300   1.159 -0.2498  0.3565  0.1923
  406BOLB   C4D 9744  12.586  20.957   1.249 -0.2316 -0.0799 -0.1505
  407BOLB   NC1 9745   4.427  28.304   8.320  0.1895  0.0665 -0.2453
  407BOLB   PO1 9746   4.072  28.301   8.135 -0.1232  0.0943 -0.1604
  407BOLB   GL1 9747   3.779  28.615   8.068  0.0454  0.0309 -0.1144
  407BOLB   GL2 9748   3.582  28.739   8.353  0.1757  0.1523 -0.3886
  407BOLB   C1A 9749   3.783  29.036   7.989 -0.1651 -0.2934 -0.1207
  407BOLB   C2A 9750   3.696  29.429   7.930 -0.1345  0.2154  0.1366
  407BOLB   C3A 9751   3.566  29.794   7.656  0.1498 -0.1815  0.2960
  407BOLB   C4A 9752   3.325  30.099   7.273  0.1350 -0.1120 -0.2040
  407BOLB   C1B 9753   3.216  28.945   8.453  0.1832 -0.0099  0.2439
  407BOLB   C2B 9754   3.156  29.371   8.398 -0.0679  0.0202  0.2760
  407BOLB   C3B 9755   3.194  29.574   7.881 -0.1685  0.0312 -0.1864
  407BOLB   C4B 9756   3.030  29.808   7.656 -0.1362 -0.0889 -0.0442
  407BOLB   NC2 9757   1.555  31.564   6.345  0.1035 -0.1235  0.2407
  407BOLB   PO2 9758   1.934  31.658   5.997 -0.2258 -0.1522  0.2618
  407BOLB   GL3 9759   2.231  31.374   6.188  0.0286 -0.0401  0.3020
  407BOLB   GL4 9760   2.058  31.106   6.012  0.2394 -0.1648 -0.2863
  407BOLB   C1C 9761   2.285  31.043   6.619 -0.0524  0.2474  0.1968
  407BOLB   C2C 9762   2.629  30.857   6.674 -0.0705  0.6342 -0.2441
  407BOLB   C3C 9763   2.801  30.620   6.967 -0.1575 -0.0190  0.2572
  407BOLB   C4C 9764   2.930  30.276   7.203 -0.1233  0.0796 -0.1417
  407BOLB   C1D 9765   2.489  30.849   6.190 -0.1141  0.1458 -0.0895
  407BOLB   C2D 9766   2.635  30.454   6.315 -0.0864  0.1952  0.1117
  407BOLB   C3D 9767   2.875  30.077   6.414  0.2427  0.1774 -0.1957
  407BOLB   C4D 9768   3.122  29.992   6.785  0.2803  0.0119 -0.2216
  408BOLB   NC1 9769  32.592  22.018   2.042 -0.0858 -0.5170  0.1295
  408BOLB   PO1 9770  33.009  22.168   1.942  0.0317  0.0231  0.0719
  408BOLB   GL1 9771  33.373  22.209   2.178  0.3832 -0.1177  0.0642
  408BOLB   GL2 9772  33.461  22.068   2.111 -0.0077 -0.0209 -0.2561
  408BOLB   C1A 9773  33.719  22.155   2.480 -0.0216  0.0229 -0.2714
  408BOLB   C2A 9774  33.848  21.751   2.626 -0.2475 -0.0680  0.0602
  408BOLB   C3A 9775  34.133  21.451   2.844  0.0708  0.0239 -0.1520
  408BOLB   C4A 9776  34.425  21.165   2.998 -0.0173  0.0226 -0.2507
  408BOLB   C1B 9777  33.356  21.697   2.362  0.3336 -0.0110 -0.2940
  408BOLB   C2B 9778  33.016  21.378   2.609  0.0609 -0.4460  0.0833
  408BOLB   C3B 9779  32.818  21.021   2.692 -0.4200 -0.1866 -0.1188
  408BOLB   C4B 9780  32.774  20.876   3.099 -0.2162  0.1057 -0.0849
  408BOLB   NC2 9781  35.988  21.746   0.972 -0.2470 -0.2281  0.1051
  408BOLB   PO2 9782  35.993  22.058   1.296 -0.0469 -0.1556  0.0089
  408BOLB   GL3 9783  36.196  21.761   1.497  0.1930  0.1911  0.0435
  408BOLB   GL4 9784  36.020  21.552   1.404 -0.1511  0.1002  0.1002
  408BOLB   C1C 9785  35.903  21.534   1.858 -0.3772  0.0763 -0.3623
  408BOLB   C2C 9786  35.544  21.497   2.102 -0.0367 -0.4235 -0.3400
  408BOLB   C3C 9787  35.458  21.376   2.538  0.0021 -0.3107  0.0335
  408BOLB   C4C 9788  34.976  21.219   2.821 -0.1064  0.3602  0.1819
  408BOLB   C1D 9789  36.316  21.332   1.692 -0.2181 -0.1384 -0.1989
  408BOLB   C2D 9790  36.482  21.162   2.052  0.0313  0.0935  0.0834
  408BOLB   C3D 9791  36.738  21.096   2.414 -0.0720 -0.0665 -0.0507
  408BOLB   C4D 9792  37.125  21.022   2.588  0.1714 -0.1267  0.1585
  409BOLB   NC1 9793  11.129  20.645   3.081 -0.1450 -0.1390 -0.2279
  409BOLB   PO1 9794  11.515  20.957   3.066  0.0458 -0.0052  0.1271
  409BOLB   GL1 9795  11.847  21.096   2.678  0.0590  0.1303 -0.0841
  409BOLB   GL2 9796  11.931  20.923   2.370 -0.4089  0.0280  0.0753
  409BOLB   C1A 9797  12.142  21.371   2.502  0.3459  0.0023  0.0687
  409BOLB   C2A 9798  12.486  21.238   2.227  0.1234  0.0914 -0.1888
  409BOLB   C3A 9799  12.781  21.060   1.935  0.4781  0.3725  0.0466
  409BOLB   C4A 9800  13.063  21.128   1.615  0.1688 -0.1158  0.1878
  409BOLB   C1B 9801  12.091  21.080   1.930  0.0108  0.0982  0.0719
  409BOLB   C2B 9802  12.214  21.123   1.510 -0.1160 -0.0885 -0.0252
  409BOLB   C3B 9803  12.533  21.356   1.555  0.3808  0.0501 -0.0530
  409BOLB   C4B 9804  12.777  21.562   1.713 -0.5185  0.2045 -0.1996
  409BOLB   NC2 9805  15.016  20.503   0.423  0.1654 -0.0935 -0.1617
  409BOLB   PO2 9806  14.648  20.417   0.260  0.2284  0.2344 -0.0709
  409BOLB   GL3 9807  14.350  20.671   0.541  0.0083 -0.2038  0.2581
  409BOLB   GL4 9808  14.052  20.710   0.450  0.1797  0.0028 -0.3353
  409BOLB   C1C 9809  14.247  20.647   0.974  0.1825 -0.1570 -0.0852
  409BOLB   C2C 9810  14.007  20.833   1.337  0.0797 -0.1021 -0.2640
  409BOLB   C3C 9811  13.785  20.850   1.592 -0.1232 -0.0789  0.0534
  409BOLB   C4C 9812  13.486  20.964   1.515 -0.0170  0.0447  0.0000
  409BOLB   C1D 9813  13.713  20.393   0.274  0.2528 -0.0243 -0.1154
  409BOLB   C2D 9814  13.371  20.467   0.479  0.0403  0.1491  0.2864
  409BOLB   C3D 9815  13.181  20.789   0.631  0.1883  0.0058 -0.1817
  409BOLB   C4D 9816  13.043  20.782   1.086  0.1560  0.1075  0.1098
  410BOLB   NC1 9817  12.040  19.185  16.069 -0.1875  0.2610 -0.2580
  410BOLB   PO1 9818  12.092  19.514  15.714  0.1293  0.1708  0.2330
  410BOLB   GL1 9819  12.523  19.396  15.917 -0.2340  0.2728 -0.1979
  410BOLB   GL2 9820  12.660  19.100  15.750  0.4250  0.0817 -0.1660
  410BOLB   C1A 9821  12.598  19.272  16.372 -0.3012  0.2619 -0.2842
  410BOLB   C2A 9822  12.532  19.078  16.788  0.1350  0.3412  0.0298
  410BOLB   C3A 9823  12.741  18.661  16.928 -0.0174 -0.1256 -0.2425
  410BOLB   C4A 9824  12.964  18.399  17.127  0.0755 -0.2081  0.0572
  410BOLB   C1B 9825  12.942  18.971  16.087 -0.0092  0.2083  0.1073
  410BOLB   C2B 9826  12.983  18.964  16.525 -0.2032 -0.4700  0.0813
  410BOLB   C3B 9827  13.117  19.037  16.932 -0.0855 -0.3238 -0.1037
  410BOLB   C4B 9828  13.289  18.882  17.300 -0.1740  0.1602  0.1333
  410BOLB   NC2 9829  15.237  18.032  18.129 -0.0887  0.0964  0.1497
  410BOLB   PO2 9830  14.976  17.800  18.420 -0.1611 -0.3693 -0.3828
  410BOLB   GL3 9831  14.697  18.004  18.115  0.0298  0.0068 -0.1562
  410BOLB   GL4 9832  14.531  17.775  17.998 -0.2014 -0.0637  0.2058
  410BOLB   C1C 9833  14.367  18.254  17.987  0.0561 -0.0321  0.0912
  410BOLB   C2C 9834  13.934  18.328  17.980  0.1171 -0.0720 -0.0386
  410BOLB   C3C 9835  13.565  18.473  17.698  0.2341  0.2391  0.0649
  410BOLB   C4C 9836  13.172  18.353  17.476 -0.0376 -0.0140 -0.0506
  410BOLB   C1D 9837  14.684  17.557  17.613 -0.0315 -0.1080 -0.0414
  410BOLB   C2D 9838  14.709  17.757  17.244  0.1894 -0.0910 -0.1107
  410BOLB   C3D 9839  15.041  18.088  17.155  0.1166  0.6072 -0.2229
  410BOLB   C4D 9840  15.132  18.411  17.024 -0.1954  0.1582 -0.0289
  411BOLB   NC1 9841  10.671  15.011   0.209 -0.1517  0.2194  0.2469
  411BOLB   PO1 9842  11.077  14.902   0.244 -0.0736  0.0157 -0.1594
  411BOLB   GL1 9843  10.991  15.068   0.677  0.0843  0.2826 -0.1993
  411BOLB   GL2 9844  10.877  14.909   1.032 -0.0704  0.1073  0.0071
  411BOLB   C1A 9845  11.151  15.284   0.976 -0.1580  0.0150  0.0905
  411BOLB   C2A 9846  10.903  15.590   1.212 -0.2441  0.3265  0.2737
  411BOLB   C3A 9847  10.819  15.812   1.476 -0.3363  0.1362 -0.2735
  411BOLB   C4A 9848  10.658  16.161   1.614 -0.5726  0.1940 -0.0913
  411BOLB   C1B 9849  10.852  15.044   1.328 -0.0722  0.2356  0.2021
  411BOLB   C2B 9850  10.697  15.372   1.683  0.1793 -0.4078 -0.1306
  411BOLB   C3B 9851  10.646  15.735   1.947  0.1932 -0.0620 -0.1389
  411BOLB   C4B 9852  10.721  15.857   2.279  0.0046  0.0100  0.1948
  411BOLB   NC2 9853   9.601  17.629   3.374  0.0186 -0.1329 -0.0693
  411BOLB   PO2 9854   9.342  17.705   2.946 -0.0798 -0.3717 -0.0001
  411BOLB   GL3 9855   9.648  17.544   2.713 -0.3776  0.1350  0.1068
  411BOLB   GL4 9856   9.487  17.349   2.515  0.1026 -0.1670  0.0873
  411BOLB   C1C 9857   9.973  17.292   2.421 -0.1370 -0.0531 -0.3136
  411BOLB   C2C 9858  10.236  16.997   2.319  0.0269 -0.1088  0.2197
  411BOLB   C3C 9859  10.489  16.644   2.391  0.0385 -0.0263  0.2979
  411BOLB   C4C 9860  10.545  16.346   2.029 -0.3268 -0.0869 -0.0402
  411BOLB   C1D 9861   9.533  17.014   2.198 -0.0832  0.1726  0.1089
  411BOLB   C2D 9862   9.946  16.733   2.078  0.0857  0.0181  0.1145
  411BOLB   C3D 9863  10.024  16.296   1.852 -0.2115 -0.1921 -0.1638
  411BOLB   C4D 9864  10.214  15.824   1.782 -0.0176 -0.0588  0.1613
  412BOLB   NC1 9865  14.690  20.656   7.314  0.1360  0.0837 -0.0681
  412BOLB   PO1 9866  15.094  20.608   7.505 -0.0982 -0.2260 -0.0140
  412BOLB   GL1 9867  15.571  20.552   7.724  0.1932 -0.1133 -0.3313
  412BOLB   GL2 9868  15.640  20.212   7.703 -0.0396 -0.1310  0.0570
  412BOLB   C1A 9869  16.071  20.438   7.694 -0.1787  0.2162  0.2297
  412BOLB   C2A 9870  16.343  20.271   7.393  0.1738  0.0945  0.1077
  412BOLB   C3A 9871  16.773  20.194   7.227 -0.5680 -0.0589 -0.1795
  412BOLB   C4A 9872  17.162  20.402   7.034 -0.0275 -0.1271  0.1998
  412BOLB   C1B 9873  16.011  19.936   7.859  0.0152 -0.5463  0.3076
  412BOLB   C2B 9874  16.362  19.709   8.036  0.0646  0.3401 -0.1499
  412BOLB   C3B 9875  16.774  19.704   8.087  0.0509 -0.0333 -0.0075
  412BOLB   C4B 9876  17.026  19.777   8.475 -0.0295  0.2796 -0.2355
  412BOLB   NC2 9877  19.180  19.270   7.095  0.0728  0.0588 -0.0376
  412BOLB   PO2 9878  18.746  19.017   7.134 -0.1444 -0.0036  0.2407
  412BOLB   GL3 9879  18.444  19.292   6.933  0.1436 -0.3276  0.0252
  412BOLB   GL4 9880  18.178  19.128   6.771  0.2800 -0.0048  0.2267
  412BOLB   C1C 9881  18.354  19.639   7.141  0.1156  0.0843  0.0912
  412BOLB   C2C 9882  18.364  20.130   7.221  0.2502 -0.0927 -0.1633
  412BOLB   C3C 9883  17.958  20.309   7.094  0.5045  0.0859  0.0121
  412BOLB   C4C 9884  17.533  20.323   7.087 -0.0484 -0.0487 -0.0931
  412BOLB   C1D 9885  17.800  19.200   6.522 -0.0491 -0.1696 -0.1473
  412BOLB   C2D 9886  17.370  19.462   6.470 -0.1125  0.4754  0.0710
  412BOLB   C3D 9887  17.062  19.530   6.331 -0.1427 -0.0311  0.0463
  412BOLB   C4D 9888  16.662  19.576   6.382  0.0493  0.3292  0.1208
  413BOLB   NC1 9889   9.824  16.410   4.046  0.1077  0.0495 -0.2430
  413BOLB   PO1 9890  10.102  16.063   4.195 -0.0820 -0.0768 -0.1550
  413BOLB   GL1 9891  10.417  15.989   3.955  0.0698 -0.1978  0.1179
  413BOLB   GL2 9892  10.748  16.088   4.033  0.0583 -0.3082 -0.2759
  413BOLB   C1A 9893  10.623  15.764   3.643  0.1793  0.2289 -0.0736
  413BOLB   C2A 9894  10.780  15.365   3.633 -0.1840 -0.0749  0.0176
  413BOLB   C3A 9895  11.072  15.018   3.650 -0.1149 -0.0332 -0.0043
  413BOLB   C4A 9896  11.471  15.047   3.515  0.1241  0.2207 -0.1609
  413BOLB   C1B 9897  11.061  15.801   3.829  0.1278 -0.2024  0.1669
  413BOLB   C2B 9898  11.350  15.518   3.588  0.0364  0.0514  0.0437
  413BOLB   C3B 9899  11.872  15.344   3.566 -0.0295  0.1725  0.0388
  413BOLB   C4B 9900  12.052  14.927   3.436  0.3415 -0.0620  0.0301
  413BOLB   NC2 9901  11.983  13.072   1.676 -0.2312 -0.1957 -0.0588
  413BOLB   PO2 9902  12.070  13.425   1.883 -0.1495  0.2880 -0.0353
  413BOLB   GL3 9903  11.905  13.668   2.253  0.0570 -0.3642  0.3956
  413BOLB   GL4 9904  11.651  13.919   2.123  0.0043  0.0571  0.0327
  413BOLB   C1C 9905  12.125  13.999   2.634 -0.0529 -0.1409 -0.1164
  413BOLB   C2C 9906  11.955  14.352   2.794  0.3661 -0.0865 -0.1974
  413BOLB   C3C 9907  11.811  14.876   2.926 -0.0542 -0.1030 -0.0243
  413BOLB   C4C 9908  11.628  15.188   3.162  0.0786 -0.0089 -0.1542
  413BOLB   C1D 9909  11.681  14.218   2.380 -0.0738 -0.2455  0.0188
  413BOLB   C2D 9910  11.441  14.521   2.618 -0.2499  0.1134 -0.0282
  413BOLB   C3D 9911  11.276  14.815   2.864 -0.2675 -0.0748  0.1526
  413BOLB   C4D 9912  11.163  14.753   3.280 -0.3582 -0.0060 -0.1475
  414BOLB   NC1 9913   5.931  19.564   2.866  0.3268 -0.1622 -0.1506
  414BOLB   PO1 9914   5.770  19.754   2.470  0.0503 -0.0938  0.2959
  414BOLB   GL1 9915   5.689  19.443   2.056  0.0795 -0.2292 -0.0016
  414BOLB   GL2 9916   5.800  19.449   1.691 -0.1067  0.0763  0.3299
  414BOLB   C1A 9917   5.362  19.210   1.710  0.0158  0.2656 -0.2525
  414BOLB   C2A 9918   5.102  19.084   1.438  0.1454  0.1784  0.2252
  414BOLB   C3A 9919   4.688  19.087   1.126  0.1020  0.1573 -0.3726
  414BOLB   C4A 9920   4.708  19.090   0.671 -0.0387  0.0387  0.1215
  414BOLB   C1B 9921   5.904  19.024   1.547 -0.2327  0.0844  0.2873
  414BOLB   C2B 9922   6.070  18.881   1.083  0.2264 -0.0381  0.1802
  414BOLB   C3B 9923   5.939  18.895   0.650 -0.1834 -0.0327  0.2626
  414BOLB   C4B 9924   6.004  19.022   0.278 -0.2294 -0.0621  0.0514
  414BOLB   NC2 9925   5.304  18.986  -1.830  0.1649 -0.2472 -0.1480
  414BOLB   PO2 9926   4.901  18.807  -1.813 -0.0504 -0.1159  0.0150
  414BOLB   GL3 9927   5.114  18.824  -1.374 -0.1193 -0.0131  0.0238
  414BOLB   GL4 9928   5.289  19.048  -1.320  0.0999  0.1221 -0.0291
  414BOLB   C1C 9929   5.139  18.848  -0.863 -0.2304 -0.3374 -0.1459
  414BOLB   C2C 9930   4.875  18.922  -0.557  0.0509 -0.2522 -0.1050
  414BOLB   C3C 9931   4.965  18.848  -0.066  0.2306 -0.0555 -0.1106
  414BOLB   C4C 9932   4.913  19.059   0.289 -0.2742  0.0132  0.0060
  414BOLB   C1D 9933   5.519  19.142  -0.930 -0.0088 -0.0746  0.0513
  414BOLB   C2D 9934   5.739  19.218  -0.578 -0.2538 -0.0606  0.1652
  414BOLB   C3D 9935   5.777  19.403  -0.159 -0.0249 -0.0350  0.0877
  414BOLB   C4D 9936   6.100  19.640   0.114  0.1557 -0.0608  0.0699
  415BOLB   NC1 9937   0.184  22.261  15.881  0.1737  0.1817  0.1761
  415BOLB   PO1 9938  -0.145  22.017  15.700  0.1821 -0.0433  0.1308
  415BOLB   GL1 9939  -0.350  22.372  15.902 -0.3612  0.0517  0.0531
  415BOLB   GL2 9940  -0.414  22.576  15.606 -0.0173  0.2026  0.1730
  415BOLB   C1A 9941  -0.593  22.310  16.173  0.1468  0.2857  0.0106
  415BOLB   C2A 9942  -0.849  22.391  16.427  0.2460 -0.0290 -0.1438
  415BOLB   C3A 9943  -1.272  22.470  16.645  0.2883 -0.2373  0.0557
  415BOLB   C4A 9944  -1.669  22.673  16.882  0.2454  0.0282  0.0874
  415BOLB   C1B 9945  -0.851  22.702  15.856  0.0201 -0.1627 -0.0950
  415BOLB   C2B 9946  -1.262  22.449  16.006 -0.1319  0.0181  0.1236
  415BOLB   C3B 9947  -1.731  22.360  16.132 -0.3285 -0.0685  0.0500
  415BOLB   C4B 9948  -1.888  22.378  16.544  0.2595 -0.1235  0.1137
  415BOLB   NC2 9949  -3.954  23.115  18.051  0.0419  0.3437  0.2742
  415BOLB   PO2 9950  -3.559  23.215  18.041 -0.0286 -0.1599  0.0560
  415BOLB   GL3 9951  -3.352  23.078  17.636 -0.1494 -0.2424 -0.0601
  415BOLB   GL4 9952  -3.552  23.031  17.392  0.1629 -0.1515  0.2458
  415BOLB   C1C 9953  -3.064  22.805  17.398  0.0461 -0.0050 -0.1629
  415BOLB   C2C 9954  -2.702  22.567  17.247 -0.0403 -0.1611  0.0544
  415BOLB   C3C 9955  -2.278  22.456  17.253  0.0201  0.0699  0.0085
  415BOLB   C4C 9956  -1.958  22.475  17.032  0.0455  0.0353 -0.1119
  415BOLB   C1D 9957  -3.572  22.785  16.954 -0.1643  0.3487  0.1432
  415BOLB   C2D 9958  -3.517  22.440  16.731  0.2873 -0.0756 -0.1548
  415BOLB   C3D 9959  -3.562  21.964  16.530  0.1732 -0.0521  0.1859
  415BOLB   C4D 9960  -3.545  21.662  16.281 -0.1087  0.2994  0.1252
  416BOLB   NC1 9961   0.303  24.799   6.687 -0.0532  0.0239  0.2836
  416BOLB   PO1 9962   0.311  24.916   7.026  0.4372  0.1798 -0.1327
  416BOLB   GL1 9963  -0.155  25.164   7.143  0.1337 -0.2644  0.3525
  416BOLB   GL2 9964  -0.234  25.100   6.926 -0.3305  0.2476 -0.1893
  416BOLB   C1A 9965  -0.523  25.454   7.185  0.0414  0.1341 -0.0289
  416BOLB   C2A 9966  -0.952  25.338   7.204 -0.1950 -0.3647 -0.1627
  416BOLB   C3A 9967  -1.249  25.341   7.491 -0.1856  0.0712 -0.2926
  416BOLB   C4A 9968  -1.553  25.656   7.352 -0.1296 -0.3133  0.0630
  416BOLB   C1B 9969  -0.807  25.015   6.873 -0.0362  0.0413 -0.1100
  416BOLB   C2B 9970  -1.208  24.922   6.696 -0.0550  0.0263 -0.1461
  416BOLB   C3B 9971  -1.705  24.914   6.853 -0.4369 -0.2921 -0.1186
  416BOLB   C4B 9972  -2.068  25.083   6.850  0.1207 -0.2997  0.4211
  416BOLB   NC2 9973  -3.084  27.755   6.957  0.1167 -0.1897  0.0280
  416BOLB   PO2 9974  -3.122  27.546   6.607 -0.0064 -0.3069 -0.1582
  416BOLB   GL3 9975  -2.898  27.319   6.656 -0.2376 -0.0215 -0.1211
  416BOLB   GL4 9976  -2.554  27.218   6.532 -0.1783 -0.0245  0.2225
  416BOLB   C1C 9977  -2.648  27.092   6.989 -0.3588 -0.1233  0.3016
  416BOLB   C2C 9978  -2.550  26.626   7.103 -0.0290 -0.2841  0.3627
  416BOLB   C3C 9979  -2.277  26.265   7.260 -0.0566  0.2199  0.0366
  416BOLB   C4C 9980  -1.911  25.925   7.272  0.2269  0.1187 -0.0807
  416BOLB   C1D 9981  -2.286  26.927   6.704  0.0785  0.3232 -0.0839
  416BOLB   C2D 9982  -2.107  26.774   7.030 -0.1226  0.1089 -0.1744
  416BOLB   C3D 9983  -1.945  26.779   7.324  0.0630  0.1220  0.0996
  416BOLB   C4D 9984  -1.673  26.812   7.617  0.1938  0.1838 -0.2336
  417BOLB   NC1 9985  11.613  15.214   9.473  0.1213  0.0668 -0.0819
  417BOLB   PO1 9986  11.761  15.424   9.813 -0.0595 -0.3031  0.2070
  417BOLB   GL1 9987  12.095  15.170   9.437  0.0327  0.1705  0.1451
  417BOLB   GL2 9988  12.320  15.291   9.225  0.1076  0.0032 -0.2271
  417BOLB   C1A 9989  12.137  14.702   9.531  0.0864  0.0128  0.0089
  417BOLB   C2A 9990  12.410  14.428   9.269  0.0648 -0.0339  0.1566
  417BOLB   C3A 9991  12.720  14.221   9.267  0.3872  0.1070  0.1284
  417BOLB   C4A 9992  13.146  14.020   9.263 -0.0602 -0.3486 -0.2677
  417BOLB   C1B 9993  12.548  14.928   9.300  0.0432  0.2367  0.3261
  417BOLB   C2B 9994  12.789  14.629   9.479 -0.1962  0.2132 -0.0204
  417BOLB   C3B 9995  13.228  14.577   9.444  0.0660  0.0155  0.0106
  417BOLB   C4B 9996  13.565  14.598   9.667 -0.0066 -0.0158 -0.2107
  417BOLB   NC2 9997  15.568  12.901  10.757 -0.0208 -0.0054 -0.2233
  417BOLB   PO2 9998  15.107  12.874  10.426  0.1115  0.1908 -0.0449
  417BOLB   GL3 9999  14.725  13.098  10.333  0.1984 -0.3033  0.1772
  417BOLB   GL410000  14.542  12.798  10.354 -0.0902  0.0355 -0.2097
  417BOLB   C1C10001  14.579  13.372  10.090 -0.2618  0.1301  0.2614
  417BOLB   C2C10002  14.319  13.474   9.710  0.0933 -0.2478 -0.0118
  417BOLB   C3C10003  13.934  13.367   9.441 -0.2047  0.3578 -0.2366
  417BOLB   C4C10004  13.536  13.712   9.282  0.1021  0.4243 -0.0001
  417BOLB   C1D10005  14.229  13.039  10.382 -0.0598  0.1435  0.3364
  417BOLB   C2D10006  13.769  13.091  10.321 -0.0115  0.1414 -0.0774
  417BOLB   C3D10007  13.374  12.883  10.267 -0.2418 -0.0716 -0.1288
  417BOLB   C4D10008  12.894  12.832  10.057  0.1860 -0.5110  0.1804
  418BOLB   NC110009   1.441  20.967   4.873 -0.0340 -0.1158 -0.3583
  418BOLB   PO110010   1.083  21.175   4.636 -0.1628 -0.2417  0.3127
  418BOLB   GL110011   0.706  21.076   4.351  0.0827 -0.0245  0.1822
  418BOLB   GL210012   0.912  21.057   4.063 -0.3824  0.1127 -0.0992
  418BOLB   C1A10013   0.257  21.166   4.175  0.0720  0.0686  0.0104
  418BOLB   C2A10014   0.041  21.352   3.765 -0.0331 -0.0623  0.0848
  418BOLB   C3A10015  -0.060  21.493   3.420  0.0899  0.4319 -0.0833
  418BOLB   C4A10016  -0.215  21.674   3.035  0.0783 -0.2141 -0.1250
  418BOLB   C1B10017   0.807  20.931   3.575 -0.0491 -0.0572 -0.1503
  418BOLB   C2B10018   0.582  20.666   3.256 -0.3517 -0.0065  0.1533
  418BOLB   C3B10019   0.512  20.470   2.913 -0.0422 -0.1397 -0.0530
  418BOLB   C4B10020   0.353  20.411   2.450 -0.0564  0.0673 -0.0378
  418BOLB   NC210021  -0.632  22.548   0.949 -0.1913 -0.0363  0.2040
  418BOLB   PO210022  -0.965  22.428   1.182  0.0163  0.3492  0.2181
  418BOLB   GL310023  -1.122  22.073   1.404 -0.3070 -0.3266 -0.1325
  418BOLB   GL410024  -0.795  21.957   1.395 -0.0904 -0.1615 -0.3712
  418BOLB   C1C10025  -1.205  21.965   1.867  0.3547 -0.0724 -0.0218
  418BOLB   C2C10026  -0.865  21.799   2.154  0.1923 -0.0924 -0.0195
  418BOLB   C3C10027  -0.750  21.868   2.487 -0.2898 -0.0762  0.2001
  418BOLB   C4C10028  -0.444  21.811   2.726 -0.2221  0.3822 -0.0478
  418BOLB   C1D10029  -0.571  21.814   1.695  0.1603 -0.2742 -0.2043
  418BOLB   C2D10030  -0.361  21.633   2.054 -0.0828 -0.0399 -0.1223
  418BOLB   C3D10031  -0.097  21.766   2.361  0.0342 -0.0853 -0.3240
  418BOLB   C4D10032   0.078  21.911   2.676  0.0878 -0.0475  0.0610
  419BOLB   NC110033   5.221  14.657   4.893 -0.3395 -0.0342 -0.0866
  419BOLB   PO110034   5.378  14.266   5.050 -0.0484 -0.1864  0.0815
  419BOLB   GL110035   5.386  13.887   4.981  0.1071  0.1520  0.1598
  419BOLB   GL210036   5.308  13.802   4.612  0.0954 -0.0321 -0.2452
  419BOLB   C1A10037   5.526  13.465   4.796 -0.4459 -0.0100  0.1509
  419BOLB   C2A10038   5.514  13.113   4.521 -0.0519  0.1517 -0.1696
  419BOLB   C3A10039   5.343  12.742   4.556 -0.0312  0.1374 -0.2384
  419BOLB   C4A10040   5.695  12.390   4.542  0.2116 -0.3460 -0.0410
  419BOLB   C1B10041   4.994  13.727   4.274  0.3300 -0.0916 -0.3282
  419BOLB   C2B10042   4.963  13.535   3.901 -0.1916  0.0301 -0.0511
  419BOLB   C3B10043   4.968  13.551   3.545  0.0848  0.1238  0.2820
  419BOLB   C4B10044   5.047  13.651   3.144  0.0663  0.0891 -0.1619
  419BOLB   NC210045   6.176  10.526   3.195 -0.0104  0.0381 -0.3110
  419BOLB   PO210046   6.160  10.417   3.697  0.2497  0.2566  0.0751
  419BOLB   GL310047   5.983  10.851   3.826 -0.1204  0.1001 -0.1322
  419BOLB   GL410048   5.905  11.061   3.680  0.0907 -0.3177  0.2682
  419BOLB   C1C10049   5.853  11.087   4.221 -0.0155 -0.1425 -0.0916
  419BOLB   C2C10050   5.824  11.516   4.229 -0.1239 -0.2971  0.0264
  419BOLB   C3C10051   5.588  11.893   4.220  0.0307  0.2788 -0.0373
  419BOLB   C4C10052   5.752  12.223   4.265  0.3320  0.5113 -0.4187
  419BOLB   C1D10053   5.464  11.153   3.706 -0.1791 -0.1229  0.3173
  419BOLB   C2D10054   5.319  11.479   4.031  0.0944 -0.1915 -0.0518
  419BOLB   C3D10055   5.045  11.910   4.033 -0.2558 -0.1094 -0.3068
  419BOLB   C4D10056   5.084  12.352   4.163  0.1785 -0.0123  0.0554
  420BOLB   NC110057   5.644  14.634  14.542  0.0034 -0.0154  0.0182
  420BOLB   PO110058   5.404  14.892  14.674  0.0243  0.0277  0.4760
  420BOLB   GL110059   5.502  14.642  15.059 -0.2392  0.2363 -0.0171
  420BOLB   GL210060   5.217  14.517  15.339 -0.1929 -0.2493 -0.1350
  420BOLB   C1A10061   5.845  14.582  15.369 -0.2675  0.1563 -0.2230
  420BOLB   C2A10062   5.612  14.241  15.591  0.2508  0.0683  0.1348
  420BOLB   C3A10063   5.352  13.939  15.876  0.1992  0.0903 -0.2178
  420BOLB   C4A10064   5.214  13.675  16.147  0.4742 -0.0174  0.2698
  420BOLB   C1B10065   5.116  14.133  15.358 -0.1751 -0.2138  0.1980
  420BOLB   C2B10066   5.094  13.772  15.407  0.2748 -0.0992  0.3849
  420BOLB   C3B10067   4.956  13.311  15.354  0.3897  0.4668  0.1077
  420BOLB   C4B10068   4.939  12.950  15.579  0.0686 -0.1006 -0.5399
  420BOLB   NC210069   5.666  12.377  18.528  0.2628  0.1917  0.0331
  420BOLB   PO210070   5.445  12.185  18.199 -0.1128 -0.1645 -0.0953
  420BOLB   GL310071   5.407  12.412  17.836  0.1467 -0.0075 -0.1865
  420BOLB   GL410072   5.618  12.440  17.569  0.0587  0.1759  0.1054
  420BOLB   C1C10073   5.298  12.815  17.548  0.1678 -0.1740  0.0695
  420BOLB   C2C10074   5.215  13.150  17.315 -0.3423 -0.1632 -0.0321
  420BOLB   C3C10075   5.097  13.412  16.994 -0.1137 -0.0765 -0.0289
  420BOLB   C4C10076   5.163  13.496  16.513 -0.1085  0.2521  0.2409
  420BOLB   C1D10077   5.798  12.731  17.392 -0.0093  0.1816  0.0490
  420BOLB   C2D10078   5.930  12.831  17.097 -0.0104  0.1007  0.0524
  420BOLB   C3D10079   5.659  12.907  16.697  0.3069  0.7319  0.1633
  420BOLB   C4D10080   5.709  12.996  16.346  0.2247 -0.0784 -0.0186
  421BOLB   NC110081   3.662  31.635   4.711 -0.2390 -0.1940 -0.0678
  421BOLB   PO110082   3.310  31.345   4.889 -0.1341 -0.2738  0.0371
  421BOLB   GL110083   3.508  31.341   5.297 -0.0639  0.0054  0.0056
  421BOLB   GL210084   3.796  31.175   5.075 -0.2233 -0.0516  0.0392
  421BOLB   C1A10085   3.461  31.190   5.745 -0.1110 -0.2813 -0.1138
  421BOLB   C2A10086   3.494  30.928   6.133  0.0576 -0.2457 -0.0499
  421BOLB   C3A10087   3.496  30.711   6.482  0.3971 -0.1425 -0.2187
  421BOLB   C4A10088   3.698  30.508   6.609  0.1012 -0.1267 -0.0429
  421BOLB   C1B10089   3.786  30.788   5.426  0.0175  0.0085  0.3250
  421BOLB   C2B10090   3.688  30.232   5.401 -0.1867 -0.1696 -0.1098
  421BOLB   C3B10091   3.947  29.842   5.435  0.1532 -0.2296 -0.1894
  421BOLB   C4B10092   4.232  29.544   5.511 -0.2614 -0.1866 -0.0479
  421BOLB   NC210093   4.347  28.215   7.218  0.4136  0.1773 -0.0382
  421BOLB   PO210094   4.594  28.197   7.038 -0.0018 -0.0029 -0.1225
  421BOLB   GL310095   4.501  28.658   7.026  0.0144  0.0761 -0.0739
  421BOLB   GL410096   4.231  28.705   7.264  0.0294  0.2557  0.0879
  421BOLB   C1C10097   4.322  29.041   6.826  0.1812 -0.2951  0.1035
  421BOLB   C2C10098   4.363  29.504   6.809 -0.2311 -0.2040  0.0673
  421BOLB   C3C10099   4.276  30.006   6.780 -0.0368 -0.2207  0.5751
  421BOLB   C4C10100   4.117  30.367   6.750  0.2828 -0.0992  0.1526
  421BOLB   C1D10101   3.979  29.116   7.253 -0.2043  0.0029  0.1052
  421BOLB   C2D10102   3.950  29.387   6.978 -0.1389  0.1772  0.1786
  421BOLB   C3D10103   3.916  29.679   6.523 -0.1174  0.4245  0.1136
  421BOLB   C4D10104   3.919  30.136   6.366 -0.1096 -0.1171  0.1308
  422BOLB   NC110105   9.571  13.696  10.315  0.2291  0.1458  0.0632
  422BOLB   PO110106   9.868  13.766   9.978  0.2114  0.1203 -0.2275
  422BOLB   GL110107   9.833  13.356   9.955  0.0450  0.0518  0.3265
  422BOLB   GL210108  10.233  13.454   9.837  0.2222  0.4054  0.0239
  422BOLB   C1A10109  10.051  12.992   9.839 -0.0019  0.1729 -0.1271
  422BOLB   C2A10110  10.243  12.529   9.621 -0.1156 -0.3397 -0.0626
  422BOLB   C3A10111   9.902  12.231   9.529  0.0617 -0.1846  0.0390
  422BOLB   C4A10112   9.528  12.002   9.589 -0.2219 -0.0963  0.1288
  422BOLB   C1B10113  10.469  13.174   9.738 -0.1377  0.1163  0.0016
  422BOLB   C2B10114  10.649  12.838   9.575 -0.3929 -0.0608  0.0501
  422BOLB   C3B10115  10.792  12.440   9.486 -0.0537  0.0417 -0.2011
  422BOLB   C4B10116  11.164  12.308   9.202 -0.2666  0.1532  0.0851
  422BOLB   NC210117  10.073   9.684   9.442 -0.0081  0.0041  0.1027
  422BOLB   PO210118   9.998   9.525   9.943 -0.4383 -0.1064  0.0727
  422BOLB   GL310119   9.778   9.803   9.877  0.2633 -0.1297 -0.1619
  422BOLB   GL410120   9.525   9.816  10.057 -0.2039 -0.0813 -0.0815
  422BOLB   C1C10121   9.721  10.236   9.741  0.0477  0.0943  0.1261
  422BOLB   C2C10122   9.659  10.700   9.775 -0.1613  0.2338 -0.1080
  422BOLB   C3C10123   9.524  11.163   9.680  0.1664 -0.0875  0.2797
  422BOLB   C4C10124   9.508  11.626   9.800  0.0775 -0.2167 -0.1651
  422BOLB   C1D10125   9.828  10.093  10.308  0.0397  0.0898  0.1035
  422BOLB   C2D10126   9.938  10.229  10.710 -0.0623  0.0516 -0.3317
  422BOLB   C3D10127   9.817  10.366  11.127  0.0381 -0.1083  0.1103
  422BOLB   C4D10128  10.065  10.432  11.528 -0.0745 -0.1888 -0.0034
  423BOLB   NC110129   7.893  28.549   7.235 -0.0705  0.1699  0.1073
  423BOLB   PO110130   7.438  28.664   7.373 -0.1821 -0.1749  0.0244
  423BOLB   GL110131   7.786  29.061   7.308  0.0302  0.2218  0.1108
  423BOLB   GL210132   7.647  29.328   7.508 -0.2572 -0.2515  0.3409
  423BOLB   C1A10133   7.955  29.417   7.195  0.0143 -0.1115  0.3192
  423BOLB   C2A10134   8.170  29.920   7.143  0.1773  0.0297  0.1388
  423BOLB   C3A10135   8.170  30.368   7.203  0.0376  0.4089  0.0180
  423BOLB   C4A10136   8.339  30.841   7.360  0.0149 -0.1021  0.8210
  423BOLB   C1B10137   7.480  29.448   7.144 -0.3261 -0.0797  0.0502
  423BOLB   C2B10138   7.356  29.516   6.699  0.1828  0.3877 -0.3039
  423BOLB   C3B10139   7.487  29.855   6.459  0.3109  0.2064 -0.2945
  423BOLB   C4B10140   7.657  30.013   6.086 -0.0478  0.2937  0.2259
  423BOLB   NC210141   7.240  32.886   6.634  0.0179 -0.4442  0.1649
  423BOLB   PO210142   7.434  32.749   6.213 -0.3054  0.5671  0.1906
  423BOLB   GL310143   7.474  32.331   6.358  0.1245 -0.1529  0.1985
  423BOLB   GL410144   7.463  32.065   6.321 -0.2171  0.1340  0.1735
  423BOLB   C1C10145   7.662  32.198   6.772 -0.3382 -0.1778 -0.0020
  423BOLB   C2C10146   8.052  32.052   7.173  0.3547 -0.0075 -0.0099
  423BOLB   C3C10147   8.154  31.701   7.195  0.1603  0.2292 -0.0372
  423BOLB   C4C10148   8.181  31.307   7.411 -0.1310 -0.2423 -0.0725
  423BOLB   C1D10149   7.514  31.738   6.700  0.0586  0.1306  0.4122
  423BOLB   C2D10150   7.457  31.290   6.783 -0.0106 -0.2054  0.3180
  423BOLB   C3D10151   7.387  30.809   6.950 -0.1985 -0.0090 -0.1761
  423BOLB   C4D10152   7.351  30.436   7.347  0.1939 -0.1845  0.1376
  424BOLB   NC110153  11.645  18.767  16.811 -0.1087 -0.0325  0.0391
  424BOLB   PO110154  11.880  18.502  16.517  0.0959  0.1947 -0.1385
  424BOLB   GL110155  12.126  18.395  16.952  0.0831  0.0608  0.0273
  424BOLB   GL210156  11.858  18.564  17.288 -0.1839  0.2120  0.0185
  424BOLB   C1A10157  12.358  18.573  17.269  0.2276 -0.1641 -0.2618
  424BOLB   C2A10158  12.411  18.690  17.679 -0.0683 -0.1181  0.0629
  424BOLB   C3A10159  12.314  18.574  17.993  0.3227  0.2661  0.2114
  424BOLB   C4A10160  12.245  18.413  18.424  0.2478  0.3809 -0.0953
  424BOLB   C1B10161  11.953  18.902  17.590 -0.1437  0.1191 -0.1758
  424BOLB   C2B10162  12.158  19.051  17.941  0.4655  0.1898  0.3392
  424BOLB   C3B10163  12.041  19.348  18.293  0.0436 -0.2296 -0.2856
  424BOLB   C4B10164  11.927  19.309  18.758  0.7177  0.0638 -0.1084
  424BOLB   NC210165  13.376  17.566  20.343 -0.2259  0.1644  0.0703
  424BOLB   PO210166  13.082  17.385  20.369 -0.2061  0.2092 -0.0138
  424BOLB   GL310167  12.995  17.597  20.021  0.1649 -0.6440  0.0973
  424BOLB   GL410168  13.023  17.883  20.038  0.1729 -0.2361  0.0217
  424BOLB   C1C10169  12.691  17.655  19.811  0.2265  0.1096 -0.0475
  424BOLB   C2C10170  12.379  17.856  19.528 -0.1363 -0.2344 -0.1728
  424BOLB   C3C10171  12.355  17.955  19.135 -0.1611  0.0803 -0.2368
  424BOLB   C4C10172  12.159  18.277  18.836 -0.1297  0.1292  0.1860
  424BOLB   C1D10173  12.633  18.102  19.888  0.0127 -0.2279 -0.1707
  424BOLB   C2D10174  12.238  18.226  19.793  0.2264 -0.1652 -0.0958
  424BOLB   C3D10175  11.719  18.223  19.603  0.1830 -0.1212  0.1430
  424BOLB   C4D10176  11.459  18.526  19.297 -0.0906 -0.0882 -0.0036
  425BOLB   NC110177  11.180  27.377  11.811 -0.0952  0.0149  0.0195
  425BOLB   PO110178  11.646  27.543  11.750  0.1344  0.1739 -0.0108
  425BOLB   GL110179  12.059  27.738  11.801 -0.0640 -0.0739 -0.0005
  425BOLB   GL210180  12.097  27.617  11.559 -0.2804 -0.0648  0.4055
  425BOLB   C1A10181  12.365  27.964  11.954  0.0545  0.0049 -0.1687
  425BOLB   C2A10182  12.621  28.289  12.174 -0.0592  0.0439  0.2151
  425BOLB   C3A10183  12.550  28.656  12.526  0.0133  0.3634 -0.1961
  425BOLB   C4A10184  12.773  28.964  12.792 -0.1740  0.0089  0.0546
  425BOLB   C1B10185  12.172  28.076  11.421  0.1258  0.0326  0.1610
  425BOLB   C2B10186  12.185  28.505  11.648 -0.0532 -0.0330 -0.0123
  425BOLB   C3B10187  12.360  28.715  12.084 -0.0230 -0.0873  0.0390
  425BOLB   C4B10188  12.629  29.091  12.155  0.0614  0.2743  0.1033
  425BOLB   NC210189  14.728  30.426  13.153 -0.0334 -0.1982 -0.0264
  425BOLB   PO210190  14.599  30.000  13.348 -0.0948 -0.0357  0.3486
  425BOLB   GL310191  14.346  29.633  13.263 -0.0714  0.2832  0.0347
  425BOLB   GL410192  14.306  29.563  13.538  0.3122 -0.1116  0.1694
  425BOLB   C1C10193  14.036  29.348  13.129  0.0646 -0.3995  0.1675
  425BOLB   C2C10194  13.652  29.359  12.981 -0.0579  0.1250  0.4949
  425BOLB   C3C10195  13.333  29.577  12.827  0.0566 -0.1377 -0.0888
  425BOLB   C4C10196  13.045  29.346  12.633  0.1063  0.2222 -0.0619
  425BOLB   C1D10197  14.140  29.117  13.572 -0.0686 -0.0469  0.0999
  425BOLB   C2D10198  13.636  29.024  13.399 -0.0998  0.1406  0.4297
  425BOLB   C3D10199  13.349  28.636  13.393  0.0686 -0.3050 -0.0976
  425BOLB   C4D10200  13.091  28.238  13.232 -0.0561  0.2784  0.0175
  426BOLB   NC110201   6.300  21.102  18.610  0.3851 -0.1871  0.2080
  426BOLB   PO110202   6.397  21.643  18.563 -0.0589  0.1823  0.0880
  426BOLB   GL110203   6.412  21.385  18.991 -0.1153 -0.1348 -0.1075
  426BOLB   GL210204   6.666  21.202  19.040  0.2569 -0.2140 -0.0531
  426BOLB   C1A10205   6.333  21.289  19.372 -0.1698 -0.5307  0.0696
  426BOLB   C2A10206   6.151  20.955  19.676  0.1813  0.1474 -0.0352
  426BOLB   C3A10207   6.223  20.779  20.010  0.0627 -0.1144  0.1356
  426BOLB   C4A10208   6.229  20.629  20.362 -0.2463  0.4802 -0.0628
  426BOLB   C1B10209   6.781  21.451  19.371 -0.3134  0.0484 -0.2927
  426BOLB   C2B10210   6.992  21.283  19.646 -0.0436 -0.0193 -0.2010
  426BOLB   C3B10211   7.000  21.537  20.031 -0.1804 -0.1140 -0.0189
  426BOLB   C4B10212   7.115  21.711  20.434 -0.0056 -0.1341  0.1546
  426BOLB   NC210213   5.282  19.630  22.532 -0.2706 -0.0976 -0.0832
  426BOLB   PO210214   5.779  19.431  22.421  0.2806 -0.0389 -0.0714
  426BOLB   GL310215   6.062  19.483  22.136  0.1916 -0.1158 -0.0598
  426BOLB   GL410216   6.379  19.440  22.154  0.0874 -0.1079 -0.0283
  426BOLB   C1C10217   6.139  19.490  21.656  0.0325  0.1701  0.1281
  426BOLB   C2C10218   6.179  19.921  21.442 -0.4573 -0.1433  0.0639
  426BOLB   C3C10219   6.220  19.988  20.998  0.1872 -0.0953  0.1023
  426BOLB   C4C10220   6.390  20.310  20.728 -0.2361 -0.0368 -0.0309
  426BOLB   C1D10221   6.473  19.732  21.998 -0.0465 -0.0874  0.0062
  426BOLB   C2D10222   6.608  20.075  21.744  0.1776  0.2344 -0.0302
  426BOLB   C3D10223   6.837  20.121  21.398  0.0248  0.0053 -0.1420
  426BOLB   C4D10224   6.786  20.016  21.053  0.0119  0.2907 -0.0584
  427BOLB   NC110225   4.610  13.694   7.324 -0.0805 -0.1724 -0.1338
  427BOLB   PO110226   4.583  13.129   7.192  0.2355  0.0574 -0.2119
  427BOLB   GL110227   4.420  12.955   6.836 -0.1497  0.0211 -0.0089
  427BOLB   GL210228   4.365  13.087   6.561 -0.0366  0.4530  0.2646
  427BOLB   C1A10229   4.327  12.537   6.673 -0.1124 -0.1176 -0.4118
  427BOLB   C2A10230   4.421  12.126   6.528  0.0065 -0.2442 -0.2189
  427BOLB   C3A10231   4.576  11.899   6.156 -0.2032  0.1825  0.0073
  427BOLB   C4A10232   4.392  11.461   6.002 -0.0426 -0.1528  0.0176
  427BOLB   C1B10233   4.421  12.784   6.265 -0.3339  0.0102 -0.1527
  427BOLB   C2B10234   4.200  12.748   5.821 -0.2461 -0.1227 -0.3854
  427BOLB   C3B10235   4.212  12.555   5.501 -0.1145 -0.1404  0.1309
  427BOLB   C4B10236   4.465  12.365   5.298  0.2160 -0.1061 -0.0833
  427BOLB   NC210237   4.572   9.275   4.373  0.3638 -0.1650  0.0687
  427BOLB   PO210238   4.932   9.474   4.563 -0.2971  0.0967 -0.3474
  427BOLB   GL310239   4.831   9.853   4.726  0.0217  0.2248  0.0327
  427BOLB   GL410240   4.795   9.866   5.046 -0.1131  0.1585  0.1196
  427BOLB   C1C10241   4.743  10.361   4.815 -0.1970  0.0009  0.1700
  427BOLB   C2C10242   4.713  10.799   4.982 -0.1945 -0.1859  0.1686
  427BOLB   C3C10243   4.704  10.927   5.326 -0.0047  0.0740 -0.0587
  427BOLB   C4C10244   4.621  11.124   5.774 -0.2953 -0.2020  0.2260
  427BOLB   C1D10245   4.784  10.215   5.370  0.1071 -0.0039 -0.2926
  427BOLB   C2D10246   4.633  10.475   5.626 -0.1441  0.0883  0.1178
  427BOLB   C3D10247   4.327  10.759   5.771 -0.1999 -0.0912  0.0133
  427BOLB   C4D10248   4.141  11.086   5.561  0.1006  0.1362  0.0485
  428BOLB   NC110249  31.125  21.441   2.979 -0.1618  0.1033  0.0284
  428BOLB   PO110250  31.086  21.637   3.405 -0.0882 -0.0396  0.2477
  428BOLB   GL110251  31.298  21.533   3.834 -0.1892  0.0690  0.2545
  428BOLB   GL210252  31.467  21.771   3.957  0.1664 -0.0772  0.0399
  428BOLB   C1A10253  31.222  21.428   4.349  0.0186 -0.2075  0.1954
  428BOLB   C2A10254  31.310  21.212   4.726  0.6372 -0.1553  0.0522
  428BOLB   C3A10255  31.470  21.381   5.052  0.1136  0.0891 -0.2152
  428BOLB   C4A10256  31.678  21.564   5.369 -0.1218 -0.2057  0.0904
  428BOLB   C1B10257  31.712  21.524   4.120  0.1572 -0.0152 -0.2143
  428BOLB   C2B10258  31.661  21.010   4.087 -0.0237 -0.1450  0.2945
  428BOLB   C3B10259  31.708  20.570   4.140 -0.0336  0.1048 -0.1788
  428BOLB   C4B10260  31.529  20.209   4.432 -0.1729 -0.0775  0.1946
  428BOLB   NC210261  30.046  22.617   4.956  0.2737  0.2193  0.0608
  428BOLB   PO210262  30.131  22.775   5.407  0.1640  0.0622  0.0307
  428BOLB   GL310263  30.572  22.882   5.647 -0.2917 -0.2994  0.1863
  428BOLB   GL410264  30.749  23.216   5.724  0.1232  0.0015 -0.3802
  428BOLB   C1C10265  30.789  22.672   6.044 -0.2724 -0.1288 -0.0723
  428BOLB   C2C10266  31.170  22.372   6.033  0.2639  0.1397  0.1957
  428BOLB   C3C10267  31.376  21.941   5.970  0.0588  0.3042 -0.0169
  428BOLB   C4C10268  31.631  21.798   5.743  0.1951 -0.0528  0.2240
  428BOLB   C1D10269  30.963  23.193   6.077 -0.3074  0.2039  0.1480
  428BOLB   C2D10270  31.177  23.309   6.438 -0.0506 -0.0437  0.0377
  428BOLB   C3D10271  31.092  23.295   6.905  0.0618  0.0322  0.2559
  428BOLB   C4D10272  31.131  23.093   7.243  0.0277 -0.3176  0.0968
  429BOLB   NC110273  10.636  27.394  12.996 -0.0844  0.1284  0.1687
  429BOLB   PO110274  10.238  27.697  12.946 -0.3685  0.4942 -0.0048
  429BOLB   GL110275  10.408  28.086  13.170 -0.1693 -0.1828 -0.0563
  429BOLB   GL210276  10.359  28.107  13.547 -0.1533  0.2295 -0.1506
  429BOLB   C1A10277  10.551  28.522  13.211  0.1859  0.1300 -0.0689
  429BOLB   C2A10278  10.586  28.828  13.513 -0.0702  0.0652  0.2442
  429BOLB   C3A10279  10.458  29.275  13.625  0.0673 -0.2508 -0.1857
  429BOLB   C4A10280  10.721  29.674  13.624 -0.2308  0.0748  0.0124
  429BOLB   C1B10281  10.458  28.487  13.859 -0.1287  0.1030 -0.0493
  429BOLB   C2B10282  10.567  28.852  14.014 -0.2738 -0.0679  0.0183
  429BOLB   C3B10283  10.690  29.227  14.295  0.3398  0.2629  0.0110
  429BOLB   C4B10284  10.757  29.415  14.656 -0.0951  0.0296 -0.0802
  429BOLB   NC210285  12.939  31.246  14.210 -0.0908 -0.1526  0.1044
  429BOLB   PO210286  12.611  31.203  13.942  0.3019  0.1329  0.0548
  429BOLB   GL310287  12.362  30.852  14.145  0.0357  0.2096  0.4632
  429BOLB   GL410288  12.345  30.401  14.056 -0.2017  0.2968  0.0824
  429BOLB   C1C10289  11.919  30.635  14.144 -0.0266  0.0468  0.3212
  429BOLB   C2C10290  11.505  30.423  14.251  0.1434  0.1082  0.0576
  429BOLB   C3C10291  11.118  30.183  14.162  0.1404  0.3196 -0.1640
  429BOLB   C4C10292  11.013  29.905  13.883 -0.0840  0.1655 -0.0050
  429BOLB   C1D10293  12.363  29.965  14.072 -0.1421 -0.0165  0.3589
  429BOLB   C2D10294  12.504  29.609  13.909  0.0553  0.5155 -0.3757
  429BOLB   C3D10295  12.494  29.499  13.491  0.1355  0.5098 -0.0267
  429BOLB   C4D10296  12.647  29.102  13.312 -0.0431 -0.3211  0.0409
  430BOLB   NC110297  13.194  20.319  14.525 -0.0443  0.2647  0.4598
  430BOLB   PO110298  13.528  20.749  14.521  0.0209 -0.3546  0.1820
  430BOLB   GL110299  13.817  20.906  14.898 -0.1876 -0.1534 -0.1302
  430BOLB   GL210300  13.697  20.847  15.186 -0.2938 -0.0246  0.0910
  430BOLB   C1A10301  14.196  20.657  15.051  0.0137  0.0490  0.0722
  430BOLB   C2A10302  14.595  20.486  15.163  0.2891  0.3790  0.1786
  430BOLB   C3A10303  14.963  20.267  15.404 -0.1471 -0.0357  0.1348
  430BOLB   C4A10304  15.265  20.138  15.557 -0.3626 -0.1728 -0.0571
  430BOLB   C1B10305  13.979  20.814  15.529  0.0335 -0.4193 -0.1465
  430BOLB   C2B10306  14.194  20.829  16.002 -0.0039  0.0548  0.1181
  430BOLB   C3B10307  14.439  20.578  16.257 -0.0887 -0.3103  0.2157
  430BOLB   C4B10308  14.700  20.250  16.400 -0.1591 -0.1792  0.2029
  430BOLB   NC210309  16.576  19.673  17.578  0.0423  0.0164 -0.0475
  430BOLB   PO210310  16.469  19.321  17.286 -0.2381 -0.3011 -0.0487
  430BOLB   GL310311  16.199  19.515  17.157 -0.0477 -0.2784  0.3470
  430BOLB   GL410312  15.983  19.611  17.426 -0.0085  0.2759  0.0739
  430BOLB   C1C10313  15.978  19.451  16.837  0.0364  0.0257  0.0512
  430BOLB   C2C10314  16.044  19.708  16.438 -0.2883 -0.1213 -0.1168
  430BOLB   C3C10315  15.874  19.818  15.972  0.0710  0.1463  0.0539
  430BOLB   C4C10316  15.511  19.832  15.746  0.0040 -0.0493  0.2094
  430BOLB   C1D10317  15.625  19.739  17.441  0.1800  0.0923 -0.1332
  430BOLB   C2D10318  15.385  20.106  17.292 -0.0162  0.0717  0.0003
  430BOLB   C3D10319  15.089  20.130  16.978 -0.0020  0.0022  0.0526
  430BOLB   C4D10320  15.005  19.994  16.652  0.1498 -0.1828 -0.0306
  431BOLB   NC110321   5.105  14.010  13.747  0.0681  0.0526 -0.0542
  431BOLB   PO110322   5.538  13.950  13.859  0.0075 -0.3033 -0.1286
  431BOLB   GL110323   5.416  13.569  13.674  0.0951  0.0433  0.1250
  431BOLB   GL210324   5.199  13.551  13.920 -0.0827 -0.4545 -0.1302
  431BOLB   C1A10325   5.530  13.231  13.525 -0.0999  0.0879 -0.0336
  431BOLB   C2A10326   5.690  12.979  13.829  0.2802  0.0150 -0.0750
  431BOLB   C3A10327   6.024  12.728  13.783 -0.0599  0.0098 -0.1694
  431BOLB   C4A10328   6.247  12.371  13.849 -0.1287  0.0292 -0.0227
  431BOLB   C1B10329   5.523  13.392  14.234 -0.3553 -0.2523 -0.1910
  431BOLB   C2B10330   5.534  13.189  14.527 -0.1556  0.2103  0.1542
  431BOLB   C3B10331   5.582  12.775  14.644  0.1271 -0.3188  0.1652
  431BOLB   C4B10332   5.309  12.603  14.913  0.0694  0.1645  0.2220
  431BOLB   NC210333   6.313   9.609  13.667 -0.3956 -0.1047  0.1038
  431BOLB   PO210334   6.431   9.905  13.939  0.0560 -0.1524  0.0247
  431BOLB   GL310335   6.255  10.372  13.971  0.3345  0.2442 -0.0357
  431BOLB   GL410336   5.993  10.332  14.234 -0.1353 -0.0559 -0.0444
  431BOLB   C1C10337   6.561  10.654  14.068 -0.0233 -0.0930  0.2952
  431BOLB   C2C10338   6.593  11.159  13.990 -0.0861  0.2038 -0.3409
  431BOLB   C3C10339   6.582  11.675  13.887 -0.2806 -0.2416 -0.0006
  431BOLB   C4C10340   6.219  11.956  13.688 -0.0582 -0.0820  0.0065
  431BOLB   C1D10341   5.948  10.730  14.095  0.2469 -0.1251 -0.0216
  431BOLB   C2D10342   6.154  10.869  13.760  0.1408 -0.2018 -0.1435
  431BOLB   C3D10343   6.609  10.857  13.600 -0.1978  0.3426 -0.0981
  431BOLB   C4D10344   6.807  10.487  13.426 -0.0644 -0.3545  0.0937
  432BOLB   NC110345   8.285  20.812   2.200  0.0004 -0.3096  0.3007
  432BOLB   PO110346   8.293  21.155   2.362  0.3161  0.4668  0.3138
  432BOLB   GL110347   8.158  21.287   1.907 -0.2154 -0.2596 -0.0346
  432BOLB   GL210348   8.442  21.058   1.754 -0.2238  0.1468  0.0108
  432BOLB   C1A10349   8.021  21.105   1.470  0.0453 -0.1973  0.1803
  432BOLB   C2A10350   8.137  21.213   1.033 -0.1571  0.2614 -0.2279
  432BOLB   C3A10351   8.433  21.382   0.631 -0.0859 -0.2941  0.0307
  432BOLB   C4A10352   8.482  21.482   0.147  0.2060  0.2393 -0.1216
  432BOLB   C1B10353   8.379  21.444   1.459 -0.0687  0.0094 -0.1965
  432BOLB   C2B10354   8.230  21.769   1.183  0.2006  0.0481 -0.1587
  432BOLB   C3B10355   8.277  21.906   0.728 -0.2766 -0.1668  0.1893
  432BOLB   C4B10356   8.317  21.968   0.175  0.2897 -0.1761  0.0507
  432BOLB   NC210357   8.087  22.299  -1.597 -0.0562  0.1678  0.3252
  432BOLB   PO210358   7.994  21.925  -1.691 -0.2439  0.0985  0.1015
  432BOLB   GL310359   8.129  21.786  -1.394 -0.0863  0.1476  0.1633
  432BOLB   GL410360   7.847  21.668  -1.223 -0.0533  0.0880  0.1103
  432BOLB   C1C10361   8.339  21.752  -1.039  0.1031 -0.3210 -0.0447
  432BOLB   C2C10362   8.702  21.835  -0.794  0.5992 -0.0498 -0.3696
  432BOLB   C3C10363   8.854  21.853  -0.433 -0.1701  0.0536 -0.1950
  432BOLB   C4C10364   8.702  21.673   0.002 -0.2698 -0.2501 -0.1061
  432BOLB   C1D10365   7.870  21.449  -0.908 -0.4000  0.1055 -0.2258
  432BOLB   C2D10366   7.710  21.291  -0.511 -0.1008 -0.0860  0.1894
  432BOLB   C3D10367   7.583  21.004  -0.385 -0.1383  0.0334 -0.1086
  432BOLB   C4D10368   7.773  20.611  -0.474 -0.1542 -0.1171  0.1482
  433BOLB   NC110369  13.496  25.142   9.557  0.3792  0.2150  0.0074
  433BOLB   PO110370  13.615  25.383   9.277  0.4841  0.2296  0.0038
  433BOLB   GL110371  13.981  25.623   9.340  0.2099  0.0615  0.0153
  433BOLB   GL210372  14.089  25.770   8.980  0.1331 -0.1893  0.0547
  433BOLB   C1A10373  14.319  25.873   9.429 -0.0979  0.1589 -0.1503
  433BOLB   C2A10374  14.688  25.935   9.386 -0.1105 -0.0596  0.2163
  433BOLB   C3A10375  15.072  26.057   9.204  0.1744  0.0293  0.0400
  433BOLB   C4A10376  15.450  26.091   9.290 -0.0663  0.1428  0.0199
  433BOLB   C1B10377  14.310  26.096   8.960 -0.4820  0.2380 -0.0431
  433BOLB   C2B10378  14.680  26.293   8.953  0.3708 -0.1944 -0.2536
  433BOLB   C3B10379  15.077  26.339   8.542 -0.0697 -0.1269 -0.1649
  433BOLB   C4B10380  15.393  26.632   8.432  0.2354 -0.4553 -0.0590
  433BOLB   NC210381  16.803  28.030   9.094 -0.0756  0.1748 -0.2285
  433BOLB   PO210382  17.078  27.815   9.003  0.3556 -0.1767  0.2272
  433BOLB   GL310383  16.728  27.577   8.778  0.0430 -0.1306  0.2719
  433BOLB   GL410384  16.461  27.835   8.615 -0.0052  0.3907  0.2100
  433BOLB   C1C10385  16.468  27.231   8.843 -0.2178  0.3245  0.0266
  433BOLB   C2C10386  16.249  26.919   9.049 -0.0337  0.1174  0.0510
  433BOLB   C3C10387  15.984  26.653   9.063 -0.4080 -0.3508  0.0488
  433BOLB   C4C10388  15.798  26.238   9.224  0.2343  0.1404  0.0231
  433BOLB   C1D10389  16.113  27.539   8.638 -0.0336  0.0608  0.0217
  433BOLB   C2D10390  15.671  27.585   8.501  0.5750 -0.1330 -0.2655
  433BOLB   C3D10391  15.358  27.291   8.708 -0.0022 -0.1423  0.1185
  433BOLB   C4D10392  15.206  27.079   9.076  0.1685 -0.3103 -0.2499
  434BOLB   NC110393  14.197  21.413  11.893  0.0386  0.0215  0.1989
  434BOLB   PO110394  14.633  21.165  12.027  0.1164 -0.2846  0.1226
  434BOLB   GL110395  15.064  21.026  11.951  0.4189 -0.1879  0.0183
  434BOLB   GL210396  15.174  20.763  11.824 -0.2866 -0.1311 -0.1202
  434BOLB   C1A10397  15.493  21.287  11.832  0.2304 -0.0357  0.0953
  434BOLB   C2A10398  15.911  21.158  11.796 -0.0741 -0.0476  0.3745
  434BOLB   C3A10399  16.149  20.782  12.045 -0.0552  0.2812  0.1094
  434BOLB   C4A10400  16.588  20.460  12.046 -0.1254 -0.1471 -0.0313
  434BOLB   C1B10401  15.548  20.576  11.943  0.1567  0.3646 -0.1080
  434BOLB   C2B10402  15.960  20.344  11.951  0.1136  0.1833  0.2183
  434BOLB   C3B10403  16.199  19.897  11.966  0.0915 -0.1808  0.0795
  434BOLB   C4B10404  16.420  19.594  11.744 -0.1705 -0.4173 -0.0418
  434BOLB   NC210405  18.642  18.816  12.067  0.0175  0.1615 -0.1338
  434BOLB   PO210406  18.279  19.069  11.925 -0.3431 -0.1460  0.2115
  434BOLB   GL310407  17.915  19.047  11.878 -0.0974 -0.1566  0.0402
  434BOLB   GL410408  17.970  19.058  11.522 -0.1438 -0.2739 -0.2061
  434BOLB   C1C10409  17.727  19.436  11.758  0.0339 -0.2945 -0.1201
  434BOLB   C2C10410  17.353  19.538  12.062 -0.0757 -0.2199 -0.0069
  434BOLB   C3C10411  17.124  19.861  12.321 -0.2645  0.1069  0.1644
  434BOLB   C4C10412  16.926  20.266  12.304  0.2312 -0.2011 -0.0727
  434BOLB   C1D10413  17.532  19.075  11.434 -0.0355 -0.1219 -0.0040
  434BOLB   C2D10414  17.125  19.092  11.493 -0.4111 -0.1546 -0.0782
  434BOLB   C3D10415  16.918  19.241  11.209  0.3748 -0.0571  0.3407
  434BOLB   C4D10416  16.477  19.000  11.034  0.0284  0.0321  0.6620
  435BOLB   NC110417  15.606  21.027   8.928  0.1209  0.0805  0.3672
  435BOLB   PO110418  15.547  21.416   9.008 -0.1501 -0.3024 -0.1428
  435BOLB   GL110419  15.887  21.605   9.167 -0.0150  0.0933  0.0374
  435BOLB   GL210420  15.921  21.823   8.905  0.1994 -0.0597  0.1423
  435BOLB   C1A10421  16.022  21.791   9.474  0.2598 -0.2002  0.0064
  435BOLB   C2A10422  16.441  21.991   9.707  0.0170 -0.0741  0.1417
  435BOLB   C3A10423  16.715  22.312   9.550  0.0854 -0.1096 -0.3758
  435BOLB   C4A10424  17.168  22.246   9.502 -0.1903  0.0952 -0.2951
  435BOLB   C1B10425  16.355  21.719   9.040  0.2420 -0.0348 -0.0800
  435BOLB   C2B10426  16.668  21.773   9.338  0.2578  0.0115  0.2371
  435BOLB   C3B10427  16.995  21.632   9.573  0.1842 -0.1717  0.0495
  435BOLB   C4B10428  16.921  21.280   9.856 -0.0421 -0.0815  0.0961
  435BOLB   NC210429  19.154  23.321   7.931 -0.1348 -0.0916  0.3639
  435BOLB   PO210430  18.909  23.029   8.266  0.0779 -0.2150 -0.0021
  435BOLB   GL310431  18.584  22.675   8.403  0.2245 -0.2142  0.1546
  435BOLB   GL410432  18.460  22.635   8.113  0.3558 -0.1219  0.2161
  435BOLB   C1C10433  18.476  22.316   8.542  0.2028  0.0253  0.1574
  435BOLB   C2C10434  18.238  22.309   8.795  0.2263 -0.0597  0.0913
  435BOLB   C3C10435  17.846  22.301   9.073  0.2005  0.1362 -0.3978
  435BOLB   C4C10436  17.429  22.292   9.272 -0.2253  0.0905  0.1639
  435BOLB   C1D10437  18.074  22.512   8.255  0.1305  0.0393  0.1609
  435BOLB   C2D10438  17.738  22.377   8.390  0.0340  0.0313 -0.2678
  435BOLB   C3D10439  17.561  22.071   8.112 -0.0045  0.0808 -0.0737
  435BOLB   C4D10440  17.459  21.748   7.783 -0.0084  0.4256  0.0627
  436BOLB   NC110441   9.907  26.797   6.637 -0.1244 -0.1932  0.5082
  436BOLB   PO110442  10.069  27.241   6.725 -0.0091 -0.1379  0.0014
  436BOLB   GL110443  10.145  27.524   6.392 -0.0678 -0.0738  0.0000
  436BOLB   GL210444  10.467  27.427   6.294 -0.1842 -0.3717 -0.1225
  436BOLB   C1A10445  10.402  27.881   6.068 -0.2921 -0.2211 -0.1092
  436BOLB   C2A10446  10.565  28.402   5.804 -0.2745 -0.0903  0.2410
  436BOLB   C3A10447  10.979  28.570   5.510 -0.0407  0.2880  0.2334
  436BOLB   C4A10448  11.122  28.527   5.161  0.0718 -0.3509  0.1002
  436BOLB   C1B10449  10.786  27.518   6.122  0.3177  0.0334 -0.2346
  436BOLB   C2B10450  11.182  27.721   5.960  0.0149  0.0407 -0.2508
  436BOLB   C3B10451  11.616  27.924   5.872  0.2415  0.1843  0.0299
  436BOLB   C4B10452  11.911  28.069   6.011  0.1410  0.0238  0.0806
  436BOLB   NC210453  12.555  29.430   3.054 -0.0941  0.0229 -0.0790
  436BOLB   PO210454  12.152  29.431   3.355 -0.3409  0.0467 -0.0805
  436BOLB   GL310455  12.238  29.164   3.714 -0.0715  0.3204 -0.0910
  436BOLB   GL410456  12.502  28.998   3.705 -0.0395  0.1798 -0.0248
  436BOLB   C1C10457  12.089  29.051   4.164 -0.2087  0.0443  0.0082
  436BOLB   C2C10458  11.872  28.897   4.383  0.1612 -0.2672  0.0347
  436BOLB   C3C10459  11.574  28.836   4.582  0.1636  0.0834  0.1428
  436BOLB   C4C10460  11.456  28.620   4.951  0.0471 -0.5256 -0.1415
  436BOLB   C1D10461  12.431  28.713   4.066  0.1554  0.1512  0.1417
  436BOLB   C2D10462  12.161  28.449   4.326 -0.1804  0.0604 -0.0066
  436BOLB   C3D10463  12.184  28.045   4.615 -0.1999 -0.0793 -0.1671
  436BOLB   C4D10464  12.099  27.702   4.866  0.3768 -0.0508  0.0808
  437BOLB   NC110465   8.728  23.697  17.972  0.0784 -0.2973 -0.0065
  437BOLB   PO110466   8.723  23.483  18.301  0.0740 -0.0990 -0.1310
  437BOLB   GL110467   8.980  23.406  18.649  0.3445 -0.1459  0.5419
  437BOLB   GL210468   9.236  23.611  18.604  0.0641  0.3603 -0.2418
  437BOLB   C1A10469   9.169  23.345  19.039 -0.2346 -0.1034 -0.3918
  437BOLB   C2A10470   9.287  23.544  19.429 -0.3124 -0.0173 -0.2485
  437BOLB   C3A10471   9.615  23.618  19.758 -0.1770 -0.3068  0.0877
  437BOLB   C4A10472   9.932  23.754  20.054 -0.3323 -0.0104  0.1555
  437BOLB   C1B10473   9.446  23.795  19.012  0.2427  0.0717  0.0160
  437BOLB   C2B10474   9.740  23.795  19.310  0.1472 -0.0038  0.0658
  437BOLB   C3B10475   9.940  24.064  19.475  0.1000  0.2536 -0.1975
  437BOLB   C4B10476  10.145  24.383  19.580 -0.2046 -0.1101  0.0876
  437BOLB   NC210477  12.164  23.074  21.408  0.0356  0.4054  0.1044
  437BOLB   PO210478  12.413  23.381  21.190  0.0677 -0.0521  0.1478
  437BOLB   GL310479  12.052  23.393  20.965 -0.1417  0.4304 -0.1529
  437BOLB   GL410480  11.880  23.212  20.957  0.0161  0.0466 -0.0328
  437BOLB   C1C10481  11.659  23.626  20.706 -0.2172 -0.0928  0.1921
  437BOLB   C2C10482  11.194  23.580  20.531  0.4109 -0.2247  0.0395
  437BOLB   C3C10483  10.701  23.659  20.304 -0.2060  0.1929  0.0800
  437BOLB   C4C10484  10.287  23.488  20.290 -0.2992 -0.1229  0.1231
  437BOLB   C1D10485  11.435  23.168  20.815 -0.1614  0.1706 -0.2271
  437BOLB   C2D10486  11.236  23.136  20.394 -0.2805 -0.1274  0.0798
  437BOLB   C3D10487  11.226  22.926  20.038 -0.2134 -0.2397 -0.2000
  437BOLB   C4D10488  11.368  22.961  19.808 -0.0119  0.2938  0.0079
  438BOLB   NC110489  12.181  23.674  16.091  0.1172 -0.1153  0.1135
  438BOLB   PO110490  12.404  23.682  15.702  0.1121  0.0024  0.1802
  438BOLB   GL110491  12.634  23.691  16.188 -0.1086 -0.3646  0.2530
  438BOLB   GL210492  12.979  23.506  16.191 -0.0209 -0.0132  0.1648
  438BOLB   C1A10493  12.779  23.737  16.612 -0.0740  0.1917  0.1038
  438BOLB   C2A10494  13.155  23.775  16.721 -0.4137 -0.1759 -0.2165
  438BOLB   C3A10495  13.498  23.955  17.004  0.2345  0.1892 -0.1641
  438BOLB   C4A10496  13.730  24.175  17.256  0.0005 -0.0278 -0.1642
  438BOLB   C1B10497  13.394  23.749  16.251  0.2227  0.1244  0.0941
  438BOLB   C2B10498  13.698  23.993  16.381 -0.0685  0.2441 -0.0797
  438BOLB   C3B10499  13.953  24.404  16.610  0.1902  0.0534  0.1368
  438BOLB   C4B10500  14.000  24.826  16.445  0.0421 -0.1091 -0.1021
  438BOLB   NC210501  15.886  25.273  17.968 -0.1569  0.1782  0.0245
  438BOLB   PO210502  15.930  24.843  17.784 -0.0471  0.2026 -0.3712
  438BOLB   GL310503  15.616  24.547  17.616 -0.0448  0.1619  0.2112
  438BOLB   GL410504  15.755  24.291  17.839 -0.0469 -0.3099  0.1427
  438BOLB   C1C10505  15.150  24.342  17.631  0.1619  0.1445  0.0002
  438BOLB   C2C10506  14.869  24.023  17.753  0.1890  0.2802 -0.1940
  438BOLB   C3C10507  14.399  23.974  17.639  0.1526 -0.0016 -0.0156
  438BOLB   C4C10508  14.078  23.979  17.344 -0.0568  0.0376  0.0515
  438BOLB   C1D10509  15.535  24.019  17.591  0.2183  0.2764 -0.0162
  438BOLB   C2D10510  15.290  23.709  17.387  0.0906  0.0484  0.2008
  438BOLB   C3D10511  14.880  23.842  17.258 -0.0922 -0.0443 -0.0887
  438BOLB   C4D10512  14.494  23.830  17.019  0.0730 -0.1384 -0.1179
  439BOLB   NC110513   0.731  25.016   6.841 -0.2794  0.0484  0.0265
  439BOLB   PO110514   0.784  25.458   6.991  0.0436  0.6301 -0.0630
  439BOLB   GL110515   0.559  25.749   6.854  0.1361  0.0205  0.2599
  439BOLB   GL210516   0.607  26.046   7.059 -0.1420  0.1140  0.0264
  439BOLB   C1A10517   0.394  26.041   6.529 -0.0657  0.1087 -0.0151
  439BOLB   C2A10518   0.145  26.226   6.135 -0.0390  0.0385  0.2924
  439BOLB   C3A10519  -0.175  26.446   6.071  0.0212 -0.0845  0.2294
  439BOLB   C4A10520  -0.134  26.899   5.959 -0.0033  0.1417 -0.0804
  439BOLB   C1B10521   0.259  26.218   6.940  0.2710 -0.1136 -0.1593
  439BOLB   C2B10522  -0.074  26.218   6.608 -0.0427  0.2963 -0.0202
  439BOLB   C3B10523  -0.457  26.371   6.463 -0.0583  0.0276  0.1820
  439BOLB   C4B10524  -0.834  26.610   6.466 -0.3541 -0.0014 -0.0567
  439BOLB   NC210525  -1.413  28.256   4.711 -0.0727  0.0440 -0.1841
  439BOLB   PO210526  -1.280  28.394   5.102  0.1835 -0.2786 -0.1278
  439BOLB   GL310527  -0.867  28.154   5.189 -0.3402  0.2213 -0.4274
  439BOLB   GL410528  -0.633  28.465   5.094 -0.2551  0.0349  0.1110
  439BOLB   C1C10529  -0.560  27.916   5.017 -0.0066  0.4335 -0.0074
  439BOLB   C2C10530  -0.363  27.697   5.330  0.1637  0.2338  0.2449
  439BOLB   C3C10531  -0.253  27.515   5.749 -0.1797  0.0858 -0.3846
  439BOLB   C4C10532  -0.217  27.288   5.997 -0.1854  0.1656 -0.1233
  439BOLB   C1D10533  -0.514  28.173   5.494 -0.0004  0.1733 -0.1515
  439BOLB   C2D10534  -0.106  28.046   5.522 -0.1381 -0.0372 -0.3663
  439BOLB   C3D10535   0.138  27.845   5.789  0.3455  0.1653 -0.0298
  439BOLB   C4D10536   0.560  27.684   5.680  0.0172 -0.3310 -0.1838
  440BOLB   NC110537   7.212  14.063  10.605  0.3910  0.0009  0.4238
  440BOLB   PO110538   7.487  13.577  10.583 -0.0090 -0.1671 -0.0336
  440BOLB   GL110539   7.672  13.204  10.737 -0.2081 -0.0022 -0.0052
  440BOLB   GL210540   7.951  13.180  10.542 -0.0811  0.2811  0.1374
  440BOLB   C1A10541   7.634  12.893  11.096 -0.1943  0.0113 -0.0979
  440BOLB   C2A10542   7.792  12.531  11.063  0.0169 -0.2222 -0.0272
  440BOLB   C3A10543   8.141  12.178  10.969 -0.2000  0.2877  0.0894
  440BOLB   C4A10544   8.311  11.724  11.032  0.4229 -0.0351 -0.0233
  440BOLB   C1B10545   8.099  12.730  10.666 -0.0186  0.3663 -0.0409
  440BOLB   C2B10546   8.091  12.341  10.542  0.1420  0.2300  0.2735
  440BOLB   C3B10547   7.673  12.235  10.663 -0.2197 -0.0966 -0.1917
  440BOLB   C4B10548   7.417  11.840  10.591 -0.1639 -0.0987  0.0327
  440BOLB   NC210549   9.613   9.774  12.036 -0.1888 -0.1675  0.0420
  440BOLB   PO210550   9.147   9.916  12.258  0.0962  0.1027 -0.1716
  440BOLB   GL310551   9.221  10.291  12.064  0.1335  0.0378 -0.0352
  440BOLB   GL410552   9.579  10.243  12.027 -0.0933  0.0097 -0.3462
  440BOLB   C1C10553   9.344  10.747  11.924 -0.1276  0.0366  0.1767
  440BOLB   C2C10554   9.343  11.181  11.645  0.1036 -0.0769  0.0245
  440BOLB   C3C10555   9.044  11.500  11.513 -0.0561 -0.0205  0.0723
  440BOLB   C4C10556   8.779  11.499  11.194  0.1034 -0.0223  0.0462
  440BOLB   C1D10557   9.784  10.553  12.011  0.1403  0.2093  0.3628
  440BOLB   C2D10558   9.873  10.943  11.849 -0.1718 -0.0933 -0.2091
  440BOLB   C3D10559   9.805  11.303  11.579  0.2202 -0.1323 -0.1187
  440BOLB   C4D10560   9.525  11.571  11.394  0.1765 -0.1301  0.4810
  441BOLB   NC110561   8.023  22.733   2.606 -0.1449 -0.1606  0.1128
  441BOLB   PO110562   7.506  22.895   2.600  0.1444 -0.0744  0.4072
  441BOLB   GL110563   7.240  23.019   2.206  0.2560 -0.0551 -0.1299
  441BOLB   GL210564   7.210  23.370   2.123 -0.2388 -0.1437 -0.4160
  441BOLB   C1A10565   7.088  22.952   1.730  0.2372  0.1694 -0.5579
  441BOLB   C2A10566   7.009  23.191   1.347  0.1376 -0.2930  0.0891
  441BOLB   C3A10567   7.131  23.197   0.954  0.4398  0.1323  0.3130
  441BOLB   C4A10568   6.960  22.986   0.470  0.0281 -0.2936 -0.3530
  441BOLB   C1B10569   7.308  23.491   1.739  0.2140  0.1358 -0.2397
  441BOLB   C2B10570   7.186  23.703   1.355  0.1879  0.2398  0.0504
  441BOLB   C3B10571   7.140  23.721   0.867 -0.2466  0.0475 -0.0306
  441BOLB   C4B10572   6.844  23.436   0.588 -0.1082  0.0446 -0.2026
  441BOLB   NC210573   6.080  23.278  -1.557 -0.0371 -0.0560  0.1290
  441BOLB   PO210574   5.633  23.406  -1.565  0.0092  0.2264  0.0680
  441BOLB   GL310575   5.722  23.547  -1.109 -0.0818  0.0317 -0.1470
  441BOLB   GL410576   5.949  23.857  -0.967  0.0271 -0.1653 -0.1885
  441BOLB   C1C10577   5.854  23.407  -0.597 -0.2378  0.0724 -0.1382
  441BOLB   C2C10578   6.062  23.169  -0.339 -0.0438 -0.3846 -0.0686
  441BOLB   C3C10579   6.234  23.016   0.044 -0.0279  0.0269 -0.2005
  441BOLB   C4C10580   6.569  23.022   0.303  0.0764  0.0075 -0.0671
  441BOLB   C1D10581   6.215  23.459  -0.974 -0.4323  0.0708  0.3622
  441BOLB   C2D10582   6.479  23.194  -0.740 -0.0083  0.1859 -0.0452
  441BOLB   C3D10583   6.458  22.935  -0.463  0.1923  0.2148  0.3338
  441BOLB   C4D10584   6.679  22.685  -0.229  0.0123  0.2128 -0.4456
  442BOLB   NC110585   8.964   9.088   7.218 -0.2089 -0.3069  0.1457
  442BOLB   PO110586   9.078   9.112   7.595  0.1558 -0.0435 -0.0607
  442BOLB   GL110587   9.154   9.479   7.822  0.0811 -0.1230  0.1819
  442BOLB   GL210588   9.100   9.571   7.538  0.2019  0.2774  0.0676
  442BOLB   C1A10589   9.151   9.792   7.978  0.1486 -0.1190  0.0049
  442BOLB   C2A10590   8.961  10.108   8.348  0.1547 -0.1448 -0.2544
  442BOLB   C3A10591   9.133  10.497   8.592 -0.1996  0.4658 -0.1408
  442BOLB   C4A10592   9.205  10.684   9.020 -0.1497 -0.4186 -0.1262
  442BOLB   C1B10593   9.040   9.990   7.340 -0.0453 -0.0334  0.1901
  442BOLB   C2B10594   8.951  10.486   7.299  0.1395  0.1254 -0.0532
  442BOLB   C3B10595   8.934  10.837   7.129 -0.2318 -0.6202  0.0169
  442BOLB   C4B10596   8.718  11.185   6.974  0.1089  0.1341 -0.0560
  442BOLB   NC210597   8.380   9.176   9.833  0.4892 -0.0694 -0.0380
  442BOLB   PO210598   8.329   9.440   9.462 -0.0492  0.2012  0.1986
  442BOLB   GL310599   8.190   9.761   9.647  0.3752 -0.1163 -0.0014
  442BOLB   GL410600   8.290   9.589  10.086  0.0366  0.1937 -0.0705
  442BOLB   C1C10601   8.444  10.056   9.827  0.2692  0.3388  0.0151
  442BOLB   C2C10602   8.734  10.352   9.819  0.2148 -0.0410 -0.1202
  442BOLB   C3C10603   8.986  10.686   9.796 -0.0747 -0.1725  0.0455
  442BOLB   C4C10604   9.277  10.742   9.420  0.1313 -0.0475 -0.1985
  442BOLB   C1D10605   8.030   9.939  10.090  0.2294  0.0400 -0.3957
  442BOLB   C2D10606   8.038  10.442   9.989  0.0471 -0.4632  0.0808
  442BOLB   C3D10607   8.161  10.693  10.252  0.0040  0.1847  0.1228
  442BOLB   C4D10608   8.175  10.996  10.505  0.0491  0.0077 -0.0386
  443BOLB   NC110609   8.126  25.373  17.424  0.0810 -0.2589  0.1302
  443BOLB   PO110610   7.762  25.301  17.605 -0.1455 -0.0687  0.2223
  443BOLB   GL110611   7.711  25.694  17.964  0.0108  0.0147 -0.0271
  443BOLB   GL210612   7.532  25.966  17.917  0.0473 -0.3454  0.0938
  443BOLB   C1A10613   7.968  26.107  18.053 -0.2405  0.3915 -0.3266
  443BOLB   C2A10614   7.906  26.320  18.386  0.2320 -0.2022 -0.0917
  443BOLB   C3A10615   7.598  26.488  18.751 -0.0951  0.1311  0.0965
  443BOLB   C4A10616   7.780  26.560  19.151 -0.1422  0.3136 -0.3265
  443BOLB   C1B10617   7.469  26.121  18.360 -0.0310  0.0033  0.0878
  443BOLB   C2B10618   7.274  26.099  18.757 -0.2797 -0.1801 -0.0940
  443BOLB   C3B10619   7.332  26.164  19.303  0.0186 -0.4091 -0.0731
  443BOLB   C4B10620   7.090  26.090  19.725 -0.2970 -0.5672  0.1089
  443BOLB   NC210621   8.207  28.759  20.108  0.1791 -0.2133 -0.2542
  443BOLB   PO210622   7.962  28.446  20.348  0.0245  0.2657  0.0402
  443BOLB   GL310623   7.701  28.245  20.014 -0.1311  0.2564  0.2630
  443BOLB   GL410624   7.605  28.342  19.629 -0.2164  0.0052  0.0157
  443BOLB   C1C10625   7.326  27.999  19.866 -0.1449  0.0181  0.0818
  443BOLB   C2C10626   7.536  27.494  19.856 -0.0705 -0.0727 -0.0788
  443BOLB   C3C10627   7.560  27.137  19.709 -0.1507 -0.0499  0.0644
  443BOLB   C4C10628   7.672  26.779  19.515  0.0649  0.0347 -0.1943
  443BOLB   C1D10629   7.359  28.278  19.234 -0.0599 -0.1305  0.2921
  443BOLB   C2D10630   7.549  27.918  18.903  0.1782 -0.0894 -0.0135
  443BOLB   C3D10631   7.619  27.463  18.735  0.4165 -0.0191 -0.1873
  443BOLB   C4D10632   7.946  27.274  18.388 -0.0326 -0.2233 -0.2748
  444BOLB   NC110633   3.950  28.093  10.963 -0.0708  0.0362 -0.1901
  444BOLB   PO110634   3.893  28.478  11.172 -0.1148  0.3439  0.1921
  444BOLB   GL110635   3.666  28.848  11.366 -0.1266 -0.1443 -0.0927
  444BOLB   GL210636   3.629  29.001  11.069  0.0493 -0.0104  0.0550
  444BOLB   C1A10637   3.515  29.053  11.722  0.1536  0.1735 -0.0035
  444BOLB   C2A10638   3.603  29.560  11.802  0.3190 -0.2539 -0.4509
  444BOLB   C3A10639   3.879  29.952  11.787  0.2393  0.3972 -0.0771
  444BOLB   C4A10640   3.895  30.239  12.185 -0.0515 -0.3530 -0.0351
  444BOLB   C1B10641   3.491  29.324  11.283 -0.0069  0.0068  0.2296
  444BOLB   C2B10642   3.336  29.670  11.371  0.1395  0.0499 -0.0357
  444BOLB   C3B10643   3.439  30.073  11.432 -0.2140  0.1415  0.3153
  444BOLB   C4B10644   3.525  30.347  11.852 -0.1900 -0.1525  0.0548
  444BOLB   NC210645   3.032  32.800  11.446 -0.3269 -0.2511  0.3853
  444BOLB   PO210646   3.144  32.882  11.876 -0.1678  0.0895 -0.2903
  444BOLB   GL310647   3.251  32.416  11.845 -0.2557  0.0550  0.2266
  444BOLB   GL410648   3.465  32.219  11.833 -0.2176 -0.1665  0.2870
  444BOLB   C1C10649   3.116  31.897  12.028  0.0279  0.0933  0.1509
  444BOLB   C2C10650   3.157  31.321  12.130 -0.0912 -0.0828  0.1747
  444BOLB   C3C10651   3.394  30.923  12.368  0.1440 -0.2605 -0.1612
  444BOLB   C4C10652   3.630  30.519  12.312  0.1007 -0.1978  0.1259
  444BOLB   C1D10653   3.526  31.751  11.683  0.2500 -0.0416 -0.0589
  444BOLB   C2D10654   3.488  31.285  11.695  0.0867  0.0476 -0.3165
  444BOLB   C3D10655   3.521  30.780  11.482  0.1674  0.2346 -0.0768
  444BOLB   C4D10656   3.775  30.597  11.258  0.2483 -0.1997  0.2645
  445BOLB   NC110657   1.825  21.690  16.934 -0.1220 -0.3014  0.1403
  445BOLB   PO110658   2.236  21.744  17.121  0.0886  0.1051 -0.0158
  445BOLB   GL110659   1.986  21.553  17.506  0.0480 -0.1324  0.1031
  445BOLB   GL210660   2.189  21.719  17.693  0.0976  0.1564  0.2192
  445BOLB   C1A10661   1.566  21.636  17.672  0.2187  0.0093 -0.5168
  445BOLB   C2A10662   1.158  21.631  17.738  0.4862  0.3051  0.1828
  445BOLB   C3A10663   0.726  21.657  17.907  0.1099 -0.2494  0.2030
  445BOLB   C4A10664   0.748  21.864  18.431 -0.2382  0.4431 -0.0819
  445BOLB   C1B10665   1.936  21.411  17.980 -0.0970  0.2558  0.0611
  445BOLB   C2B10666   1.479  21.456  18.192 -0.1170  0.1437  0.2800
  445BOLB   C3B10667   1.136  21.796  18.182 -0.0150 -0.1538  0.3611
  445BOLB   C4B10668   1.123  22.214  18.287 -0.3552  0.3458  0.2644
  445BOLB   NC210669  -0.429  22.683  20.296 -0.2176  0.2205 -0.0668
  445BOLB   PO210670  -0.552  23.147  20.212  0.0343  0.0369  0.3139
  445BOLB   GL310671  -0.474  22.843  19.860  0.2275 -0.7227  0.1929
  445BOLB   GL410672  -0.674  22.531  19.822  0.1978  0.0541  0.1279
  445BOLB   C1C10673  -0.070  22.731  19.551 -0.3365  0.1950 -0.0779
  445BOLB   C2C10674   0.039  22.381  19.288 -0.1407  0.0417 -0.0294
  445BOLB   C3C10675   0.313  22.121  19.239 -0.1417  0.0356 -0.1956
  445BOLB   C4C10676   0.701  21.878  18.914  0.0505 -0.2245 -0.0874
  445BOLB   C1D10677  -0.862  22.213  19.579  0.0498 -0.2972 -0.0203
  445BOLB   C2D10678  -0.809  22.005  19.208 -0.0100  0.0764  0.1629
  445BOLB   C3D10679  -0.544  21.798  18.858  0.0842 -0.1015  0.0588
  445BOLB   C4D10680  -0.390  21.658  18.413  0.0112  0.1639 -0.2787
  446BOLB   NC110681   5.915  20.429   1.949 -0.2083 -0.3434  0.2353
  446BOLB   PO110682   5.770  19.947   2.011 -0.1809 -0.2561  0.0165
  446BOLB   GL110683   5.850  19.947   1.678  0.0305 -0.1531  0.2045
  446BOLB   GL210684   5.999  20.176   1.503 -0.4482 -0.0358 -0.3001
  446BOLB   C1A10685   5.846  19.745   1.286 -0.1491 -0.1005  0.0665
  446BOLB   C2A10686   5.882  19.352   0.933 -0.0762  0.0247 -0.0049
  446BOLB   C3A10687   5.711  19.443   0.539 -0.1948  0.1787 -0.2006
  446BOLB   C4A10688   5.599  19.846   0.259  0.0048  0.1437 -0.0947
  446BOLB   C1B10689   6.178  20.200   1.136 -0.0832  0.1279  0.1805
  446BOLB   C2B10690   6.459  20.105   0.796 -0.2093 -0.0459 -0.1000
  446BOLB   C3B10691   6.524  19.846   0.546 -0.0710 -0.1490  0.0328
  446BOLB   C4B10692   6.360  19.403   0.543 -0.3833  0.1844  0.0819
  446BOLB   NC210693   4.367  20.793  -1.588 -0.1488 -0.0248 -0.0030
  446BOLB   PO210694   4.825  20.593  -1.876  0.0311 -0.0807  0.0339
  446BOLB   GL310695   4.846  20.693  -1.429  0.2514 -0.1274 -0.3744
  446BOLB   GL410696   4.717  20.887  -1.157 -0.1977 -0.1964 -0.2185
  446BOLB   C1C10697   4.963  20.656  -0.790 -0.1727 -0.0830 -0.2731
  446BOLB   C2C10698   5.169  20.662  -0.375  0.0069  0.3001 -0.1363
  446BOLB   C3C10699   5.489  20.654  -0.091  0.0067 -0.1776 -0.1900
  446BOLB   C4C10700   5.570  20.287   0.144  0.3008 -0.0029  0.0553
  446BOLB   C1D10701   4.687  21.130  -0.839  0.0537  0.1319 -0.4477
  446BOLB   C2D10702   4.793  21.022  -0.392 -0.1827  0.0119  0.5362
  446BOLB   C3D10703   5.104  21.027  -0.062  0.0494  0.0780 -0.1643
  446BOLB   C4D10704   5.370  21.068   0.285 -0.1610 -0.2211  0.1955
  447BOLB   NC110705   0.274  25.566   7.743 -0.1483  0.2665 -0.1517
  447BOLB   PO110706  -0.038  25.530   8.134 -0.1771  0.1066 -0.1991
  447BOLB   GL110707  -0.343  25.751   8.023  0.0117  0.1592  0.1388
  447BOLB   GL210708  -0.548  25.594   8.166 -0.0497 -0.1469  0.0243
  447BOLB   C1A10709  -0.420  26.021   7.685 -0.2769 -0.0086 -0.0486
  447BOLB   C2A10710  -0.543  26.391   7.541 -0.1287  0.2537  0.0625
  447BOLB   C3A10711  -0.766  26.786   7.733  0.0675  0.0620  0.1316
  447BOLB   C4A10712  -0.697  27.123   7.630  0.0427  0.3898 -0.1065
  447BOLB   C1B10713  -0.945  25.866   8.180  0.2280  0.3353  0.0652
  447BOLB   C2B10714  -1.349  25.994   8.113  0.2519 -0.0534 -0.2868
  447BOLB   C3B10715  -1.618  26.303   8.038 -0.1153 -0.1518  0.2262
  447BOLB   C4B10716  -1.961  26.562   8.158 -0.0961  0.0630 -0.1895
  447BOLB   NC210717  -1.517  29.252   6.707 -0.0697 -0.1498  0.0975
  447BOLB   PO210718  -1.589  28.806   6.568  0.1850 -0.0719 -0.0403
  447BOLB   GL310719  -1.322  28.543   6.919 -0.3359  0.0032 -0.0750
  447BOLB   GL410720  -1.419  28.142   6.910 -0.0860 -0.0342  0.2043
  447BOLB   C1C10721  -0.931  28.278   6.797 -0.1693 -0.0425 -0.1775
  447BOLB   C2C10722  -0.545  28.248   7.036 -0.0257 -0.1834 -0.2016
  447BOLB   C3C10723  -0.405  27.898   7.361 -0.0767 -0.0379  0.0763
  447BOLB   C4C10724  -0.662  27.549   7.499  0.1429  0.0354  0.0517
  447BOLB   C1D10725  -1.216  27.957   7.161 -0.0569 -0.4711  0.2125
  447BOLB   C2D10726  -1.226  27.599   7.279 -0.3084  0.1932  0.3642
  447BOLB   C3D10727  -1.108  27.167   7.321 -0.0260 -0.0660 -0.1259
  447BOLB   C4D10728  -0.814  26.871   7.158 -0.1175  0.0577  0.1387
  448BOLB   NC110729  12.828  16.353   0.106  0.1564 -0.0332  0.3596
  448BOLB   PO110730  12.516  16.115   0.139 -0.1560 -0.2310  0.0987
  448BOLB   GL110731  12.652  16.266   0.601  0.2419  0.4306  0.0519
  448BOLB   GL210732  12.546  16.590   0.544 -0.5974  0.0388  0.0226
  448BOLB   C1A10733  12.449  16.315   0.940  0.2612  0.0710 -0.1080
  448BOLB   C2A10734  12.278  16.646   1.299  0.0441 -0.0173  0.4550
  448BOLB   C3A10735  12.236  16.791   1.723 -0.2014  0.1440  0.1405
  448BOLB   C4A10736  12.397  17.066   1.955  0.0743 -0.0368  0.0646
  448BOLB   C1B10737  12.189  16.679   0.729  0.0136  0.2882  0.3373
  448BOLB   C2B10738  11.775  16.467   0.672  0.3500 -0.0124  0.3492
  448BOLB   C3B10739  11.343  16.459   0.519  0.3389  0.1912  0.1120
  448BOLB   C4B10740  10.996  16.578   0.388 -0.0034 -0.2589 -0.1756
  448BOLB   NC210741  12.171  18.858   3.871 -0.1725  0.1084  0.0389
  448BOLB   PO210742  11.906  18.491   3.826  0.0637 -0.1654  0.1648
  448BOLB   GL310743  11.994  18.183   3.419 -0.2273  0.0000  0.1489
  448BOLB   GL410744  11.916  18.248   3.104 -0.1055 -0.1272  0.0899
  448BOLB   C1C10745  12.182  17.836   3.210 -0.3288  0.0546 -0.0874
  448BOLB   C2C10746  12.295  17.563   2.973  0.4898 -0.3438  0.0005
  448BOLB   C3C10747  12.371  17.340   2.594 -0.1987  0.2263 -0.1655
  448BOLB   C4C10748  12.268  17.306   2.204 -0.0102  0.1535  0.2263
  448BOLB   C1D10749  12.057  18.127   2.712 -0.0825 -0.4194 -0.1602
  448BOLB   C2D10750  12.330  17.962   2.326  0.1611  0.2436 -0.1762
  448BOLB   C3D10751  12.556  17.720   2.123  0.2641  0.0296  0.0711
  448BOLB   C4D10752  12.721  17.496   1.848  0.1570  0.1535 -0.0633
  449BOLB   NC110753   4.326  28.702  11.442 -0.3073  0.2609 -0.2292
  449BOLB   PO110754   4.146  28.625  11.870 -0.1869  0.0369 -0.2311
  449BOLB   GL110755   4.151  29.024  11.878  0.0859  0.2144 -0.0531
  449BOLB   GL210756   4.259  28.997  12.222  0.0473  0.0768 -0.0023
  449BOLB   C1A10757   4.000  29.233  11.468 -0.2174  0.1793  0.3123
  449BOLB   C2A10758   3.945  29.612  11.225 -0.0171  0.2976  0.1939
  449BOLB   C3A10759   4.005  30.040  11.184  0.1627  0.2078  0.2394
  449BOLB   C4A10760   4.235  30.400  11.122  0.1053 -0.2453 -0.0690
  449BOLB   C1B10761   3.820  29.262  12.203 -0.1706  0.0532  0.1486
  449BOLB   C2B10762   3.547  29.498  12.419  0.0336  0.1653  0.0923
  449BOLB   C3B10763   3.094  29.577  12.528  0.0777  0.2667 -0.3937
  449BOLB   C4B10764   2.892  29.908  12.321  0.0868 -0.3714  0.1470
  449BOLB   NC210765   4.067  32.902  11.409  0.1427 -0.1582 -0.0208
  449BOLB   PO210766   4.333  32.940  11.185  0.0248  0.1225 -0.0791
  449BOLB   GL310767   4.200  32.458  11.186 -0.0345 -0.2911 -0.2682
  449BOLB   GL410768   4.119  32.389  11.485 -0.1915 -0.2404  0.3005
  449BOLB   C1C10769   4.159  32.007  11.021 -0.1781 -0.1717 -0.5427
  449BOLB   C2C10770   4.184  31.573  10.982 -0.4911 -0.1199 -0.1808
  449BOLB   C3C10771   4.211  31.169  11.022  0.1927 -0.2675  0.1974
  449BOLB   C4C10772   4.244  30.836  11.141  0.0884 -0.1932  0.0757
  449BOLB   C1D10773   3.993  32.483  11.932  0.0539 -0.2550 -0.2479
  449BOLB   C2D10774   3.899  32.234  12.306 -0.0092 -0.2997 -0.2419
  449BOLB   C3D10775   4.235  31.956  12.388  0.0605  0.0486 -0.1182
  449BOLB   C4D10776   4.372  31.590  12.187  0.3095 -0.2030  0.0542
  450BOLB   NC110777   5.211  28.890  11.150  0.0855  0.0592  0.3248
  450BOLB   PO110778   5.025  29.077  11.516  0.0377 -0.0149  0.1010
  450BOLB   GL110779   5.044  29.363  11.276  0.1209  0.1496 -0.0850
  450BOLB   GL210780   5.081  29.311  10.940 -0.0781  0.0208  0.1353
  450BOLB   C1A10781   4.912  29.822  11.231 -0.1346 -0.2042  0.1834
  450BOLB   C2A10782   4.804  30.251  11.123  0.1788  0.2089  0.0193
  450BOLB   C3A10783   4.746  30.520  10.884  0.0312 -0.2424 -0.1432
  450BOLB   C4A10784   4.562  30.690  10.370 -0.1908  0.0652  0.0453
  450BOLB   C1B10785   5.176  29.630  10.640  0.0088 -0.1899 -0.6449
  450BOLB   C2B10786   5.183  30.020  10.838 -0.0908 -0.1768  0.1802
  450BOLB   C3B10787   5.247  30.412  10.956  0.1189  0.0951 -0.1844
  450BOLB   C4B10788   5.069  30.745  11.266  0.1916 -0.0965  0.2906
  450BOLB   NC210789   4.135  32.997   9.765 -0.2111  0.0723  0.2133
  450BOLB   PO210790   3.752  32.878   9.856  0.3279  0.0011  0.0217
  450BOLB   GL310791   3.914  32.483  10.134 -0.3407  0.1182 -0.1350
  450BOLB   GL410792   4.229  32.545  10.283  0.2142 -0.2895 -0.0594
  450BOLB   C1C10793   4.150  32.031  10.108  0.1932  0.1089  0.0417
  450BOLB   C2C10794   3.889  31.578  10.107 -0.0514 -0.1340 -0.0523
  450BOLB   C3C10795   3.937  31.120  10.161  0.1174 -0.0431 -0.2888
  450BOLB   C4C10796   4.194  30.731  10.122  0.0669 -0.2350 -0.1801
  450BOLB   C1D10797   4.102  32.232  10.575  0.1674  0.1496 -0.0117
  450BOLB   C2D10798   4.136  31.760  10.558 -0.2683  0.1520  0.2619
  450BOLB   C3D10799   4.243  31.397  10.499 -0.2411 -0.0552  0.1869
  450BOLB   C4D10800   4.197  30.992  10.550 -0.3434  0.1720  0.0014
  451BOLB   NC110801   0.940  14.825  25.701  0.4621  0.0212  0.0546
  451BOLB   PO110802   1.287  14.900  26.015 -0.1595  0.3219  0.1061
  451BOLB   GL110803   1.199  14.957  26.532 -0.1210  0.0950 -0.1346
  451BOLB   GL210804   0.990  15.210  26.633  0.1307 -0.0234 -0.1047
  451BOLB   C1A10805   1.218  14.945  27.030  0.1612 -0.0900 -0.0574
  451BOLB   C2A10806   1.622  15.014  27.223  0.2157  0.0010  0.4786
  451BOLB   C3A10807   1.968  14.843  27.517 -0.1423 -0.0790  0.2946
  451BOLB   C4A10808   2.218  14.761  27.846 -0.0053 -0.2831  0.0660
  451BOLB   C1B10809   0.885  15.310  26.951  0.3021  0.0098  0.0655
  451BOLB   C2B10810   0.997  15.250  27.363  0.2760 -0.0735  0.1215
  451BOLB   C3B10811   0.735  14.986  27.645 -0.3266 -0.2343  0.1273
  451BOLB   C4B10812   0.730  14.724  28.040  0.2242 -0.1722 -0.0817
  451BOLB   NC210813   3.141  12.617  27.534 -0.1043  0.0636  0.3367
  451BOLB   PO210814   3.428  12.883  27.633  0.1235  0.1632 -0.2721
  451BOLB   GL310815   3.397  13.322  27.704 -0.1347 -0.1289 -0.1994
  451BOLB   GL410816   3.554  13.493  27.532 -0.0026 -0.0423 -0.1115
  451BOLB   C1C10817   3.010  13.544  27.917 -0.3501 -0.3545 -0.1920
  451BOLB   C2C10818   2.875  13.987  28.033  0.0499 -0.0811 -0.2328
  451BOLB   C3C10819   2.701  14.352  28.238 -0.2105  0.1758  0.1233
  451BOLB   C4C10820   2.410  14.616  28.142 -0.1482  0.2747 -0.1542
  451BOLB   C1D10821   3.404  13.861  27.803  0.0845 -0.1190 -0.0361
  451BOLB   C2D10822   3.334  14.083  28.107 -0.2106  0.2074  0.0063
  451BOLB   C3D10823   3.165  14.115  28.553  0.0639 -0.0877  0.2851
  451BOLB   C4D10824   2.988  14.133  29.089 -0.1762 -0.1345  0.0129
  452BOLB   NC110825   0.344  22.855   9.062 -0.0522  0.2757 -0.3352
  452BOLB   PO110826   0.016  22.822   8.688  0.1827  0.2382  0.0252
  452BOLB   GL110827  -0.449  22.715   8.676 -0.1168 -0.1259  0.3143
  452BOLB   GL210828  -0.583  23.011   8.566  0.0469  0.0303 -0.0799
  452BOLB   C1A10829  -0.901  22.450   8.811 -0.1701 -0.1698 -0.2535
  452BOLB   C2A10830  -1.273  22.208   8.770  0.2283  0.1424  0.1349
  452BOLB   C3A10831  -1.625  22.001   8.617  0.0627 -0.1251  0.1771
  452BOLB   C4A10832  -1.796  21.610   8.702  0.0262 -0.2428 -0.0667
  452BOLB   C1B10833  -1.001  22.933   8.661  0.2435  0.0457  0.2975
  452BOLB   C2B10834  -1.259  22.514   8.351 -0.0201  0.2436 -0.3450
  452BOLB   C3B10835  -1.428  22.147   8.150 -0.1419  0.1672  0.1540
  452BOLB   C4B10836  -1.522  21.679   8.022  0.1316 -0.2352 -0.1211
  452BOLB   NC210837   0.129  22.109   9.853 -0.0653 -0.0844  0.4615
  452BOLB   PO210838   0.173  21.689   9.677 -0.1940  0.0401  0.0342
  452BOLB   GL310839  -0.110  21.585   9.337  0.1049 -0.1257  0.0631
  452BOLB   GL410840  -0.368  21.647   9.386  0.1347  0.1090 -0.1131
  452BOLB   C1C10841  -0.285  21.183   9.156 -0.2613 -0.0828  0.0493
  452BOLB   C2C10842  -0.732  20.993   9.185 -0.0172  0.0092 -0.2043
  452BOLB   C3C10843  -1.131  21.062   8.841 -0.3728  0.4533  0.0289
  452BOLB   C4C10844  -1.531  21.216   8.779 -0.2546 -0.0366  0.2083
  452BOLB   C1D10845  -0.710  21.437   9.291 -0.1101  0.0423 -0.0648
  452BOLB   C2D10846  -1.082  21.470   9.084  0.2610 -0.0288 -0.0627
  452BOLB   C3D10847  -1.432  21.724   8.998  0.2914 -0.1106  0.2761
  452BOLB   C4D10848  -1.767  22.051   9.159  0.0343 -0.0663 -0.2163
  453BOLB   NC110849  10.959  20.702  17.575 -0.1502 -0.3244 -0.0502
  453BOLB   PO110850  11.076  20.594  17.058  0.1721  0.1558  0.0546
  453BOLB   GL110851  11.412  20.397  17.332  0.2665  0.0968 -0.2670
  453BOLB   GL210852  11.401  20.473  17.736 -0.1268 -0.2395  0.1810
  453BOLB   C1A10853  11.867  20.254  17.518  0.0901 -0.1939  0.0749
  453BOLB   C2A10854  12.147  20.213  17.867 -0.2643 -0.0828  0.2097
  453BOLB   C3A10855  12.511  20.422  18.171 -0.2651 -0.0723 -0.2005
  453BOLB   C4A10856  12.658  20.575  18.472 -0.2623  0.1538 -0.0486
  453BOLB   C1B10857  11.627  20.335  17.991  0.0046 -0.0799 -0.1630
  453BOLB   C2B10858  11.966  20.359  18.301 -0.0466 -0.2099 -0.1160
  453BOLB   C3B10859  12.182  20.760  18.404  0.3168  0.2040  0.0578
  453BOLB   C4B10860  12.091  21.280  18.551  0.0754  0.1759  0.2075
  453BOLB   NC210861  13.356  20.770  20.750  0.0807  0.0908 -0.1142
  453BOLB   PO210862  13.747  20.988  20.564 -0.1635  0.2715 -0.2128
  453BOLB   GL310863  13.688  20.891  20.134 -0.0177  0.1982 -0.5598
  453BOLB   GL410864  13.806  20.545  19.935  0.3625 -0.1051 -0.0883
  453BOLB   C1C10865  13.342  20.698  19.998 -0.1355  0.0993  0.2180
  453BOLB   C2C10866  13.268  20.596  19.594 -0.0704  0.1628 -0.2413
  453BOLB   C3C10867  13.032  20.385  19.309  0.0433 -0.0125  0.2308
  453BOLB   C4C10868  12.783  20.415  18.900 -0.5456  0.0553  0.0096
  453BOLB   C1D10869  13.796  20.552  19.471 -0.0236 -0.0625  0.1066
  453BOLB   C2D10870  13.709  20.808  19.175  0.0166  0.2060  0.2242
  453BOLB   C3D10871  13.628  21.094  18.751 -0.0864 -0.2062 -0.1377
  453BOLB   C4D10872  13.603  21.282  18.265  0.1465 -0.0972 -0.4205
  454BOLB   NC110873   6.753  27.110  16.553 -0.4033  0.0834  0.1744
  454BOLB   PO110874   6.867  27.260  16.211  0.0171 -0.1747  0.3118
  454BOLB   GL110875   6.739  27.570  16.616  0.0612 -0.0228  0.1683
  454BOLB   GL210876   6.829  27.498  16.939  0.0244 -0.1482 -0.3095
  454BOLB   C1A10877   6.652  27.990  16.522 -0.0833  0.1737 -0.0177
  454BOLB   C2A10878   6.575  28.277  16.751  0.0485  0.1022 -0.0406
  454BOLB   C3A10879   6.647  28.519  17.131  0.3163 -0.2199 -0.1403
  454BOLB   C4A10880   6.484  28.940  17.204 -0.1559  0.2622  0.4158
  454BOLB   C1B10881   6.636  27.491  17.392 -0.3109 -0.2258  0.3282
  454BOLB   C2B10882   6.404  27.243  17.671  0.1566  0.0692 -0.0506
  454BOLB   C3B10883   6.420  27.310  18.100 -0.0822 -0.0392 -0.2014
  454BOLB   C4B10884   6.690  27.736  18.248 -0.3568  0.2552  0.0826
  454BOLB   NC210885   5.787  31.324  17.675  0.0197  0.0175  0.0702
  454BOLB   PO210886   5.976  30.991  17.493 -0.1775 -0.2492  0.0622
  454BOLB   GL310887   6.440  30.758  17.548 -0.1192  0.1005 -0.1935
  454BOLB   GL410888   6.429  30.566  17.772  0.0880 -0.2906  0.0462
  454BOLB   C1C10889   6.668  30.325  17.414 -0.0101 -0.0472  0.1386
  454BOLB   C2C10890   6.877  30.000  17.343 -0.2365 -0.0726  0.0459
  454BOLB   C3C10891   6.861  29.579  17.328 -0.2243 -0.1024  0.1286
  454BOLB   C4C10892   6.562  29.328  17.182 -0.1408 -0.1481  0.2117
  454BOLB   C1D10893   6.336  30.086  17.718  0.0433 -0.3872 -0.0822
  454BOLB   C2D10894   6.466  29.743  17.672  0.0341 -0.1058  0.3472
  454BOLB   C3D10895   6.384  29.352  17.647 -0.1392  0.0056 -0.0481
  454BOLB   C4D10896   6.702  29.194  17.641  0.0595  0.1089 -0.0176
  455BOLB   NC110897   8.958  27.812  14.142 -0.1653 -0.1033 -0.4175
  455BOLB   PO110898   8.494  27.940  14.227  0.1957  0.2085  0.4391
  455BOLB   GL110899   8.756  28.208  14.394  0.2171 -0.0434  0.0052
  455BOLB   GL210900   9.060  28.265  14.271 -0.1639 -0.1787 -0.0006
  455BOLB   C1A10901   8.644  28.572  14.608  0.2385  0.1187  0.1201
  455BOLB   C2A10902   8.498  28.990  14.868  0.3138  0.0079  0.1811
  455BOLB   C3A10903   8.246  29.426  15.040 -0.1070  0.1764 -0.1362
  455BOLB   C4A10904   7.990  29.769  15.213  0.0903  0.2605  0.0610
  455BOLB   C1B10905   9.266  28.586  14.295 -0.2312 -0.1068  0.0453
  455BOLB   C2B10906   9.550  28.837  14.430 -0.0201 -0.2801  0.0140
  455BOLB   C3B10907   9.704  29.286  14.469  0.1312  0.0382 -0.0784
  455BOLB   C4B10908   9.882  29.618  14.377 -0.2456  0.2080 -0.1959
  455BOLB   NC210909   7.364  32.195  16.335  0.0618  0.0218  0.0405
  455BOLB   PO210910   7.306  31.809  16.693  0.2446  0.0836  0.1182
  455BOLB   GL310911   7.257  31.388  16.634  0.1751 -0.0676  0.1095
  455BOLB   GL410912   7.540  31.358  16.729  0.0806  0.0658  0.2703
  455BOLB   C1C10913   7.182  30.961  16.541 -0.0520  0.0394  0.0318
  455BOLB   C2C10914   7.458  30.580  16.256  0.0039  0.0861 -0.2472
  455BOLB   C3C10915   7.481  30.309  15.858  0.3147  0.0416 -0.1800
  455BOLB   C4C10916   7.640  30.046  15.572 -0.0715  0.1557 -0.0863
  455BOLB   C1D10917   7.550  31.159  16.283 -0.2827  0.3404  0.1639
  455BOLB   C2D10918   7.416  31.076  15.885  0.1060 -0.2688 -0.2694
  455BOLB   C3D10919   7.278  30.869  15.508  0.1754 -0.1601 -0.2125
  455BOLB   C4D10920   7.004  30.580  15.440  0.0287 -0.2674 -0.3666
  456BOLB   NC110921   6.461  12.691   8.908  0.0480  0.0075 -0.0946
  456BOLB   PO110922   6.547  12.810   8.511 -0.0460 -0.3617  0.3514
  456BOLB   GL110923   6.742  12.346   8.551  0.1998 -0.1174  0.1887
  456BOLB   GL210924   7.069  12.245   8.438  0.1202 -0.1682  0.3219
  456BOLB   C1A10925   6.718  11.919   8.365  0.0952 -0.0330  0.1709
  456BOLB   C2A10926   6.550  11.515   8.243 -0.1310 -0.0379  0.0297
  456BOLB   C3A10927   6.548  11.099   8.072  0.1166 -0.1133 -0.1149
  456BOLB   C4A10928   6.875  10.856   7.833 -0.2493  0.2033  0.3598
  456BOLB   C1B10929   7.516  12.070   8.520 -0.2497 -0.1953  0.0398
  456BOLB   C2B10930   7.810  11.731   8.706  0.0780  0.1089 -0.0517
  456BOLB   C3B10931   7.929  11.390   8.945  0.3109 -0.1797 -0.1177
  456BOLB   C4B10932   7.961  11.185   9.259  0.3601  0.2023  0.0431
  456BOLB   NC210933   5.907   8.690   6.839  0.0872  0.3722  0.2393
  456BOLB   PO210934   6.310   8.859   6.934 -0.1660 -0.0905  0.1174
  456BOLB   GL310935   6.489   9.309   6.932  0.0704  0.0520  0.2613
  456BOLB   GL410936   6.306   9.514   7.199  0.1201 -0.1525 -0.2865
  456BOLB   C1C10937   6.846   9.517   7.083  0.2547  0.1014 -0.0843
  456BOLB   C2C10938   7.000  10.035   7.159 -0.1788 -0.2420 -0.0122
  456BOLB   C3C10939   7.175  10.290   7.384  0.2380  0.3740 -0.0572
  456BOLB   C4C10940   7.054  10.504   7.657 -0.0041  0.1648 -0.0136
  456BOLB   C1D10941   6.547   9.929   7.146  0.0565 -0.0616  0.1822
  456BOLB   C2D10942   6.692  10.461   7.250  0.0635  0.2725 -0.1238
  456BOLB   C3D10943   6.688  10.872   7.368 -0.0474 -0.4611  0.3051
  456BOLB   C4D10944   6.578  11.285   7.608  0.1162 -0.0156 -0.0920
  457BOLB   NC110945   5.109  22.958   3.286 -0.1722 -0.3056  0.2942
  457BOLB   PO110946   4.677  23.052   3.116 -0.0258 -0.1548 -0.0812
  457BOLB   GL110947   4.615  23.172   2.668  0.2721  0.0554  0.2462
  457BOLB   GL210948   4.340  23.404   2.489  0.0115  0.1907 -0.2434
  457BOLB   C1A10949   4.552  23.150   2.131 -0.2848 -0.2135 -0.1670
  457BOLB   C2A10950   4.397  22.968   1.776  0.3569  0.1834 -0.1629
  457BOLB   C3A10951   4.263  22.933   1.268  0.0838 -0.0467 -0.0746
  457BOLB   C4A10952   4.173  22.720   0.961  0.3800  0.3855 -0.1823
  457BOLB   C1B10953   4.255  23.601   2.140 -0.1189  0.1374  0.2245
  457BOLB   C2B10954   4.422  23.750   1.729 -0.0531 -0.1031 -0.4903
  457BOLB   C3B10955   4.374  24.151   1.520 -0.0175  0.2081  0.1145
  457BOLB   C4B10956   4.362  24.269   1.113  0.0890 -0.0476 -0.2932
  457BOLB   NC210957   4.402  22.590  -1.945  0.0014  0.3068  0.0674
  457BOLB   PO210958   4.482  22.854  -1.572 -0.2280 -0.2036 -0.2716
  457BOLB   GL310959   4.467  22.765  -1.144  0.0570  0.0316  0.0242
  457BOLB   GL410960   4.817  22.652  -1.119  0.0119 -0.0235 -0.0345
  457BOLB   C1C10961   4.459  22.882  -0.752 -0.0118 -0.2096 -0.1520
  457BOLB   C2C10962   4.529  22.825  -0.293 -0.2145  0.0713  0.0085
  457BOLB   C3C10963   4.496  22.821   0.164  0.2720 -0.0252 -0.2979
  457BOLB   C4C10964   4.144  22.832   0.474 -0.1846  0.0418 -0.2683
  457BOLB   C1D10965   4.604  22.232  -1.209 -0.2542 -0.3108  0.2371
  457BOLB   C2D10966   4.256  21.964  -1.277 -0.2643 -0.0001  0.1657
  457BOLB   C3D10967   3.871  21.636  -1.111  0.0740  0.1835  0.0095
  457BOLB   C4D10968   3.450  21.564  -0.943  0.1291  0.2435 -0.2059
  458BOLB   NC110969  10.740  24.967   4.913  0.0253 -0.0365  0.3632
  458BOLB   PO110970  11.107  24.887   4.665 -0.0193  0.1207  0.1393
  458BOLB   GL110971  11.365  25.089   4.409  0.1694 -0.1472  0.1075
  458BOLB   GL210972  11.698  25.170   4.288 -0.1721 -0.3455 -0.0709
  458BOLB   C1A10973  11.359  25.231   3.881 -0.1523 -0.0745  0.1633
  458BOLB   C2A10974  11.725  25.296   3.729  0.6509  0.0105  0.2220
  458BOLB   C3A10975  11.950  25.556   3.477  0.1042 -0.0642 -0.0471
  458BOLB   C4A10976  12.101  25.935   3.273  0.0737 -0.2232 -0.2038
  458BOLB   C1B10977  11.693  25.596   4.138 -0.1679  0.0731  0.1364
  458BOLB   C2B10978  12.079  25.876   3.867  0.1211  0.0798 -0.1781
  458BOLB   C3B10979  12.405  25.736   3.586 -0.0402  0.2110 -0.3047
  458BOLB   C4B10980  12.459  25.311   3.469  0.0507  0.0621  0.0970
  458BOLB   NC210981  12.478  28.097   2.087  0.1388 -0.1716  0.0705
  458BOLB   PO210982  12.823  27.881   2.245 -0.0477 -0.2062  0.1462
  458BOLB   GL310983  12.630  27.776   2.568 -0.1672 -0.0597  0.1867
  458BOLB   GL410984  12.616  27.423   2.635 -0.1710 -0.0591 -0.1315
  458BOLB   C1C10985  12.483  27.666   3.060 -0.1104  0.2501  0.0225
  458BOLB   C2C10986  12.281  27.238   3.371 -0.1930 -0.0918  0.3188
  458BOLB   C3C10987  12.204  26.779   3.281 -0.1648 -0.0843  0.1774
  458BOLB   C4C10988  12.101  26.425   3.409  0.3477 -0.0029 -0.0863
  458BOLB   C1D10989  12.739  27.197   3.039 -0.1119  0.0718  0.0837
  458BOLB   C2D10990  12.655  26.894   3.270 -0.5720 -0.1171 -0.0201
  458BOLB   C3D10991  12.543  26.659   3.622 -0.0940  0.2267  0.1199
  458BOLB   C4D10992  12.469  26.201   3.716  0.1007 -0.0005 -0.0168
  459BOLB   NC110993  14.387  22.685   5.632  0.1229 -0.0293 -0.0156
  459BOLB   PO110994  14.140  22.994   5.630  0.2389 -0.1269  0.2663
  459BOLB   GL110995  14.362  22.934   5.186 -0.1782 -0.1215 -0.2048
  459BOLB   GL210996  14.251  23.101   5.009  0.1423 -0.3091 -0.0439
  459BOLB   C1A10997  14.676  23.228   5.204 -0.1790  0.3328 -0.1542
  459BOLB   C2A10998  15.036  23.503   5.343  0.1309 -0.2617  0.1825
  459BOLB   C3A10999  15.420  23.605   5.297  0.0655 -0.1101 -0.2239
  459BOLB   C4A11000  15.700  23.288   5.126 -0.0902  0.0587 -0.0234
  459BOLB   C1B11001  14.295  23.356   4.603  0.3141  0.0223 -0.0800
  459BOLB   C2B11002  14.365  23.699   4.317 -0.1309  0.0353  0.2765
  459BOLB   C3B11003  14.479  23.724   3.968  0.0644  0.1393 -0.2668
  459BOLB   C4B11004  14.346  23.698   3.613 -0.0260  0.2073  0.0310
  459BOLB   NC211005  17.310  23.163   3.175 -0.2858  0.4106 -0.0711
  459BOLB   PO211006  17.117  23.563   3.307  0.0224 -0.0624  0.0218
  459BOLB   GL311007  16.962  23.331   3.661 -0.0563 -0.2546  0.0522
  459BOLB   GL411008  16.880  23.037   3.852 -0.0950 -0.0029  0.0096
  459BOLB   C1C11009  16.468  23.280   3.814  0.0633  0.0919  0.1160
  459BOLB   C2C11010  15.988  23.322   4.009 -0.2537 -0.0142 -0.0454
  459BOLB   C3C11011  15.794  23.195   4.409 -0.0543 -0.0512  0.0101
  459BOLB   C4C11012  15.625  23.199   4.752 -0.1184 -0.1037  0.1602
  459BOLB   C1D11013  16.588  22.894   4.179 -0.0414  0.0567  0.0340
  459BOLB   C2D11014  16.163  22.937   4.213 -0.0091 -0.0819 -0.4025
  459BOLB   C3D11015  15.847  22.879   3.895  0.0895 -0.0367  0.3772
  459BOLB   C4D11016  15.380  22.812   3.622  0.4214  0.1853 -0.0084
  460BOLB   NC111017   9.756  21.169   2.644 -0.0058  0.3431 -0.2054
  460BOLB   PO111018   9.547  21.552   2.401 -0.0154  0.2078  0.1094
  460BOLB   GL111019   9.529  21.828   2.086  0.0493  0.1692  0.2028
  460BOLB   GL211020   9.357  21.608   1.886 -0.1041  0.1439  0.1966
  460BOLB   C1A11021   9.594  22.052   1.741  0.3697 -0.0862 -0.2649
  460BOLB   C2A11022   9.700  22.055   1.314  0.0874 -0.1715  0.0812
  460BOLB   C3A11023   9.547  22.220   0.915  0.2178  0.1868 -0.3063
  460BOLB   C4A11024   9.610  22.048   0.554 -0.3838  0.0479 -0.0421
  460BOLB   C1B11025   9.410  21.591   1.473 -0.1242 -0.3119 -0.1459
  460BOLB   C2B11026   9.283  21.729   1.048  0.1752 -0.1165  0.0385
  460BOLB   C3B11027   9.232  21.788   0.617  0.0201 -0.1035 -0.2887
  460BOLB   C4B11028   9.152  21.914   0.145 -0.0849 -0.0470  0.1363
  460BOLB   NC211029  10.406  22.418  -1.427  0.0249  0.1371 -0.1785
  460BOLB   PO211030  10.088  22.268  -1.737  0.1962 -0.0902  0.0316
  460BOLB   GL311031  10.103  22.034  -1.335 -0.1757 -0.1710  0.2463
  460BOLB   GL411032  10.343  22.061  -1.013  0.3356 -0.0134 -0.1722
  460BOLB   C1C11033   9.732  21.903  -1.081 -0.0863 -0.0102 -0.1852
  460BOLB   C2C11034   9.487  21.901  -0.734 -0.0493  0.2248  0.1562
  460BOLB   C3C11035   9.490  21.979  -0.297  0.0182 -0.1195 -0.2057
  460BOLB   C4C11036   9.625  21.962   0.108  0.1004  0.3124  0.0628
  460BOLB   C1D11037  10.052  22.094  -0.742  0.0384  0.1084  0.1101
  460BOLB   C2D11038   9.867  22.387  -0.367  0.0224 -0.0830  0.4134
  460BOLB   C3D11039   9.650  22.459  -0.021 -0.1244 -0.0500  0.2224
  460BOLB   C4D11040   9.379  22.415   0.374 -0.2097  0.1027  0.3473
  461BOLB   NC111041  29.225  19.634   7.881 -0.0769  0.0964 -0.3612
  461BOLB   PO111042  29.193  19.246   8.093  0.1405 -0.1945  0.1013
  461BOLB   GL111043  29.664  19.224   7.950  0.1137  0.1251 -0.0973
  461BOLB   GL211044  29.687  19.507   7.880  0.0969 -0.2787  0.0383
  461BOLB   C1A11045  29.913  18.960   8.081  0.1190  0.2571  0.0304
  461BOLB   C2A11046  30.292  18.972   8.354 -0.1655 -0.0811  0.2475
  461BOLB   C3A11047  30.621  19.207   8.230 -0.0356 -0.1338  0.0080
  461BOLB   C4A11048  30.905  19.519   7.907  0.3376 -0.3809 -0.0472
  461BOLB   C1B11049  29.945  19.622   7.569  0.1513 -0.1437 -0.2041
  461BOLB   C2B11050  30.433  19.524   7.486  0.1599 -0.3577 -0.0136
  461BOLB   C3B11051  30.546  19.146   7.162 -0.0652 -0.0810  0.1039
  461BOLB   C4B11052  30.707  18.752   6.942 -0.2996 -0.0397 -0.1090
  461BOLB   NC211053  29.454  21.421   7.436 -0.0475 -0.0614 -0.0785
  461BOLB   PO211054  29.622  21.249   7.747  0.1888 -0.1563 -0.0576
  461BOLB   GL311055  29.761  21.110   8.073 -0.0636 -0.0839  0.1136
  461BOLB   GL411056  29.981  21.289   8.202 -0.2971 -0.0650  0.0328
  461BOLB   C1C11057  30.031  20.815   8.353  0.1128  0.0666  0.1974
  461BOLB   C2C11058  30.381  20.614   8.446 -0.0100  0.1117 -0.0784
  461BOLB   C3C11059  30.443  20.172   8.357 -0.1095 -0.2884 -0.1308
  461BOLB   C4C11060  30.760  19.949   8.022  0.0915 -0.1470 -0.0508
  461BOLB   C1D11061  30.370  21.343   8.306  0.3019 -0.1386  0.1212
  461BOLB   C2D11062  30.791  21.439   8.179 -0.1171 -0.1164  0.1093
  461BOLB   C3D11063  30.993  21.072   7.977 -0.1162  0.0144  0.0740
  461BOLB   C4D11064  31.111  20.730   7.783  0.0194  0.0011 -0.2039
  462BOLB   NC111065  13.831  21.064   4.693  0.1491 -0.0736  0.0534
  462BOLB   PO111066  14.150  21.113   4.956 -0.2486 -0.1179 -0.1619
  462BOLB   GL111067  14.594  21.267   4.776 -0.1332 -0.0705  0.0944
  462BOLB   GL211068  14.918  21.347   4.954 -0.2363 -0.0631 -0.4000
  462BOLB   C1A11069  14.803  21.264   4.409  0.3796 -0.3703  0.1447
  462BOLB   C2A11070  15.037  20.936   4.185  0.0318  0.0582  0.0473
  462BOLB   C3A11071  14.813  21.055   3.854  0.2733 -0.1528  0.1604
  462BOLB   C4A11072  14.799  21.198   3.387  0.0785 -0.1631 -0.3796
  462BOLB   C1B11073  15.200  21.093   4.704 -0.3159 -0.2655  0.0594
  462BOLB   C2B11074  15.499  20.981   4.394  0.0966 -0.0820 -0.2997
  462BOLB   C3B11075  15.725  21.268   4.173 -0.0173  0.0156 -0.1120
  462BOLB   C4B11076  15.897  21.224   3.783 -0.0610 -0.2514  0.2268
  462BOLB   NC211077  16.780  22.000   1.606 -0.0433  0.1731  0.2346
  462BOLB   PO211078  16.462  21.713   1.942 -0.2533  0.1902 -0.1373
  462BOLB   GL311079  16.137  21.483   2.144  0.1891 -0.2879  0.1316
  462BOLB   GL411080  16.092  21.098   2.244 -0.1448 -0.1084  0.1274
  462BOLB   C1C11081  15.719  21.427   2.039 -0.1207  0.4322  0.0740
  462BOLB   C2C11082  15.350  21.337   2.157  0.1027 -0.1168 -0.3336
  462BOLB   C3C11083  15.251  21.079   2.530 -0.0982 -0.2966 -0.1368
  462BOLB   C4C11084  15.112  21.109   3.000 -0.1753 -0.0618 -0.0504
  462BOLB   C1D11085  15.759  21.313   2.512  0.0503 -0.1087 -0.1080
  462BOLB   C2D11086  15.405  21.644   2.547 -0.1021  0.0462 -0.3227
  462BOLB   C3D11087  15.224  22.020   2.839 -0.0537 -0.1291  0.0503
  462BOLB   C4D11088  15.044  22.120   3.115 -0.1314  0.1638  0.1357
  463BOLB   NC111089  37.917   8.760   3.414  0.4362 -0.0283  0.0218
  463BOLB   PO111090  37.715   8.663   3.820  0.2728  0.2131  0.0060
  463BOLB   GL111091  37.942   9.093   3.908 -0.1124 -0.1186 -0.1504
  463BOLB   GL211092  38.177   8.981   3.745 -0.3338  0.1878  0.1139
  463BOLB   C1A11093  38.140   9.312   4.294 -0.1258 -0.2187  0.0684
  463BOLB   C2A11094  38.032   9.541   4.677  0.1817 -0.1653  0.0493
  463BOLB   C3A11095  38.114  10.007   4.850  0.1480 -0.0938 -0.0445
  463BOLB   C4A11096  37.955  10.415   5.037 -0.1857 -0.1044 -0.1349
  463BOLB   C1B11097  38.530   9.353   3.858  0.1160 -0.1829 -0.1709
  463BOLB   C2B11098  38.886   9.607   3.859 -0.3496 -0.1764  0.0284
  463BOLB   C3B11099  39.161   9.781   3.628  0.1230 -0.1236  0.1219
  463BOLB   C4B11100  39.404  10.084   3.252 -0.2287  0.3081  0.0789
  463BOLB   NC211101  35.954   9.624   4.185  0.2762  0.1654  0.1583
  463BOLB   PO211102  35.849   9.775   4.592 -0.3192 -0.3341 -0.2121
  463BOLB   GL311103  36.027  10.159   4.756 -0.2535  0.1157  0.1558
  463BOLB   GL411104  36.271  10.222   4.500  0.1520 -0.1270  0.1719
  463BOLB   C1C11105  36.215  10.150   5.024 -0.0815 -0.3645  0.1546
  463BOLB   C2C11106  36.689  10.206   5.072  0.1830 -0.1575 -0.0006
  463BOLB   C3C11107  37.057  10.559   5.155  0.0593  0.1553  0.0586
  463BOLB   C4C11108  37.562  10.606   5.030 -0.2701 -0.0865 -0.0149
  463BOLB   C1D11109  36.515  10.518   4.695 -0.1008  0.1135 -0.0259
  463BOLB   C2D11110  36.802  10.833   4.595  0.0435  0.2025 -0.1173
  463BOLB   C3D11111  36.798  10.999   4.282 -0.1025 -0.2560  0.3468
  463BOLB   C4D11112  36.892  11.386   4.128 -0.1111 -0.0389 -0.2335
  464BOLB   NC111113  15.008  22.175   7.191 -0.2275 -0.0158  0.3885
  464BOLB   PO111114  14.971  22.659   7.308 -0.2899 -0.0713  0.0604
  464BOLB   GL111115  15.346  22.718   7.225 -0.0128 -0.1518 -0.1434
  464BOLB   GL211116  15.507  22.432   7.237  0.1870 -0.2009 -0.1597
  464BOLB   C1A11117  15.673  22.993   7.037 -0.1434  0.0826 -0.0539
  464BOLB   C2A11118  15.859  23.425   6.900  0.1048 -0.1635  0.4414
  464BOLB   C3A11119  16.228  23.609   6.817 -0.3994  0.0935 -0.1019
  464BOLB   C4A11120  16.583  23.658   6.583 -0.2530  0.2576 -0.0421
  464BOLB   C1B11121  15.904  22.518   7.218  0.0203 -0.0418 -0.0407
  464BOLB   C2B11122  16.097  22.803   6.978  0.1977 -0.1797 -0.0221
  464BOLB   C3B11123  16.316  23.122   6.692 -0.0908  0.0527  0.0500
  464BOLB   C4B11124  16.644  23.241   7.055  0.0267  0.0898  0.0118
  464BOLB   NC211125  17.762  23.970   5.058 -0.0147 -0.1479  0.0017
  464BOLB   PO211126  17.591  24.314   4.947 -0.1439 -0.2696  0.0235
  464BOLB   GL311127  17.140  24.418   5.118 -0.1506  0.0752  0.2518
  464BOLB   GL411128  17.240  24.766   4.981 -0.0554  0.0219 -0.2133
  464BOLB   C1C11129  16.853  24.317   5.314 -0.2520  0.0971  0.3276
  464BOLB   C2C11130  16.778  24.005   5.597  0.2694 -0.3014 -0.2520
  464BOLB   C3C11131  16.660  23.651   5.668 -0.1835 -0.1855  0.1332
  464BOLB   C4C11132  16.535  23.564   6.071  0.0875  0.3749  0.2350
  464BOLB   C1D11133  16.888  24.821   5.404 -0.1602 -0.0872  0.3419
  464BOLB   C2D11134  16.464  24.837   5.487 -0.1789  0.0724 -0.0935
  464BOLB   C3D11135  16.010  24.687   5.475 -0.0008 -0.4344 -0.0667
  464BOLB   C4D11136  15.635  24.924   5.486  0.1911  0.3120 -0.2366
  465BOLB   NC111137  13.664  22.051   5.471  0.2949 -0.0946 -0.1790
  465BOLB   PO111138  13.703  22.039   4.988 -0.3925 -0.0368  0.1227
  465BOLB   GL111139  14.056  22.182   4.756  0.1795 -0.1110 -0.1536
  465BOLB   GL211140  14.154  22.583   4.841 -0.0849  0.0735 -0.1420
  465BOLB   C1A11141  14.431  22.281   4.536  0.0786 -0.0370  0.0863
  465BOLB   C2A11142  14.780  22.510   4.363 -0.0120  0.0798 -0.3183
  465BOLB   C3A11143  15.166  22.384   4.265 -0.3018  0.1590 -0.1830
  465BOLB   C4A11144  15.401  22.418   3.889  0.2914  0.0611  0.0717
  465BOLB   C1B11145  14.553  22.821   4.762  0.1347  0.1552  0.1639
  465BOLB   C2B11146  14.889  23.032   4.615 -0.0680  0.1144 -0.2818
  465BOLB   C3B11147  15.262  22.992   4.476 -0.2540  0.2265 -0.1401
  465BOLB   C4B11148  15.508  22.708   4.270  0.1623 -0.1094 -0.0049
  465BOLB   NC211149  17.217  21.878   2.336 -0.1999 -0.0765 -0.0102
  465BOLB   PO211150  16.808  22.124   2.218  0.5402 -0.3904  0.2134
  465BOLB   GL311151  16.749  22.205   2.543 -0.1477 -0.4176 -0.1073
  465BOLB   GL411152  16.844  22.483   2.664 -0.0082  0.1840  0.2758
  465BOLB   C1C11153  16.424  22.133   2.827 -0.2146 -0.0576 -0.1168
  465BOLB   C2C11154  16.254  21.959   3.129 -0.1124  0.0591  0.0313
  465BOLB   C3C11155  16.000  22.143   3.423  0.3036  0.2089 -0.0639
  465BOLB   C4C11156  15.763  22.407   3.774  0.3688  0.2697 -0.0506
  465BOLB   C1D11157  16.429  22.681   2.793 -0.3465 -0.1653  0.0395
  465BOLB   C2D11158  15.996  22.832   2.939 -0.2162  0.0679 -0.1870
  465BOLB   C3D11159  15.616  22.731   3.066 -0.0933  0.0019  0.2639
  465BOLB   C4D11160  15.425  22.391   3.320 -0.1323  0.0171  0.0000
  466BOLB   NC111161   9.292  18.854  17.999 -0.0644  0.0059  0.1530
  466BOLB   PO111162   9.447  19.306  17.991  0.0863 -0.0539 -0.0592
  466BOLB   GL111163   9.690  19.093  18.304 -0.2489 -0.0006  0.0040
  466BOLB   GL211164   9.847  19.434  18.612  0.1567  0.1475 -0.2401
  466BOLB   C1A11165   9.933  18.883  18.613  0.0768 -0.1313 -0.0822
  466BOLB   C2A11166  10.119  18.618  18.831  0.0297 -0.3220  0.0756
  466BOLB   C3A11167  10.032  18.187  18.675  0.1847 -0.2210  0.1775
  466BOLB   C4A11168   9.745  17.836  18.853 -0.2413  0.1060  0.1601
  466BOLB   C1B11169  10.263  19.243  18.760  0.1733  0.1371 -0.0107
  466BOLB   C2B11170  10.552  19.059  18.906  0.0348 -0.0776 -0.1473
  466BOLB   C3B11171  10.463  18.676  19.216 -0.1066  0.1000  0.1505
  466BOLB   C4B11172  10.251  18.387  19.508 -0.0610  0.0800  0.1109
  466BOLB   NC211173  11.711  16.795  20.021  0.2160 -0.0247  0.4743
  466BOLB   PO211174  11.384  17.075  20.368 -0.1898  0.1120 -0.3092
  466BOLB   GL311175  10.923  17.095  20.226 -0.1180  0.1375 -0.0205
  466BOLB   GL411176  10.787  16.842  20.173  0.0631 -0.1028 -0.1687
  466BOLB   C1C11177  10.727  17.378  19.971 -0.0099 -0.0205  0.2773
  466BOLB   C2C11178  10.420  17.365  19.631 -0.0357 -0.0073  0.1982
  466BOLB   C3C11179  10.163  17.290  19.259 -0.0115  0.1746 -0.0692
  466BOLB   C4C11180   9.925  17.391  18.957  0.1933 -0.2648 -0.1775
  466BOLB   C1D11181  10.672  16.934  19.745  0.0192 -0.0794  0.0430
  466BOLB   C2D11182  10.423  16.862  19.446 -0.3101  0.1236  0.0208
  466BOLB   C3D11183  10.414  16.847  18.990  0.1630  0.1165 -0.0705
  466BOLB   C4D11184  10.338  17.165  18.717 -0.1781  0.0830  0.1863
  467BOLB   NC111185  37.321  23.986  12.680  0.0760 -0.0154 -0.3247
  467BOLB   PO111186  37.276  23.932  13.108  0.0344  0.0998  0.2006
  467BOLB   GL111187  36.906  24.039  13.386 -0.0588 -0.0073  0.2799
  467BOLB   GL211188  36.715  23.770  13.551 -0.3656  0.0356 -0.0067
  467BOLB   C1A11189  36.509  24.198  13.401  0.1686 -0.0061 -0.0491
  467BOLB   C2A11190  36.132  24.388  13.543 -0.2057  0.3293 -0.2694
  467BOLB   C3A11191  35.969  24.776  13.752  0.0472 -0.2404  0.0785
  467BOLB   C4A11192  35.800  25.160  13.559  0.2951  0.0704 -0.0758
  467BOLB   C1B11193  36.289  23.971  13.808  0.0634 -0.0506 -0.0584
  467BOLB   C2B11194  35.925  24.199  13.974 -0.3036 -0.2646  0.2348
  467BOLB   C3B11195  35.555  24.538  14.104  0.3180  0.1441  0.1152
  467BOLB   C4B11196  35.102  24.748  13.991 -0.1330  0.1252 -0.0378
  467BOLB   NC211197  33.783  26.526  14.668 -0.1537  0.0044  0.0267
  467BOLB   PO211198  33.791  26.160  14.403  0.0272 -0.0689  0.2830
  467BOLB   GL311199  34.180  26.084  14.163  0.1120 -0.0469 -0.0879
  467BOLB   GL411200  34.059  26.182  13.888 -0.0770 -0.0852  0.1500
  467BOLB   C1C11201  34.362  25.689  14.025 -0.1356 -0.0549  0.0989
  467BOLB   C2C11202  34.821  25.649  13.949  0.4899  0.1325 -0.1902
  467BOLB   C3C11203  35.211  25.782  13.874  0.1844 -0.0525  0.0164
  467BOLB   C4C11204  35.534  25.493  13.679 -0.0435  0.0901  0.4039
  467BOLB   C1D11205  34.420  26.021  13.610 -0.0406  0.3304 -0.0392
  467BOLB   C2D11206  34.632  25.675  13.361  0.1003  0.2960 -0.4570
  467BOLB   C3D11207  34.851  25.309  13.435  0.1135 -0.1173  0.1918
  467BOLB   C4D11208  35.175  25.126  13.707  0.2378 -0.0661  0.1675
  468BOLB   NC111209  35.642   8.245   9.247  0.1278 -0.0459  0.1968
  468BOLB   PO111210  35.683   8.603   9.001  0.0860 -0.1336  0.0634
  468BOLB   GL111211  35.803   8.972   8.813  0.1440 -0.0201  0.2929
  468BOLB   GL211212  35.543   9.023   8.607 -0.0196  0.3155 -0.1569
  468BOLB   C1A11213  35.842   9.377   8.536  0.2173  0.1814  0.0622
  468BOLB   C2A11214  36.140   9.537   8.280 -0.2003  0.1225  0.0420
  468BOLB   C3A11215  36.420   9.800   8.347  0.0922  0.0267  0.0773
  468BOLB   C4A11216  36.534  10.127   8.453 -0.0515  0.3083  0.0233
  468BOLB   C1B11217  36.003   8.922   8.338  0.2815 -0.1286 -0.2184
  468BOLB   C2B11218  35.920   9.200   7.971 -0.1532 -0.1440  0.2145
  468BOLB   C3B11219  36.003   9.557   7.767  0.1586 -0.2121  0.1269
  468BOLB   C4B11220  36.052   9.989   7.448 -0.1604 -0.1453  0.2047
  468BOLB   NC211221  34.332   9.923   8.743 -0.0743 -0.2960 -0.1635
  468BOLB   PO211222  34.414   9.811   9.077  0.3206  0.1010  0.1936
  468BOLB   GL311223  34.819  10.133   8.931  0.0847  0.1785 -0.0703
  468BOLB   GL411224  35.107   9.845   8.906 -0.2175  0.2412 -0.2906
  468BOLB   C1C11225  34.961  10.539   8.896 -0.4526  0.1967 -0.2699
  468BOLB   C2C11226  35.355  10.767   8.835 -0.2657 -0.0633  0.1415
  468BOLB   C3C11227  35.851  10.610   8.685 -0.1218 -0.1904  0.0889
  468BOLB   C4C11228  36.312  10.405   8.540 -0.1015 -0.4556  0.2232
  468BOLB   C1D11229  35.323  10.187   8.859 -0.3047  0.3341  0.4312
  468BOLB   C2D11230  35.694  10.117   9.062  0.3202 -0.2117  0.5962
  468BOLB   C3D11231  35.942  10.397   9.268  0.3135 -0.1578 -0.0876
  468BOLB   C4D11232  36.309  10.643   9.026  0.2324 -0.0482 -0.2864
  469BOLB   NC111233   6.755  20.357  18.690  0.0504  0.2688 -0.3836
  469BOLB   PO111234   6.904  20.056  18.553  0.0250 -0.0201 -0.0747
  469BOLB   GL111235   6.872  19.875  18.930 -0.1537 -0.1063 -0.3174
  469BOLB   GL211236   6.849  20.139  19.141 -0.0439 -0.1193  0.1678
  469BOLB   C1A11237   6.907  19.464  19.197 -0.0396 -0.0493 -0.0391
  469BOLB   C2A11238   7.068  19.245  19.503 -0.3324  0.2864  0.1017
  469BOLB   C3A11239   7.237  19.254  19.893 -0.1146  0.1067 -0.0029
  469BOLB   C4A11240   7.459  19.176  20.250 -0.0596  0.3179  0.4965
  469BOLB   C1B11241   6.672  19.916  19.615 -0.0399  0.0236 -0.0865
  469BOLB   C2B11242   6.889  19.680  19.864  0.1950  0.0663  0.2100
  469BOLB   C3B11243   7.179  19.739  20.205  0.2245 -0.1552 -0.2737
  469BOLB   C4B11244   7.098  19.777  20.606  0.0192 -0.2619 -0.1142
  469BOLB   NC211245   7.578  18.524  23.099 -0.0571 -0.2934 -0.2423
  469BOLB   PO211246   7.858  18.543  22.762  0.0530 -0.4089  0.0622
  469BOLB   GL311247   7.910  18.684  22.264 -0.0681  0.0295 -0.5006
  469BOLB   GL411248   7.790  18.315  22.167  0.3092  0.4512  0.0439
  469BOLB   C1C11249   7.795  18.657  21.824  0.0100  0.2443 -0.1760
  469BOLB   C2C11250   7.670  18.866  21.473  0.2155  0.1314 -0.2212
  469BOLB   C3C11251   7.515  18.972  21.078  0.0743 -0.2222 -0.0697
  469BOLB   C4C11252   7.375  19.224  20.719  0.2911  0.2975 -0.1238
  469BOLB   C1D11253   7.572  18.217  21.764  0.1173 -0.0197 -0.0449
  469BOLB   C2D11254   7.659  18.383  21.353  0.3734 -0.3954 -0.1050
  469BOLB   C3D11255   7.786  18.576  20.976  0.0300  0.2129  0.1850
  469BOLB   C4D11256   7.701  18.846  20.606 -0.1931 -0.0688 -0.2027
  470BOLB   NC111257   6.061  25.809   4.371  0.4561 -0.0208  0.0942
  470BOLB   PO111258   6.411  25.994   4.664 -0.1076 -0.0542 -0.0281
  470BOLB   GL111259   6.436  26.025   4.175 -0.1481  0.0477  0.0486
  470BOLB   GL211260   6.661  26.207   3.990 -0.0500  0.1308 -0.6019
  470BOLB   C1A11261   6.577  25.768   3.743  0.4188 -0.4622 -0.0777
  470BOLB   C2A11262   6.472  25.840   3.286  0.0980 -0.1208 -0.2077
  470BOLB   C3A11263   6.353  26.274   3.063 -0.0565  0.0455 -0.0662
  470BOLB   C4A11264   6.228  26.622   2.770  0.1948  0.0453  0.0358
  470BOLB   C1B11265   6.538  26.320   3.585  0.1986  0.0688  0.0806
  470BOLB   C2B11266   6.493  26.712   3.246  0.2935  0.1824 -0.4914
  470BOLB   C3B11267   6.655  26.842   2.966  0.2298 -0.3014 -0.0225
  470BOLB   C4B11268   6.746  27.230   2.781 -0.1035 -0.2719 -0.0444
  470BOLB   NC211269   7.130  28.438   0.479  0.1368 -0.0300  0.1581
  470BOLB   PO211270   7.072  28.290   0.885  0.2967  0.2679  0.2821
  470BOLB   GL311271   7.105  28.013   1.339 -0.1212  0.1052 -0.3759
  470BOLB   GL411272   7.431  27.987   1.483 -0.0146 -0.0902 -0.0042
  470BOLB   C1C11273   7.009  27.942   1.816 -0.2680  0.0222 -0.3462
  470BOLB   C2C11274   6.831  27.649   2.145  0.1398 -0.0367  0.0056
  470BOLB   C3C11275   6.606  27.222   2.316 -0.0994 -0.2862 -0.6017
  470BOLB   C4C11276   6.366  26.939   2.558  0.0729 -0.0625  0.1808
  470BOLB   C1D11277   7.516  27.936   1.922 -0.1460 -0.1942  0.0368
  470BOLB   C2D11278   7.307  27.741   2.268  0.0612  0.1957 -0.1612
  470BOLB   C3D11279   7.562  27.553   2.573  0.2071  0.1382  0.0558
  470BOLB   C4D11280   7.606  27.140   2.485  0.1224  0.1637 -0.2714
  471BOLB   NC111281   3.644  20.072   2.552 -0.1206  0.1153  0.1869
  471BOLB   PO111282   3.452  19.735   2.472  0.2284 -0.2288 -0.2434
  471BOLB   GL111283   3.180  19.664   2.239 -0.2279 -0.1450 -0.3557
  471BOLB   GL211284   3.287  19.920   2.037 -0.1081 -0.0120  0.1229
  471BOLB   C1A11285   3.088  19.525   1.854  0.1895 -0.0488  0.1001
  471BOLB   C2A11286   2.858  19.502   1.494  0.2777  0.1319  0.0573
  471BOLB   C3A11287   2.673  19.286   1.034 -0.1655  0.0958  0.1079
  471BOLB   C4A11288   2.615  18.922   0.819 -0.3531 -0.1778 -0.3948
  471BOLB   C1B11289   3.002  20.083   1.698  0.1299 -0.1823 -0.0602
  471BOLB   C2B11290   2.609  20.108   1.470 -0.3488  0.0220 -0.2770
  471BOLB   C3B11291   2.193  20.000   1.480 -0.0108  0.1765  0.3023
  471BOLB   C4B11292   1.857  19.696   1.403  0.1642  0.1804  0.0952
  471BOLB   NC211293   2.559  17.346  -0.991 -0.3197 -0.2467  0.1662
  471BOLB   PO211294   2.269  17.321  -0.737 -0.0274  0.1129  0.0440
  471BOLB   GL311295   2.263  17.334  -0.315 -0.2088 -0.0149  0.2126
  471BOLB   GL411296   2.343  16.948  -0.225 -0.1503 -0.0580  0.4008
  471BOLB   C1C11297   2.303  17.566   0.007 -0.0307 -0.1241 -0.3082
  471BOLB   C2C11298   2.387  17.816   0.510 -0.1555  0.1380 -0.1480
  471BOLB   C3C11299   2.504  18.039   0.915  0.3341 -0.1506 -0.1773
  471BOLB   C4C11300   2.581  18.488   1.015  0.0483  0.3157  0.0918
  471BOLB   C1D11301   2.543  17.054   0.170  0.1347  0.0870 -0.1126
  471BOLB   C2D11302   2.389  17.193   0.629  0.1327 -0.1184  0.4030
  471BOLB   C3D11303   2.404  17.175   1.077  0.2010  0.2555  0.3741
  471BOLB   C4D11304   2.561  17.349   1.531  0.3905 -0.0253  0.2987
  472BOLB   NC111305   7.367  28.252   6.466  0.1443 -0.1654 -0.0048
  472BOLB   PO111306   7.498  28.282   7.007 -0.0165  0.0226  0.0754
  472BOLB   GL111307   7.579  28.643   6.761 -0.2436  0.2374 -0.1397
  472BOLB   GL211308   7.435  28.943   6.884 -0.2679  0.1448 -0.0582
  472BOLB   C1A11309   7.453  28.886   6.349 -0.1041  0.2397 -0.0303
  472BOLB   C2A11310   7.537  29.255   6.264  0.2143 -0.1260  0.0617
  472BOLB   C3A11311   7.513  29.595   5.887  0.1125  0.1739  0.2350
  472BOLB   C4A11312   7.595  29.940   5.610 -0.1370  0.0236  0.1626
  472BOLB   C1B11313   7.721  29.216   6.745  0.0248  0.2564 -0.1855
  472BOLB   C2B11314   7.820  29.599   6.705  0.1437  0.2095  0.4131
  472BOLB   C3B11315   7.819  30.071   6.707 -0.0723 -0.1327 -0.2415
  472BOLB   C4B11316   7.316  30.198   6.826  0.0476  0.0215 -0.0432
  472BOLB   NC211317   8.592  32.461   5.439  0.0137  0.0161 -0.1977
  472BOLB   PO211318   8.101  32.349   5.407  0.0760 -0.1933 -0.0335
  472BOLB   GL311319   8.076  31.955   5.565 -0.2130 -0.0513  0.2268
  472BOLB   GL411320   7.750  31.975   5.826 -0.3624 -0.2178 -0.2230
  472BOLB   C1C11321   7.850  31.505   5.720  0.2467  0.0147 -0.1266
  472BOLB   C2C11322   7.593  31.161   5.705  0.1976  0.2078  0.0809
  472BOLB   C3C11323   7.696  30.767   5.472  0.2516 -0.1913  0.0263
  472BOLB   C4C11324   7.748  30.338   5.411  0.2495 -0.2789 -0.2476
  472BOLB   C1D11325   7.368  31.709   5.952  0.0966 -0.0857 -0.4475
  472BOLB   C2D11326   7.330  31.328   6.141 -0.2240 -0.0056 -0.0570
  472BOLB   C3D11327   7.344  30.943   6.422  0.0982 -0.0804 -0.1187
  472BOLB   C4D11328   7.103  30.611   6.550 -0.6110  0.1990  0.1385
  473BOLB   NC111329  11.335  17.649   3.799  0.3243  0.1031 -0.0758
  473BOLB   PO111330  11.085  17.667   3.401  0.3204  0.0898  0.1494
  473BOLB   GL111331  11.225  17.696   2.942  0.0296 -0.0123  0.0619
  473BOLB   GL211332  10.955  17.840   2.700  0.1568 -0.2252 -0.0197
  473BOLB   C1A11333  11.150  17.419   2.581  0.1155  0.1344 -0.1154
  473BOLB   C2A11334  11.172  17.344   2.121 -0.2486  0.1826  0.2265
  473BOLB   C3A11335  11.388  17.352   1.705  0.2074  0.0756 -0.2457
  473BOLB   C4A11336  11.219  17.476   1.340  0.4338 -0.3339  0.2295
  473BOLB   C1B11337  10.998  17.801   2.240  0.0580 -0.0256 -0.0485
  473BOLB   C2B11338  10.760  17.551   1.907  0.1101 -0.0397 -0.0182
  473BOLB   C3B11339  10.985  17.081   1.618  0.2545 -0.1738  0.6371
  473BOLB   C4B11340  11.354  16.934   1.319  0.2927  0.0607 -0.0415
  473BOLB   NC211341  11.791  17.438  -0.566 -0.2493  0.0000 -0.0358
  473BOLB   PO211342  11.744  17.749  -0.846  0.0061  0.1647  0.3801
  473BOLB   GL311343  11.648  18.101  -0.564  0.0724 -0.2206 -0.1674
  473BOLB   GL411344  11.786  18.437  -0.581  0.1414 -0.1009  0.1861
  473BOLB   C1C11345  11.560  17.955  -0.142 -0.1771  0.2210 -0.0698
  473BOLB   C2C11346  11.473  17.933   0.327 -0.1732 -0.2169 -0.0179
  473BOLB   C3C11347  11.349  18.033   0.727 -0.0692 -0.2858  0.3035
  473BOLB   C4C11348  11.221  17.860   1.040  0.2615  0.0696  0.0279
  473BOLB   C1D11349  11.856  18.680  -0.264  0.3555  0.0470 -0.0997
  473BOLB   C2D11350  11.837  19.112  -0.046  0.2686  0.1590  0.1859
  473BOLB   C3D11351  11.524  19.282  -0.049  0.1081 -0.1749  0.0792
  473BOLB   C4D11352  11.143  19.263   0.241  0.1392 -0.2143  0.0223
  474BOLB   NC111353  13.147  17.169  26.408  0.0794 -0.2619  0.4430
  474BOLB   PO111354  12.748  17.283  26.637 -0.2355 -0.0802  0.0791
  474BOLB   GL111355  13.087  17.582  26.716  0.0136  0.0027  0.4270
  474BOLB   GL211356  12.944  17.886  26.643 -0.3652  0.3799  0.0523
  474BOLB   C1A11357  13.090  17.837  27.150  0.1745  0.5538  0.1420
  474BOLB   C2A11358  12.987  18.045  27.550  0.2868  0.0180  0.1940
  474BOLB   C3A11359  13.058  18.286  27.926 -0.2443  0.0666 -0.0662
  474BOLB   C4A11360  13.236  18.522  28.277 -0.1505 -0.4485 -0.0956
  474BOLB   C1B11361  12.653  17.868  26.921  0.0201  0.0054 -0.0762
  474BOLB   C2B11362  12.523  17.777  27.345 -0.3643 -0.2056  0.0258
  474BOLB   C3B11363  12.073  17.604  27.499 -0.0039 -0.1124  0.0545
  474BOLB   C4B11364  11.749  17.824  27.534  0.2752 -0.3198  0.2422
  474BOLB   NC211365  11.418  18.523  30.195 -0.2457 -0.0467 -0.1706
  474BOLB   PO211366  11.745  18.955  30.095  0.3290  0.2849 -0.3717
  474BOLB   GL311367  11.927  18.732  29.780 -0.2428 -0.0791  0.2670
  474BOLB   GL411368  12.205  18.655  29.850 -0.0120  0.0030  0.0035
  474BOLB   C1C11369  12.212  18.563  29.343 -0.2584 -0.3981  0.0395
  474BOLB   C2C11370  12.338  18.472  28.991  0.0532  0.2143  0.3028
  474BOLB   C3C11371  12.716  18.275  28.832 -0.0024  0.2740 -0.2529
  474BOLB   C4C11372  13.097  18.409  28.677 -0.0204  0.0178  0.0291
  474BOLB   C1D11373  12.582  18.780  29.603 -0.1247 -0.1005  0.2082
  474BOLB   C2D11374  12.749  18.563  29.256  0.2763  0.0413 -0.0976
  474BOLB   C3D11375  13.044  18.154  29.130 -0.3581  0.0373 -0.2692
  474BOLB   C4D11376  13.215  17.759  29.247  0.2239  0.0268 -0.0860
  475BOLB   NC111377   6.418  28.876  10.659 -0.1163 -0.0369  0.0251
  475BOLB   PO111378   6.780  29.057  10.779 -0.1271  0.3054 -0.0547
  475BOLB   GL111379   6.647  29.467  10.642 -0.1195 -0.1297  0.2516
  475BOLB   GL211380   6.871  29.765  10.759 -0.2118 -0.2814  0.2148
  475BOLB   C1A11381   6.349  29.826  10.841 -0.2093  0.0270  0.0271
  475BOLB   C2A11382   6.162  30.257  11.002 -0.0964  0.0002 -0.0092
  475BOLB   C3A11383   6.204  30.640  11.124  0.2117  0.2926 -0.2520
  475BOLB   C4A11384   6.488  30.959  11.146 -0.0440  0.1928 -0.1919
  475BOLB   C1B11385   7.064  30.177  10.892 -0.0670 -0.0228 -0.0791
  475BOLB   C2B11386   7.251  30.566  10.768  0.1500  0.2492  0.1694
  475BOLB   C3B11387   7.339  30.749  10.448  0.0750 -0.0205  0.0463
  475BOLB   C4B11388   7.623  31.056  10.393 -0.2492  0.0881 -0.4078
  475BOLB   NC211389   6.982  33.679  10.497 -0.0255 -0.0140  0.0802
  475BOLB   PO211390   7.248  33.475  10.807  0.1753  0.2901 -0.0946
  475BOLB   GL311391   7.208  33.014  10.941  0.1175  0.0617 -0.0967
  475BOLB   GL411392   7.105  32.770  11.243  0.0680 -0.0163  0.1849
  475BOLB   C1C11393   7.209  32.519  10.797  0.0455 -0.0923 -0.1871
  475BOLB   C2C11394   7.099  32.090  10.748  0.0142  0.0546  0.1404
  475BOLB   C3C11395   6.929  31.615  10.751  0.1312  0.2726 -0.1879
  475BOLB   C4C11396   6.621  31.298  10.857 -0.1390 -0.1317 -0.1274
  475BOLB   C1D11397   7.316  32.355  11.326  0.0317 -0.3571 -0.1562
  475BOLB   C2D11398   7.294  31.919  11.284  0.0993  0.0666 -0.1403
  475BOLB   C3D11399   7.368  31.426  11.421  0.1602 -0.1665 -0.0898
  475BOLB   C4D11400   7.436  31.356  11.754 -0.0663  0.0595  0.1996
  476BOLB   NC111401   5.551  20.801   2.401  0.0720 -0.1159  0.1779
  476BOLB   PO111402   5.484  20.446   2.132  0.3591 -0.1394 -0.1280
  476BOLB   GL111403   5.484  20.471   1.701  0.1432 -0.3767 -0.1119
  476BOLB   GL211404   5.713  20.660   1.545 -0.3351 -0.0482  0.1376
  476BOLB   C1A11405   5.298  20.586   1.332 -0.2583  0.3994  0.2364
  476BOLB   C2A11406   5.094  20.541   1.002  0.0357 -0.0693  0.0386
  476BOLB   C3A11407   5.030  20.749   0.576  0.3253 -0.0207  0.0546
  476BOLB   C4A11408   5.157  20.589   0.230 -0.2600 -0.4524 -0.4577
  476BOLB   C1B11409   5.712  20.312   1.106  0.0708  0.0442 -0.0213
  476BOLB   C2B11410   5.558  20.081   0.797 -0.5759  0.0256  0.0097
  476BOLB   C3B11411   5.422  19.674   1.008 -0.3755  0.1272  0.0949
  476BOLB   C4B11412   5.541  19.370   1.271  0.3034 -0.1975 -0.0047
  476BOLB   NC211413   5.066  19.819  -1.770  0.0859  0.1939  0.2205
  476BOLB   PO211414   5.458  19.508  -1.744  0.1467  0.0349  0.0574
  476BOLB   GL311415   5.690  19.380  -1.372 -0.2302 -0.1556 -0.0021
  476BOLB   GL411416   6.062  19.357  -1.342 -0.1314  0.2173 -0.2108
  476BOLB   C1C11417   5.653  19.626  -0.997 -0.1040  0.0159 -0.2808
  476BOLB   C2C11418   5.548  19.763  -0.571  0.1881  0.2275 -0.3269
  476BOLB   C3C11419   5.308  19.912  -0.144 -0.0372  0.1344  0.1348
  476BOLB   C4C11420   5.050  20.180  -0.077  0.1933 -0.0145 -0.3620
  476BOLB   C1D11421   6.108  19.357  -0.891 -0.0212 -0.1415 -0.1228
  476BOLB   C2D11422   6.133  19.512  -0.546 -0.0502 -0.0175  0.0651
  476BOLB   C3D11423   6.404  19.691  -0.373 -0.1157  0.1352 -0.0436
  476BOLB   C4D11424   6.466  19.961  -0.036  0.1683  0.2856  0.3548
  477BOLB   NC111425  10.801  19.880  24.827 -0.1373 -0.1434 -0.2078
  477BOLB   PO111426  10.707  19.692  25.143  0.0744 -0.1791 -0.0550
  477BOLB   GL111427  11.060  19.674  25.476  0.1386  0.0290  0.0462
  477BOLB   GL211428  11.413  19.730  25.466  0.0213  0.1219 -0.4247
  477BOLB   C1A11429  11.147  19.538  25.842 -0.0437 -0.1489 -0.0027
  477BOLB   C2A11430  11.112  19.633  26.274 -0.2638 -0.0054 -0.2582
  477BOLB   C3A11431  10.941  19.737  26.684  0.0322  0.3114  0.0713
  477BOLB   C4A11432  10.718  20.087  26.598 -0.0517 -0.0049 -0.2826
  477BOLB   C1B11433  11.896  19.793  25.576  0.3566 -0.1303 -0.1272
  477BOLB   C2B11434  12.112  19.993  25.890  0.1690  0.1829  0.0851
  477BOLB   C3B11435  12.240  19.972  26.244 -0.0149  0.0162  0.1732
  477BOLB   C4B11436  12.080  19.972  26.586 -0.3057  0.0811 -0.1612
  477BOLB   NC211437  11.489  21.280  24.442 -0.6301  0.1309  0.0223
  477BOLB   PO211438  11.395  21.185  24.919  0.1781  0.0047 -0.0327
  477BOLB   GL311439  11.389  21.302  25.355 -0.2115  0.5050  0.0211
  477BOLB   GL411440  11.250  21.556  25.627 -0.1160  0.3943  0.2064
  477BOLB   C1C11441  11.193  21.045  25.756  0.1513  0.1130 -0.2062
  477BOLB   C2C11442  10.894  20.932  26.001 -0.2407 -0.0852 -0.1035
  477BOLB   C3C11443  10.709  20.903  26.368  0.2115 -0.2186  0.0839
  477BOLB   C4C11444  10.683  20.463  26.604 -0.0634 -0.1737 -0.3500
  477BOLB   C1D11445  11.051  21.490  26.003 -0.1144 -0.0111 -0.3238
  477BOLB   C2D11446  10.729  21.567  26.382  0.0925  0.0493  0.0713
  477BOLB   C3D11447  10.442  21.347  26.600 -0.3327 -0.1521 -0.1173
  477BOLB   C4D11448  10.414  20.872  26.798 -0.0660 -0.0332  0.0284
  478BOLB   NC111449  13.228  16.437  10.030 -0.3557  0.3987  0.1277
  478BOLB   PO111450  13.037  16.068  10.043 -0.1323 -0.0193  0.0746
  478BOLB   GL111451  13.280  15.776  10.061  0.0869 -0.0496  0.5696
  478BOLB   GL211452  13.238  15.542   9.903 -0.3149  0.0229  0.3525
  478BOLB   C1A11453  13.453  15.571  10.358  0.0694 -0.2137  0.0958
  478BOLB   C2A11454  13.803  15.431  10.606  0.1136 -0.0303  0.1974
  478BOLB   C3A11455  14.125  15.180  10.865 -0.1237 -0.0967  0.1788
  478BOLB   C4A11456  14.512  14.992  11.013  0.3251 -0.0581  0.1381
  478BOLB   C1B11457  13.273  15.142  10.073  0.0159 -0.2012 -0.2281
  478BOLB   C2B11458  13.527  14.850  10.245  0.0962  0.2140  0.3248
  478BOLB   C3B11459  14.071  14.672  10.347 -0.0722  0.1294  0.0070
  478BOLB   C4B11460  14.184  14.247  10.331 -0.2378  0.1676  0.3605
  478BOLB   NC211461  16.056  13.520  10.915  0.3048 -0.0529  0.0406
  478BOLB   PO211462  15.574  13.296  11.074  0.0481  0.0236  0.1898
  478BOLB   GL311463  15.494  13.662  11.133 -0.0533 -0.0404 -0.0752
  478BOLB   GL411464  15.186  13.564  11.131  0.0720 -0.2645  0.2016
  478BOLB   C1C11465  15.386  14.003  11.283  0.0468  0.0162  0.0742
  478BOLB   C2C11466  15.157  14.260  11.572  0.2329  0.3029  0.2939
  478BOLB   C3C11467  14.798  14.486  11.574 -0.1168 -0.0701  0.1193
  478BOLB   C4C11468  14.658  14.886  11.347 -0.2169  0.0856 -0.2019
  478BOLB   C1D11469  14.903  13.649  10.815  0.2217  0.0130 -0.2665
  478BOLB   C2D11470  14.829  13.733  10.421 -0.0814  0.1460 -0.1525
  478BOLB   C3D11471  14.423  13.830  10.213 -0.0049  0.1096  0.1399
  478BOLB   C4D11472  14.049  13.602  10.241 -0.2409 -0.1615 -0.2127
  479BOLB   NC111473  11.422  23.499  16.856 -0.0941  0.0045  0.1200
  479BOLB   PO111474  11.299  23.140  17.096  0.0175 -0.2199 -0.0813
  479BOLB   GL111475  11.596  23.261  17.290  0.4822 -0.0573 -0.0585
  479BOLB   GL211476  11.328  23.424  17.508 -0.1317 -0.3902  0.0738
  479BOLB   C1A11477  11.899  23.543  17.472 -0.0405  0.0566  0.1434
  479BOLB   C2A11478  12.264  23.788  17.580 -0.2092  0.1840 -0.1283
  479BOLB   C3A11479  12.624  24.131  17.606  0.0885  0.5511  0.1264
  479BOLB   C4A11480  12.926  24.389  17.809 -0.0681  0.1050  0.0393
  479BOLB   C1B11481  11.284  23.392  17.926 -0.2108 -0.1348  0.1749
  479BOLB   C2B11482  11.611  23.473  18.142 -0.0205  0.2179 -0.0550
  479BOLB   C3B11483  11.900  23.305  18.387 -0.2370 -0.0941  0.2531
  479BOLB   C4B11484  12.088  23.176  18.715  0.0467 -0.2711 -0.0456
  479BOLB   NC211485  14.572  25.786  18.908 -0.0130 -0.0030 -0.1402
  479BOLB   PO211486  14.823  25.402  19.067  0.1142  0.4009  0.0037
  479BOLB   GL311487  14.666  25.445  18.561  0.0548 -0.1030  0.0215
  479BOLB   GL411488  14.453  25.659  18.408  0.4204 -0.0065  0.1198
  479BOLB   C1C11489  14.302  25.156  18.398 -0.0656 -0.1905 -0.3917
  479BOLB   C2C11490  13.924  25.093  18.592  0.1907 -0.3616  0.2494
  479BOLB   C3C11491  13.583  24.732  18.442  0.1654  0.3940  0.0337
  479BOLB   C4C11492  13.317  24.500  18.160 -0.1282 -0.0061  0.2845
  479BOLB   C1D11493  14.247  25.897  18.173  0.1011 -0.0105 -0.0311
  479BOLB   C2D11494  14.084  25.813  17.779  0.0388  0.2154  0.1302
  479BOLB   C3D11495  13.766  25.811  17.460 -0.2358  0.0737 -0.1036
  479BOLB   C4D11496  13.392  25.757  17.111 -0.3511  0.0002 -0.4479
  480BOLB   NC111497   7.422  23.167   3.009  0.0394  0.4499 -0.0814
  480BOLB   PO111498   7.651  23.598   2.871 -0.2012  0.0441 -0.0007
  480BOLB   GL111499   7.934  23.902   2.704 -0.2320 -0.4393  0.0312
  480BOLB   GL211500   7.820  24.262   2.742  0.0956  0.3976 -0.1934
  480BOLB   C1A11501   7.937  24.052   2.320 -0.0774  0.0740  0.1136
  480BOLB   C2A11502   7.809  24.366   1.968 -0.2331 -0.0574  0.1045
  480BOLB   C3A11503   7.906  24.746   1.708  0.1304 -0.0526 -0.0673
  480BOLB   C4A11504   8.242  24.940   1.739 -0.0952  0.1658 -0.1303
  480BOLB   C1B11505   7.925  24.600   2.512  0.0469  0.0322 -0.0920
  480BOLB   C2B11506   7.982  24.878   2.224  0.0033  0.1871  0.0393
  480BOLB   C3B11507   7.866  25.220   1.886  0.0172 -0.1497 -0.0213
  480BOLB   C4B11508   8.048  25.573   1.907 -0.2267 -0.1089 -0.1784
  480BOLB   NC211509   9.310  26.524  -0.145 -0.0029 -0.0485 -0.0684
  480BOLB   PO211510   8.942  26.594  -0.048 -0.0219 -0.0768 -0.1126
  480BOLB   GL311511   8.634  26.433   0.268  0.2398 -0.2159  0.1421
  480BOLB   GL411512   8.744  26.523   0.478 -0.0025 -0.1301  0.0251
  480BOLB   C1C11513   8.292  26.158   0.406  0.0706 -0.1277 -0.0700
  480BOLB   C2C11514   8.166  25.901   0.843 -0.1346 -0.1809 -0.0940
  480BOLB   C3C11515   8.278  25.613   1.107  0.0417  0.2113 -0.0807
  480BOLB   C4C11516   8.296  25.328   1.538  0.1905 -0.0007 -0.2331
  480BOLB   C1D11517   9.077  26.410   0.742 -0.0708  0.0093 -0.0132
  480BOLB   C2D11518   9.396  26.204   1.038  0.1579 -0.0380  0.1183
  480BOLB   C3D11519   9.681  26.142   1.304  0.0431 -0.0846 -0.2102
  480BOLB   C4D11520   9.946  26.139   1.796 -0.1418 -0.1265  0.4824
  481BOLB   NC111521  11.797  27.183   9.113  0.2874  0.2312  0.1208
  481BOLB   PO111522  12.267  27.023   8.952 -0.1421  0.1523  0.0667
  481BOLB   GL111523  12.691  27.119   8.972 -0.1057  0.1862 -0.0073
  481BOLB   GL211524  12.948  26.997   8.793  0.0812 -0.0891  0.2918
  481BOLB   C1A11525  13.010  27.430   9.137 -0.0691 -0.1636 -0.0448
  481BOLB   C2A11526  13.334  27.606   9.001  0.1256 -0.1670  0.1791
  481BOLB   C3A11527  13.492  28.139   9.138  0.2434 -0.0423  0.2798
  481BOLB   C4A11528  13.617  28.505   9.285  0.1409  0.0778 -0.2467
  481BOLB   C1B11529  13.339  27.260   8.632 -0.0521 -0.0124 -0.0525
  481BOLB   C2B11530  13.421  27.612   8.408 -0.2768  0.1519 -0.0792
  481BOLB   C3B11531  13.828  27.765   8.252  0.0633  0.1145 -0.0287
  481BOLB   C4B11532  14.257  27.788   8.437  0.1700 -0.0432 -0.3208
  481BOLB   NC211533  15.627  29.625   8.934 -0.1548  0.4345 -0.2701
  481BOLB   PO211534  15.588  29.415   9.333  0.0760  0.2724 -0.0512
  481BOLB   GL311535  15.372  29.068   9.406  0.0306  0.3966  0.1231
  481BOLB   GL411536  15.330  28.705   9.286  0.1091 -0.1637 -0.1002
  481BOLB   C1C11537  15.043  28.785   9.740  0.0698  0.1073  0.1581
  481BOLB   C2C11538  14.589  28.873   9.691  0.1001  0.1463  0.0363
  481BOLB   C3C11539  14.213  28.660   9.835  0.2301  0.0080  0.3026
  481BOLB   C4C11540  13.833  28.671   9.609  0.1564  0.3007 -0.0962
  481BOLB   C1D11541  14.997  28.430   9.363 -0.0163 -0.1498 -0.0802
  481BOLB   C2D11542  14.866  28.239   9.733 -0.2899  0.3108 -0.0123
  481BOLB   C3D11543  14.685  27.856   9.745  0.0050 -0.0369 -0.3887
  481BOLB   C4D11544  14.794  27.532   9.541 -0.3652  0.2291 -0.0982
  482BOLB   NC111545   5.442  18.181  18.028 -0.2688 -0.1260  0.1186
  482BOLB   PO111546   5.070  17.811  18.006 -0.0272 -0.0408 -0.1063
  482BOLB   GL111547   5.198  17.842  18.338  0.1946 -0.2428 -0.3725
  482BOLB   GL211548   5.092  18.154  18.345  0.2239  0.0837 -0.0680
  482BOLB   C1A11549   5.029  17.599  18.718 -0.4346  0.3163  0.1854
  482BOLB   C2A11550   5.016  17.501  19.237  0.0082 -0.0061  0.0475
  482BOLB   C3A11551   5.194  17.638  19.589  0.0105 -0.1731  0.0625
  482BOLB   C4A11552   4.995  17.940  19.781 -0.2144  0.0950  0.0683
  482BOLB   C1B11553   5.051  18.083  18.870 -0.2969  0.4080 -0.0418
  482BOLB   C2B11554   4.905  18.041  19.308 -0.2499 -0.5153  0.0098
  482BOLB   C3B11555   4.529  18.066  19.579 -0.0888 -0.1266  0.0097
  482BOLB   C4B11556   4.135  18.264  19.628 -0.0950  0.2444 -0.0746
  482BOLB   NC211557   3.312  17.740  21.605 -0.1615 -0.1097  0.3516
  482BOLB   PO211558   3.434  18.211  21.625 -0.2605 -0.0124  0.1733
  482BOLB   GL311559   3.387  18.230  21.195  0.0443 -0.0182 -0.1429
  482BOLB   GL411560   2.999  18.397  21.162 -0.0036  0.0244 -0.1960
  482BOLB   C1C11561   3.512  18.094  20.871  0.1498 -0.0931 -0.4111
  482BOLB   C2C11562   3.844  18.076  20.556 -0.0612 -0.0068 -0.2189
  482BOLB   C3C11563   4.338  18.098  20.308  0.1403 -0.0261  0.1826
  482BOLB   C4C11564   4.625  17.929  20.055  0.2751 -0.1002 -0.2351
  482BOLB   C1D11565   3.074  18.461  20.723  0.2239 -0.1808  0.0994
  482BOLB   C2D11566   3.024  18.631  20.324  0.3129  0.3538  0.2005
  482BOLB   C3D11567   2.666  18.691  19.965 -0.3391 -0.1888 -0.0725
  482BOLB   C4D11568   2.253  18.728  19.863  0.2874  0.0258  0.1341
  483BOLB   NC111569   6.234  13.340   6.628  0.2419 -0.0253  0.2154
  483BOLB   PO111570   6.136  13.234   6.975  0.0948  0.2617  0.0548
  483BOLB   GL111571   5.850  12.897   7.048 -0.0463 -0.1081  0.0821
  483BOLB   GL211572   5.562  12.841   6.964  0.2005 -0.1527  0.2289
  483BOLB   C1A11573   5.858  12.442   6.852 -0.1287  0.1951 -0.1668
  483BOLB   C2A11574   5.942  12.068   6.654  0.0140 -0.3597 -0.1190
  483BOLB   C3A11575   6.101  11.822   6.317 -0.0857  0.1765 -0.0733
  483BOLB   C4A11576   6.264  11.769   5.850  0.2247  0.0575  0.1451
  483BOLB   C1B11577   5.209  12.444   6.958  0.2391 -0.4227  0.2160
  483BOLB   C2B11578   5.198  12.049   6.902  0.2275  0.4005 -0.1914
  483BOLB   C3B11579   5.609  11.748   6.845  0.0842 -0.2961  0.2254
  483BOLB   C4B11580   5.973  11.546   6.790 -0.0413  0.3654 -0.0201
  483BOLB   NC211581   8.036  10.228   4.610 -0.2037  0.2642 -0.1001
  483BOLB   PO211582   7.672  10.388   4.680  0.3176 -0.0902  0.1864
  483BOLB   GL311583   7.403  10.787   4.469 -0.0430  0.3437  0.0738
  483BOLB   GL411584   7.422  10.917   4.154 -0.1128 -0.2237  0.0371
  483BOLB   C1C11585   7.224  11.055   4.612 -0.0283 -0.0127  0.1906
  483BOLB   C2C11586   6.935  11.319   4.829 -0.1084  0.1923  0.0531
  483BOLB   C3C11587   6.590  11.491   5.176 -0.0565 -0.1137  0.2334
  483BOLB   C4C11588   6.474  11.741   5.481 -0.0961 -0.1382  0.0571
  483BOLB   C1D11589   7.222  11.195   3.927  0.2056 -0.1074  0.1459
  483BOLB   C2D11590   7.184  11.719   3.893  0.0100  0.3822 -0.3517
  483BOLB   C3D11591   7.579  12.001   3.838 -0.1088  0.0864 -0.0318
  483BOLB   C4D11592   7.927  12.387   4.107 -0.1980 -0.1699  0.0869
  484BOLB   NC111593  10.652  21.261   2.885 -0.0452  0.3965 -0.2382
  484BOLB   PO111594  11.047  21.248   2.651  0.2053  0.0771 -0.3568
  484BOLB   GL111595  11.186  21.077   2.279 -0.1294 -0.1289 -0.0015
  484BOLB   GL211596  11.482  21.240   2.321 -0.0227  0.5085 -0.1388
  484BOLB   C1A11597  11.445  20.864   1.995  0.0292 -0.0817  0.2262
  484BOLB   C2A11598  11.588  21.023   1.650 -0.1527  0.3281 -0.0989
  484BOLB   C3A11599  11.740  20.976   1.283  0.0218  0.0311 -0.2972
  484BOLB   C4A11600  11.600  20.823   0.838  0.0540  0.2362  0.1516
  484BOLB   C1B11601  11.744  21.639   2.343 -0.1531  0.1955  0.3096
  484BOLB   C2B11602  12.160  21.800   2.237  0.0728 -0.2876 -0.0808
  484BOLB   C3B11603  12.568  21.717   2.403  0.0589  0.0816  0.3920
  484BOLB   C4B11604  12.987  21.715   2.404  0.0862 -0.0999 -0.0255
  484BOLB   NC211605  11.937  20.450  -1.507  0.0886  0.0919 -0.0657
  484BOLB   PO211606  11.573  20.275  -1.270 -0.2346  0.0959 -0.0518
  484BOLB   GL311607  11.810  20.287  -0.955 -0.0427  0.1777  0.1508
  484BOLB   GL411608  12.087  20.461  -0.979 -0.3854  0.0689  0.0717
  484BOLB   C1C11609  11.670  20.260  -0.588 -0.1113 -0.2336  0.0477
  484BOLB   C2C11610  11.752  20.259  -0.201  0.0711  0.0541 -0.1655
  484BOLB   C3C11611  11.650  20.440   0.183 -0.1800 -0.1452 -0.2698
  484BOLB   C4C11612  11.497  20.631   0.505 -0.3597 -0.1250 -0.2872
  484BOLB   C1D11613  12.179  20.496  -0.472  0.3697  0.0049  0.3659
  484BOLB   C2D11614  12.125  20.559   0.042 -0.1953  0.2962 -0.1785
  484BOLB   C3D11615  12.026  20.753   0.478 -0.2734 -0.2065  0.0055
  484BOLB   C4D11616  12.108  20.842   0.951 -0.1536  0.2161  0.1084
  485BOLB   NC111617  12.568  26.829  10.908 -0.1607 -0.1669  0.0798
  485BOLB   PO111618  12.705  26.912  10.422  0.1061  0.4771  0.1685
  485BOLB   GL111619  13.141  26.869  10.403 -0.0963  0.1610  0.0376
  485BOLB   GL211620  13.349  26.863  10.128  0.1516 -0.2415 -0.3511
  485BOLB   C1A11621  13.590  26.910  10.625 -0.1800  0.0832 -0.3325
  485BOLB   C2A11622  14.027  27.089  10.711 -0.1455 -0.0852 -0.1350
  485BOLB   C3A11623  14.378  27.382  10.848 -0.0701 -0.1113 -0.0107
  485BOLB   C4A11624  14.688  27.633  10.716  0.2879 -0.3182  0.2472
  485BOLB   C1B11625  13.404  27.247  10.326  0.2384  0.1850  0.3257
  485BOLB   C2B11626  13.728  27.281  10.257  0.1711  0.0621  0.3696
  485BOLB   C3B11627  14.190  27.331  10.236 -0.3583 -0.1901  0.0700
  485BOLB   C4B11628  14.367  27.317   9.818 -0.0964  0.0172  0.2725
  485BOLB   NC211629  17.206  27.858  11.244  0.4851 -0.2350  0.0973
  485BOLB   PO211630  16.998  28.171  11.146  0.0210  0.0340  0.3951
  485BOLB   GL311631  16.644  27.996  11.319 -0.1463 -0.0670  0.1678
  485BOLB   GL411632  16.560  28.026  11.657 -0.3048  0.2643  0.0065
  485BOLB   C1C11633  16.185  28.101  11.047 -0.1008 -0.0594  0.2595
  485BOLB   C2C11634  15.776  28.168  10.810 -0.0213 -0.2411  0.2310
  485BOLB   C3C11635  15.312  28.055  10.875  0.0657  0.3183 -0.1780
  485BOLB   C4C11636  14.869  28.008  10.784  0.2343 -0.4017 -0.1567
  485BOLB   C1D11637  16.136  27.948  11.534  0.4670  0.3176  0.2375
  485BOLB   C2D11638  15.874  27.517  11.524 -0.1234  0.1901 -0.0084
  485BOLB   C3D11639  15.531  27.389  11.416 -0.1599 -0.0783  0.2858
  485BOLB   C4D11640  15.169  27.274  11.254 -0.0089  0.0679  0.5283
  486BOLB   NC111641   9.918  15.485   5.679 -0.4176 -0.0549  0.0990
  486BOLB   PO111642  10.244  15.134   5.807 -0.0967 -0.2719 -0.1660
  486BOLB   GL111643  10.400  14.829   5.669 -0.1128 -0.1168  0.0233
  486BOLB   GL211644  10.641  14.965   5.454 -0.2570 -0.0624  0.1989
  486BOLB   C1A11645  10.370  14.498   5.354  0.0686  0.3740 -0.2729
  486BOLB   C2A11646  10.638  14.157   5.152  0.0327 -0.1046 -0.0136
  486BOLB   C3A11647  10.684  13.749   5.079  0.1601  0.0163  0.1500
  486BOLB   C4A11648  10.395  13.495   4.895 -0.0064  0.2820  0.0455
  486BOLB   C1B11649  10.620  14.776   5.000 -0.3274 -0.1186 -0.0792
  486BOLB   C2B11650  10.658  14.752   4.632 -0.1681  0.2911  0.4005
  486BOLB   C3B11651  10.755  14.517   4.285 -0.2104  0.0037 -0.2360
  486BOLB   C4B11652  10.696  14.052   4.118 -0.0964 -0.2450  0.2790
  486BOLB   NC211653  11.499  12.149   2.936  0.3050  0.2581 -0.0864
  486BOLB   PO211654  11.070  11.966   3.056 -0.2654  0.0473  0.0509
  486BOLB   GL311655  11.059  12.084   3.481  0.2307 -0.1672  0.0314
  486BOLB   GL411656  11.194  12.379   3.278  0.1470 -0.3080  0.2000
  486BOLB   C1C11657  10.827  12.303   3.762 -0.0670  0.0350 -0.0541
  486BOLB   C2C11658  10.756  12.741   3.881 -0.1587  0.0524 -0.1344
  486BOLB   C3C11659  10.434  13.056   4.113 -0.4990 -0.1632  0.0265
  486BOLB   C4C11660  10.243  13.246   4.512  0.1941 -0.0634 -0.0215
  486BOLB   C1D11661  11.107  12.727   3.560 -0.1804  0.0375  0.1944
  486BOLB   C2D11662  11.178  13.173   3.706  0.0238  0.0663  0.0894
  486BOLB   C3D11663  11.046  13.572   3.497  0.0548  0.1946  0.2093
  486BOLB   C4D11664  10.982  14.056   3.686  0.3960 -0.2205 -0.0465
  487BOLB   NC111665   9.837  22.738  17.838 -0.1320 -0.1681 -0.2851
  487BOLB   PO111666   9.715  22.500  18.209  0.2437 -0.0499 -0.0002
  487BOLB   GL111667   9.915  22.727  18.450  0.3497  0.0224  0.1455
  487BOLB   GL211668   9.845  23.036  18.309 -0.0517 -0.0348  0.0548
  487BOLB   C1A11669   9.951  22.805  18.840  0.1955 -0.1481 -0.0007
  487BOLB   C2A11670   9.823  22.746  19.220 -0.3028  0.0887 -0.1398
  487BOLB   C3A11671   9.927  22.808  19.524 -0.1647 -0.2867 -0.2105
  487BOLB   C4A11672   9.838  22.648  19.933 -0.1572 -0.0825  0.1498
  487BOLB   C1B11673   9.535  23.165  18.617  0.0632  0.0195  0.0472
  487BOLB   C2B11674   9.651  23.272  18.964 -0.1430 -0.2097 -0.2002
  487BOLB   C3B11675   9.866  23.328  19.367 -0.3367  0.0754 -0.0906
  487BOLB   C4B11676  10.075  23.312  19.783 -0.1312  0.0384 -0.2060
  487BOLB   NC211677  10.564  21.568  22.115 -0.2526  0.1379 -0.0450
  487BOLB   PO211678  10.374  21.792  22.369 -0.2995 -0.1896 -0.1523
  487BOLB   GL311679  10.406  21.972  21.929  0.2648 -0.3273 -0.2634
  487BOLB   GL411680  10.335  22.241  21.910  0.0376 -0.1310  0.0920
  487BOLB   C1C11681  10.472  22.126  21.409  0.1112 -0.1427 -0.1626
  487BOLB   C2C11682  10.303  22.503  21.087  0.2332 -0.2624 -0.3057
  487BOLB   C3C11683  10.107  22.567  20.773 -0.1628 -0.2850  0.3929
  487BOLB   C4C11684   9.782  22.693  20.430 -0.1300  0.0239  0.1810
  487BOLB   C1D11685  10.195  22.500  21.583  0.0788 -0.0496  0.2866
  487BOLB   C2D11686  10.155  22.831  21.431 -0.0490  0.3327  0.1863
  487BOLB   C3D11687  10.186  23.144  21.127 -0.0546  0.0044 -0.1490
  487BOLB   C4D11688  10.282  23.604  21.269 -0.1484 -0.1406 -0.5014
  488BOLB   NC111689  10.834  14.392   7.463  0.1549 -0.3174  0.0752
  488BOLB   PO111690  10.910  14.559   7.077 -0.1039 -0.1733  0.0124
  488BOLB   GL111691  11.191  14.304   6.984  0.1799 -0.1205  0.0147
  488BOLB   GL211692  11.235  14.037   7.162  0.1325 -0.3036  0.0692
  488BOLB   C1A11693  11.356  14.099   6.634  0.0998 -0.5200 -0.2620
  488BOLB   C2A11694  11.627  13.947   6.318 -0.2532 -0.1498  0.0232
  488BOLB   C3A11695  11.859  13.685   6.099 -0.0611  0.1343 -0.2283
  488BOLB   C4A11696  12.113  13.313   6.127  0.0631  0.2242 -0.1683
  488BOLB   C1B11697  11.219  13.691   7.065 -0.2518  0.0887  0.2075
  488BOLB   C2B11698  11.011  13.329   6.798 -0.1977  0.0013  0.6024
  488BOLB   C3B11699  11.048  12.983   6.967 -0.3231  0.0975  0.2516
  488BOLB   C4B11700  11.052  12.640   7.338  0.0190  0.1405  0.1073
  488BOLB   NC211701  14.070  11.978   4.972 -0.1224  0.0807 -0.1167
  488BOLB   PO211702  13.640  11.910   5.186 -0.3555 -0.1623  0.2076
  488BOLB   GL311703  13.333  12.221   5.262  0.0913  0.1162  0.2775
  488BOLB   GL411704  13.604  12.550   5.304  0.1204  0.0070 -0.0066
  488BOLB   C1C11705  13.095  12.422   5.605  0.0731 -0.1102  0.1079
  488BOLB   C2C11706  13.091  12.672   5.948  0.0351 -0.1049 -0.1159
  488BOLB   C3C11707  12.701  12.870   6.255  0.2335 -0.1356 -0.0078
  488BOLB   C4C11708  12.337  12.946   6.256  0.0718 -0.1629 -0.0921
  488BOLB   C1D11709  13.309  12.829   5.509  0.1597 -0.2978 -0.0824
  488BOLB   C2D11710  12.956  13.115   5.602  0.0080 -0.1588  0.3276
  488BOLB   C3D11711  12.738  13.393   5.310 -0.2461  0.1016 -0.0132
  488BOLB   C4D11712  12.268  13.404   5.235  0.0087  0.3049  0.0119
  489BOLB   NC111713   5.355  13.564   7.696  0.2291 -0.1999  0.0272
  489BOLB   PO111714   4.992  13.311   7.600 -0.2815  0.0327 -0.1310
  489BOLB   GL111715   4.926  12.939   7.596 -0.4805 -0.1694 -0.0975
  489BOLB   GL211716   4.506  12.847   7.647  0.1816 -0.0348  0.2787
  489BOLB   C1A11717   4.784  12.545   7.379  0.2334  0.1637  0.2805
  489BOLB   C2A11718   4.642  12.097   7.377 -0.0467  0.1804 -0.0738
  489BOLB   C3A11719   4.518  11.735   7.382  0.1375 -0.0438 -0.0294
  489BOLB   C4A11720   4.760  11.320   7.332 -0.1743 -0.0901 -0.2318
  489BOLB   C1B11721   4.591  12.531   7.901 -0.0055  0.0206  0.0519
  489BOLB   C2B11722   4.581  12.085   7.894  0.1869 -0.2858 -0.3294
  489BOLB   C3B11723   4.573  11.698   7.885  0.1756 -0.1613  0.1443
  489BOLB   C4B11724   4.644  11.351   7.853 -0.2469 -0.0818 -0.0640
  489BOLB   NC211725   5.074   8.806   6.747 -0.1860 -0.0520 -0.0728
  489BOLB   PO211726   5.554   8.976   6.689  0.0465 -0.1222 -0.1150
  489BOLB   GL311727   5.608   9.447   6.957  0.0062  0.1346 -0.0668
  489BOLB   GL411728   5.485   9.416   7.218  0.0278 -0.2216 -0.3279
  489BOLB   C1C11729   5.468   9.889   6.861 -0.0308  0.2614  0.1187
  489BOLB   C2C11730   5.284  10.186   7.160  0.1929 -0.0866 -0.0357
  489BOLB   C3C11731   5.209  10.679   7.116 -0.0285  0.1190 -0.0153
  489BOLB   C4C11732   5.106  11.098   7.211  0.2366  0.1945  0.0966
  489BOLB   C1D11733   5.263   9.719   7.345 -0.0423 -0.1557  0.1747
  489BOLB   C2D11734   5.048  10.002   7.567 -0.3456 -0.4858  0.3528
  489BOLB   C3D11735   5.070  10.339   7.988 -0.0124  0.0250  0.1944
  489BOLB   C4D11736   4.919  10.757   8.180  0.1611 -0.1370 -0.0375
  490BOLB   NC111737  11.579  17.548   4.653  0.1009  0.1183 -0.1586
  490BOLB   PO111738  12.005  17.264   4.720 -0.2339 -0.1353  0.1139
  490BOLB   GL111739  12.303  17.012   4.756 -0.2494  0.2696 -0.0050
  490BOLB   GL211740  12.496  17.056   5.019  0.2445  0.0170 -0.1328
  490BOLB   C1A11741  12.367  16.595   4.631  0.6215  0.1336 -0.4032
  490BOLB   C2A11742  12.670  16.403   4.452 -0.0722  0.1837 -0.0894
  490BOLB   C3A11743  12.965  16.080   4.416 -0.0402  0.2182  0.4091
  490BOLB   C4A11744  13.092  15.694   4.232 -0.0511 -0.4170  0.0822
  490BOLB   C1B11745  12.792  16.810   4.811  0.2012  0.0112  0.3422
  490BOLB   C2B11746  13.146  16.489   4.701 -0.0312 -0.2034 -0.1157
  490BOLB   C3B11747  13.432  16.233   4.681 -0.0047  0.2472 -0.0205
  490BOLB   C4B11748  13.473  15.877   4.477  0.0967  0.0600  0.0138
  490BOLB   NC211749  14.582  13.770   3.289  0.4111  0.1446 -0.2905
  490BOLB   PO211750  14.673  14.093   3.069 -0.0187  0.0263  0.2342
  490BOLB   GL311751  14.235  14.321   3.212  0.0104  0.1780 -0.0585
  490BOLB   GL411752  14.177  14.520   2.883  0.1191  0.1190 -0.1148
  490BOLB   C1C11753  13.838  14.640   3.237 -0.0136 -0.3447 -0.0800
  490BOLB   C2C11754  13.531  14.732   3.571  0.0663 -0.4276 -0.2485
  490BOLB   C3C11755  13.517  15.252   3.765 -0.0228 -0.0789  0.0876
  490BOLB   C4C11756  13.539  15.580   3.984  0.0152 -0.4106  0.1756
  490BOLB   C1D11757  14.225  14.928   3.071  0.1463  0.2474 -0.2607
  490BOLB   C2D11758  13.943  15.027   3.559  0.3901 -0.3906 -0.0929
  490BOLB   C3D11759  13.903  14.932   3.857 -0.0834  0.2412 -0.0828
  490BOLB   C4D11760  13.892  15.191   4.145 -0.0021  0.1576 -0.2424
  491BOLB   NC111761  28.857  22.366   8.296 -0.2786 -0.0504  0.0701
  491BOLB   PO111762  29.188  22.003   8.222  0.0764 -0.1862 -0.2145
  491BOLB   GL111763  29.530  22.061   8.447 -0.3200 -0.3410  0.1638
  491BOLB   GL211764  29.865  22.158   8.178  0.2025  0.2029 -0.2904
  491BOLB   C1A11765  29.882  22.122   8.647  0.0344  0.2291 -0.2743
  491BOLB   C2A11766  30.346  22.274   8.777  0.0545 -0.0882  0.1638
  491BOLB   C3A11767  30.509  22.127   9.064  0.1839  0.0910 -0.1047
  491BOLB   C4A11768  30.857  22.072   9.212 -0.0767  0.0021 -0.0089
  491BOLB   C1B11769  30.320  22.244   8.287  0.3542 -0.2031  0.3273
  491BOLB   C2B11770  30.588  22.707   8.345  0.1802 -0.0434  0.1618
  491BOLB   C3B11771  30.861  22.863   8.584 -0.2472  0.1547 -0.0198
  491BOLB   C4B11772  31.318  23.016   8.567  0.1545  0.0489 -0.2783
  491BOLB   NC211773  29.493  22.843   9.151  0.0396 -0.2767  0.1694
  491BOLB   PO211774  29.382  23.334   9.139  0.0061 -0.0732 -0.1153
  491BOLB   GL311775  29.798  23.480   9.114 -0.0426  0.1812  0.0598
  491BOLB   GL411776  29.818  23.509   8.765 -0.0263 -0.0295  0.1249
  491BOLB   C1C11777  30.298  23.435   9.126  0.2883  0.2247 -0.3354
  491BOLB   C2C11778  30.681  23.240   9.100  0.1046 -0.0333  0.2706
  491BOLB   C3C11779  31.108  22.944   9.039  0.1887 -0.1187  0.0551
  491BOLB   C4C11780  31.091  22.488   9.234 -0.1071 -0.0350  0.2250
  491BOLB   C1D11781  30.194  23.351   8.638  0.1498  0.0134  0.1808
  491BOLB   C2D11782  30.739  23.366   8.595  0.1705  0.2816  0.1219
  491BOLB   C3D11783  31.142  23.491   8.566  0.0337  0.2532  0.1223
  491BOLB   C4D11784  31.638  23.377   8.559 -0.4844  0.0751 -0.1496
  492BOLB   NC111785  13.820  24.684  10.226 -0.1764 -0.1821 -0.1938
  492BOLB   PO111786  14.083  24.899   9.865 -0.0020 -0.1422  0.3795
  492BOLB   GL111787  14.387  25.183   9.868 -0.1151  0.0922  0.0382
  492BOLB   GL211788  14.381  25.397   9.650 -0.5601 -0.2546 -0.0178
  492BOLB   C1A11789  14.689  25.449  10.075  0.0844 -0.1039 -0.0123
  492BOLB   C2A11790  15.079  25.632  10.258  0.1359 -0.0269  0.0559
  492BOLB   C3A11791  15.332  25.747  10.617  0.1169  0.0487 -0.1068
  492BOLB   C4A11792  15.672  26.061  10.792  0.0748 -0.1803 -0.1619
  492BOLB   C1B11793  14.780  25.328   9.560 -0.0289 -0.2528 -0.0240
  492BOLB   C2B11794  15.163  25.627   9.516 -0.1709 -0.1497  0.0779
  492BOLB   C3B11795  15.601  25.748   9.645 -0.0737  0.0605  0.1159
  492BOLB   C4B11796  16.126  25.621   9.702  0.1725  0.2880 -0.1821
  492BOLB   NC211797  16.858  28.562  10.113  0.4123  0.0125  0.0556
  492BOLB   PO211798  16.785  28.123  10.052 -0.3795 -0.0176  0.4939
  492BOLB   GL311799  16.470  27.854  10.210 -0.3460  0.0597  0.0347
  492BOLB   GL411800  16.206  28.067  10.280 -0.3610 -0.0559 -0.0196
  492BOLB   C1C11801  16.181  27.564  10.187 -0.1625 -0.0097  0.0018
  492BOLB   C2C11802  15.898  27.265  10.291 -0.0162 -0.3117  0.0399
  492BOLB   C3C11803  15.744  26.824  10.424 -0.1699  0.1972  0.0366
  492BOLB   C4C11804  15.893  26.457  10.594 -0.0981  0.0662  0.0452
  492BOLB   C1D11805  15.735  28.211  10.309  0.2193 -0.3167 -0.0788
  492BOLB   C2D11806  15.206  28.265  10.312 -0.1993 -0.2660  0.1714
  492BOLB   C3D11807  14.850  27.998  10.283  0.1073  0.0056 -0.1080
  492BOLB   C4D11808  14.642  27.718  10.255 -0.1158 -0.0598  0.1664
  493BOLB   NC111809   7.715  17.378   3.217 -0.0684 -0.0889  0.0219
  493BOLB   PO111810   7.715  17.533   2.770 -0.1992 -0.1744  0.1832
  493BOLB   GL111811   7.833  17.258   2.454 -0.1755 -0.1400 -0.1666
  493BOLB   GL211812   7.595  17.248   2.316  0.0833  0.1029 -0.3373
  493BOLB   C1A11813   8.040  16.815   2.287  0.0514  0.0824 -0.0020
  493BOLB   C2A11814   8.253  16.804   1.848 -0.2164 -0.1610  0.2077
  493BOLB   C3A11815   8.462  16.718   1.466 -0.1415  0.0414  0.5786
  493BOLB   C4A11816   8.545  16.268   1.388  0.0837 -0.0394 -0.0316
  493BOLB   C1B11817   7.729  17.066   1.981  0.0450  0.1595 -0.1773
  493BOLB   C2B11818   7.940  17.039   1.522  0.0848 -0.1904 -0.0101
  493BOLB   C3B11819   8.387  17.253   1.385 -0.1927  0.0943  0.1641
  493BOLB   C4B11820   8.754  17.003   1.091  0.0838  0.1354 -0.2267
  493BOLB   NC211821   9.588  15.269  -0.549 -0.1265  0.2123 -0.1905
  493BOLB   PO211822   9.322  15.385  -0.759 -0.0186 -0.2230 -0.1823
  493BOLB   GL311823   9.144  15.423  -0.301 -0.1607 -0.1199  0.0677
  493BOLB   GL411824   9.353  15.283  -0.138  0.3070  0.1678 -0.0023
  493BOLB   C1C11825   8.876  15.511   0.026 -0.0655  0.0955 -0.2050
  493BOLB   C2C11826   8.722  15.584   0.499 -0.0837  0.0674 -0.0453
  493BOLB   C3C11827   8.608  15.978   0.654 -0.0335  0.2302 -0.1737
  493BOLB   C4C11828   8.592  16.110   1.001 -0.1334  0.1177 -0.0659
  493BOLB   C1D11829   9.358  15.588   0.171 -0.0525 -0.0462  0.1856
  493BOLB   C2D11830   9.157  15.880   0.497  0.1104  0.2158 -0.0858
  493BOLB   C3D11831   9.118  16.188   0.814 -0.1144 -0.2078  0.2936
  493BOLB   C4D11832   8.908  16.497   1.069  0.0611  0.1808 -0.1269
  494BOLB   NC111833   5.234  27.359   5.905  0.0907 -0.1126 -0.4235
  494BOLB   PO111834   5.511  27.488   6.109 -0.1832 -0.0693  0.0741
  494BOLB   GL111835   5.492  27.750   5.770 -0.2211 -0.3251 -0.1091
  494BOLB   GL211836   5.759  27.925   5.748  0.0108  0.0370  0.1714
  494BOLB   C1A11837   5.339  27.995   5.450 -0.0476 -0.0223  0.2725
  494BOLB   C2A11838   5.363  28.078   5.038 -0.0215  0.1139  0.1698
  494BOLB   C3A11839   5.135  27.813   4.602 -0.2118  0.0440  0.2909
  494BOLB   C4A11840   4.823  27.922   4.345  0.2005  0.0933 -0.0651
  494BOLB   C1B11841   5.744  28.270   5.585 -0.0399 -0.0432  0.1196
  494BOLB   C2B11842   5.406  28.469   5.361 -0.2045  0.3347 -0.0435
  494BOLB   C3B11843   5.080  28.482   5.139 -0.0597 -0.1186  0.0631
  494BOLB   C4B11844   4.977  28.329   4.727 -0.2228  0.3270  0.2076
  494BOLB   NC211845   5.021  29.723   2.452  0.3175  0.2320  0.0829
  494BOLB   PO211846   4.840  29.828   2.758  0.2083 -0.1680  0.0004
  494BOLB   GL311847   4.975  29.457   2.994 -0.2003  0.1044 -0.0395
  494BOLB   GL411848   4.704  29.267   3.093  0.1586  0.0775  0.0272
  494BOLB   C1C11849   5.162  29.062   3.086  0.0477  0.0936  0.2265
  494BOLB   C2C11850   5.122  28.679   3.455  0.1437 -0.0131  0.3586
  494BOLB   C3C11851   5.068  28.357   3.816 -0.0097 -0.0597  0.2783
  494BOLB   C4C11852   4.878  28.094   3.867  0.2240 -0.0153  0.3541
  494BOLB   C1D11853   4.810  29.210   3.483 -0.1572  0.0233  0.2832
  494BOLB   C2D11854   4.674  29.183   3.850  0.1961 -0.0445 -0.2650
  494BOLB   C3D11855   4.263  29.049   3.893 -0.3957 -0.1794 -0.0067
  494BOLB   C4D11856   3.952  28.923   3.742  0.0625 -0.0227  0.1910
  495BOLB   NC111857   2.069  20.834   3.823 -0.1389  0.3925 -0.0653
  495BOLB   PO111858   2.028  20.418   3.633 -0.1953  0.0044 -0.3985
  495BOLB   GL111859   2.028  20.367   3.157 -0.0921 -0.2976 -0.1239
  495BOLB   GL211860   1.964  20.082   3.186  0.1151 -0.0626  0.3304
  495BOLB   C1A11861   1.924  20.484   2.710  0.3908 -0.2014  0.1298
  495BOLB   C2A11862   1.764  20.509   2.392 -0.0383  0.0748  0.3352
  495BOLB   C3A11863   1.722  20.545   1.908 -0.2391 -0.1131  0.1694
  495BOLB   C4A11864   1.770  20.260   1.733  0.4583 -0.1961  0.2557
  495BOLB   C1B11865   1.672  19.935   2.881 -0.4326  0.1214  0.1280
  495BOLB   C2B11866   1.383  19.898   2.652  0.0830 -0.0968  0.1283
  495BOLB   C3B11867   1.229  19.696   2.333 -0.0042  0.1406 -0.2269
  495BOLB   C4B11868   0.934  19.747   1.938 -0.0588  0.2066  0.3687
  495BOLB   NC211869   1.533  20.494  -0.748 -0.1728 -0.0366  0.3248
  495BOLB   PO211870   1.122  20.507  -0.691 -0.2131  0.1499 -0.0433
  495BOLB   GL311871   1.292  20.571  -0.309 -0.2939 -0.1152 -0.4602
  495BOLB   GL411872   1.385  20.954  -0.174 -0.0655  0.0654 -0.3109
  495BOLB   C1C11873   1.272  20.603   0.193  0.1561 -0.1147 -0.0961
  495BOLB   C2C11874   1.323  20.501   0.626 -0.0592 -0.0279  0.2915
  495BOLB   C3C11875   1.554  20.338   0.993  0.2597 -0.1277 -0.1878
  495BOLB   C4C11876   1.815  20.260   1.307 -0.0517  0.1593  0.0329
  495BOLB   C1D11877   1.697  21.001   0.188  0.0901  0.0409  0.1777
  495BOLB   C2D11878   1.821  20.630   0.381  0.0837  0.1490  0.0134
  495BOLB   C3D11879   2.027  20.323   0.591 -0.3273  0.0351 -0.4108
  495BOLB   C4D11880   1.914  19.971   0.915  0.1252 -0.1707 -0.1174
  496BOLB   NC111881   6.885  27.039   4.975  0.1355 -0.0185  0.1356
  496BOLB   PO111882   6.676  26.806   4.845 -0.0493  0.1454 -0.0585
  496BOLB   GL111883   6.824  26.950   4.448 -0.2788 -0.1656  0.2707
  496BOLB   GL211884   7.062  27.098   4.426  0.1785 -0.0381 -0.2765
  496BOLB   C1A11885   6.757  27.066   4.043  0.1014  0.0272 -0.0509
  496BOLB   C2A11886   6.620  27.051   3.684 -0.0238 -0.0530  0.2680
  496BOLB   C3A11887   6.566  27.299   3.362 -0.1087 -0.0908 -0.0727
  496BOLB   C4A11888   6.208  27.569   3.219 -0.1349 -0.3603  0.0316
  496BOLB   C1B11889   6.973  27.528   4.362  0.0199 -0.0872  0.2616
  496BOLB   C2B11890   6.925  27.927   4.251 -0.0292  0.2056  0.2392
  496BOLB   C3B11891   6.874  28.081   3.766 -0.0232 -0.2764 -0.0640
  496BOLB   C4B11892   6.894  28.141   3.355  0.2877  0.1799  0.0103
  496BOLB   NC211893   4.673  28.936   1.509  0.0382  0.1447  0.2259
  496BOLB   PO211894   4.815  28.663   1.740  0.0936 -0.0916  0.1444
  496BOLB   GL311895   5.004  28.430   2.007  0.0539  0.4026 -0.3549
  496BOLB   GL411896   4.968  28.638   2.252 -0.1567 -0.0726 -0.0169
  496BOLB   C1C11897   5.234  27.978   2.051  0.6225 -0.1752 -0.4671
  496BOLB   C2C11898   5.583  27.814   2.242  0.3358  0.1270 -0.1323
  496BOLB   C3C11899   5.768  27.519   2.568  0.3041  0.1993  0.0446
  496BOLB   C4C11900   5.844  27.640   2.984  0.2652  0.2705 -0.2698
  496BOLB   C1D11901   4.734  28.779   2.625 -0.0924  0.1618  0.2716
  496BOLB   C2D11902   4.650  28.699   3.030  0.0585 -0.2089 -0.0751
  496BOLB   C3D11903   4.596  28.364   3.288 -0.2814 -0.2107  0.1151
  496BOLB   C4D11904   4.619  27.991   3.428 -0.0587  0.2467 -0.0398
  497BOLB   NC111905   9.826  14.979   5.565 -0.1661  0.3644 -0.1188
  497BOLB   PO111906   9.484  14.767   5.780  0.1629  0.1297  0.2264
  497BOLB   GL111907   9.731  14.462   5.531 -0.3671  0.3123  0.1974
  497BOLB   GL211908   9.499  14.293   5.431 -0.1305 -0.3521  0.0169
  497BOLB   C1A11909   9.988  14.162   5.415 -0.4516  0.2244  0.1366
  497BOLB   C2A11910  10.127  13.971   4.988 -0.2607 -0.1326 -0.3336
  497BOLB   C3A11911  10.040  13.765   4.609 -0.1367  0.4854  0.0774
  497BOLB   C4A11912  10.007  13.495   4.103 -0.0086 -0.0499  0.1888
  497BOLB   C1B11913   9.302  13.905   5.212 -0.1941 -0.0467 -0.3300
  497BOLB   C2B11914   9.267  13.628   5.026  0.1033 -0.2792 -0.0260
  497BOLB   C3B11915   9.381  13.212   4.891  0.5064  0.4617 -0.3340
  497BOLB   C4B11916   9.413  12.784   4.863 -0.2702  0.2041  0.2643
  497BOLB   NC211917   9.936  11.183   3.202  0.0119  0.1532  0.3557
  497BOLB   PO211918  10.082  11.553   2.915  0.2922  0.0433  0.3872
  497BOLB   GL311919  10.081  11.867   3.186  0.1803 -0.1123  0.0566
  497BOLB   GL411920   9.896  11.772   3.357 -0.1878  0.0331 -0.1665
  497BOLB   C1C11921   9.818  12.293   3.201  0.0828  0.0613 -0.0744
  497BOLB   C2C11922   9.827  12.738   3.171  0.2206 -0.3956  0.0872
  497BOLB   C3C11923   9.859  13.088   3.432  0.2327  0.0278 -0.1165
  497BOLB   C4C11924   9.950  13.095   3.925  0.0643  0.2144  0.0067
  497BOLB   C1D11925   9.935  11.974   3.657 -0.1208 -0.0152 -0.2682
  497BOLB   C2D11926  10.031  12.113   4.028  0.0271  0.1479  0.1558
  497BOLB   C3D11927   9.994  12.258   4.459  0.0608 -0.1534  0.0057
  497BOLB   C4D11928   9.996  12.433   4.874  0.2266  0.1364 -0.1819
  498BOLB   NC111929   4.849  14.227  13.370  0.1872  0.1065 -0.2317
  498BOLB   PO111930   5.011  14.017  13.119 -0.2404 -0.0409  0.1064
  498BOLB   GL111931   4.950  13.667  13.390 -0.0299  0.1226  0.0453
  498BOLB   GL211932   4.745  13.678  13.674  0.1490  0.2876 -0.0768
  498BOLB   C1A11933   5.000  13.246  13.571  0.1521 -0.0153 -0.3817
  498BOLB   C2A11934   5.200  13.017  13.934 -0.1443  0.1649  0.1271
  498BOLB   C3A11935   5.157  12.770  14.315 -0.0223 -0.2589 -0.2323
  498BOLB   C4A11936   5.302  12.299  14.384 -0.1446  0.2458  0.0781
  498BOLB   C1B11937   4.737  13.324  13.996  0.3154 -0.2899  0.0034
  498BOLB   C2B11938   4.662  12.862  14.086 -0.1095 -0.0625  0.3061
  498BOLB   C3B11939   4.532  12.686  14.436  0.2954 -0.1829 -0.0106
  498BOLB   C4B11940   4.473  12.652  14.895  0.0671  0.1458 -0.0162
  498BOLB   NC211941   6.237  10.089  15.291 -0.2277  0.2855 -0.0213
  498BOLB   PO211942   5.998  10.293  15.330 -0.0279  0.0200 -0.1865
  498BOLB   GL311943   6.063  10.690  15.382  0.2299  0.3363 -0.0219
  498BOLB   GL411944   6.373  10.787  15.274  0.1347 -0.0141  0.0295
  498BOLB   C1C11945   5.901  10.992  15.154  0.0901  0.3318  0.0134
  498BOLB   C2C11946   5.813  11.219  14.869  0.1098  0.0362 -0.2692
  498BOLB   C3C11947   5.430  11.475  14.785  0.1861 -0.2520  0.3021
  498BOLB   C4C11948   5.387  11.812  14.485 -0.0912  0.1837  0.3007
  498BOLB   C1D11949   6.372  11.115  14.897 -0.3387 -0.2175 -0.2444
  498BOLB   C2D11950   6.270  11.436  14.603  0.1048  0.1185  0.2089
  498BOLB   C3D11951   6.252  11.678  14.309 -0.0677 -0.1231  0.1443
  498BOLB   C4D11952   6.540  12.051  14.212  0.0300  0.1054  0.1936
  499BOLB   NC111953   6.418  22.359   2.546  0.0015 -0.0193 -0.1721
  499BOLB   PO111954   5.999  22.236   2.700  0.1619  0.0209 -0.0249
  499BOLB   GL111955   5.969  22.386   2.258 -0.2605 -0.1029 -0.2489
  499BOLB   GL211956   5.711  22.273   2.241 -0.1073 -0.2453  0.0214
  499BOLB   C1A11957   6.224  22.304   1.948 -0.1483 -0.2303  0.1006
  499BOLB   C2A11958   6.109  22.235   1.494  0.0430  0.0621  0.1892
  499BOLB   C3A11959   6.139  22.171   1.057  0.1352 -0.0384 -0.1132
  499BOLB   C4A11960   6.169  22.286   0.636  0.0948  0.1457  0.0217
  499BOLB   C1B11961   5.678  22.511   1.836 -0.0193  0.0281 -0.0460
  499BOLB   C2B11962   5.616  22.652   1.359 -0.1419 -0.2144  0.1865
  499BOLB   C3B11963   5.756  22.561   0.898 -0.0222  0.0421 -0.3464
  499BOLB   C4B11964   5.730  22.452   0.464 -0.3366 -0.1983 -0.1478
  499BOLB   NC211965   5.716  22.743  -1.626 -0.1203 -0.0628  0.0241
  499BOLB   PO211966   6.107  22.795  -1.706 -0.2096  0.1798 -0.3867
  499BOLB   GL311967   6.152  22.835  -1.328  0.0136 -0.0208 -0.1413
  499BOLB   GL411968   5.850  22.961  -1.126  0.0331 -0.3471 -0.0287
  499BOLB   C1C11969   6.253  22.546  -1.064 -0.1699  0.2057  0.1175
  499BOLB   C2C11970   6.361  22.409  -0.680  0.2777  0.1549 -0.0553
  499BOLB   C3C11971   6.355  22.357  -0.221 -0.0542  0.1679  0.1562
  499BOLB   C4C11972   6.222  22.445   0.224 -0.3457 -0.0623  0.2330
  499BOLB   C1D11973   6.012  22.919  -0.762 -0.0047 -0.1334  0.0187
  499BOLB   C2D11974   5.973  22.630  -0.369  0.3314  0.3043 -0.1765
  499BOLB   C3D11975   5.832  22.357  -0.070 -0.2482 -0.2853  0.1019
  499BOLB   C4D11976   6.003  21.906   0.081 -0.1708 -0.1685 -0.3054
  500BOLB   NC111977   1.409  27.071  10.378  0.1459 -0.1626 -0.1377
  500BOLB   PO111978   1.335  27.409  10.657 -0.3505 -0.1045  0.1406
  500BOLB   GL111979   1.109  27.814  10.538 -0.1088 -0.4005 -0.0794
  500BOLB   GL211980   0.751  27.754  10.667  0.0967 -0.0858  0.1616
  500BOLB   C1A11981   1.225  28.134  10.247  0.0885  0.1054  0.1356
  500BOLB   C2A11982   1.406  28.563  10.200 -0.1649  0.2138  0.0125
  500BOLB   C3A11983   1.415  28.897   9.905 -0.1568  0.1204 -0.0922
  500BOLB   C4A11984   1.098  28.993   9.618 -0.1867  0.1538  0.3147
  500BOLB   C1B11985   0.590  28.181  10.694  0.0255  0.1866  0.3136
  500BOLB   C2B11986   0.318  28.482  10.582  0.1809 -0.0709  0.0564
  500BOLB   C3B11987   0.166  28.884  10.728  0.2980 -0.1832  0.1241
  500BOLB   C4B11988  -0.003  29.183  10.424 -0.1619  0.2012  0.0644
  500BOLB   NC211989  -0.514  30.614   8.395  0.0587 -0.0884 -0.0602
  500BOLB   PO211990  -0.791  30.352   8.719  0.0708 -0.4146  0.0167
  500BOLB   GL311991  -0.601  29.976   8.615  0.0941 -0.3862 -0.2137
  500BOLB   GL411992  -0.297  30.028   8.473  0.0449 -0.1061  0.0019
  500BOLB   C1C11993  -0.384  29.605   8.817 -0.2171  0.2814  0.1731
  500BOLB   C2C11994  -0.031  29.419   9.007  0.2199 -0.0030  0.0502
  500BOLB   C3C11995   0.317  29.140   9.321  0.0240 -0.0168  0.2386
  500BOLB   C4C11996   0.799  29.046   9.287 -0.0452 -0.0179  0.0005
  500BOLB   C1D11997  -0.050  29.923   8.731  0.0893 -0.2261 -0.0126
  500BOLB   C2D11998   0.274  29.969   9.005 -0.1905  0.1595 -0.2176
  500BOLB   C3D11999   0.654  30.053   9.182 -0.0137  0.1162  0.0553
  500BOLB   C4D12000   1.095  30.012   9.371 -0.2246  0.2278  0.1329
  501BOLB   NC112001   4.128  16.128   4.203  0.4485 -0.0471  0.0857
  501BOLB   PO112002   4.048  15.765   4.012 -0.2010  0.0465 -0.0569
  501BOLB   GL112003   4.142  15.385   3.771 -0.0310 -0.1999  0.4596
  501BOLB   GL212004   4.445  15.155   3.723  0.2481  0.2615 -0.2643
  501BOLB   C1A12005   3.965  15.192   3.284 -0.0438  0.2659 -0.0459
  501BOLB   C2A12006   4.003  14.963   2.953  0.0197  0.0065 -0.3840
  501BOLB   C3A12007   3.725  14.637   2.704  0.0219  0.0380 -0.0108
  501BOLB   C4A12008   3.653  14.242   2.421 -0.0902  0.0819 -0.1912
  501BOLB   C1B12009   4.080  14.883   3.612 -0.1955  0.1802 -0.0085
  501BOLB   C2B12010   3.812  14.633   3.283  0.2920 -0.2215 -0.1827
  501BOLB   C3B12011   3.456  14.464   3.122  0.1477 -0.1025  0.1333
  501BOLB   C4B12012   3.409  14.181   2.834  0.0957  0.0078 -0.1569
  501BOLB   NC212013   3.914  13.666   0.324 -0.0317 -0.0052  0.1821
  501BOLB   PO212014   3.891  13.329   0.514  0.2251 -0.0938  0.1451
  501BOLB   GL312015   4.065  13.504   0.841 -0.0407  0.1736  0.0559
  501BOLB   GL412016   4.030  13.866   0.800  0.0164  0.0380 -0.2363
  501BOLB   C1C12017   4.305  13.473   1.221 -0.1984 -0.0307  0.3153
  501BOLB   C2C12018   4.256  13.448   1.645 -0.0538 -0.3841  0.4441
  501BOLB   C3C12019   4.061  13.793   1.901  0.3259 -0.1006  0.1690
  501BOLB   C4C12020   3.755  14.006   2.096  0.0156  0.0153 -0.0111
  501BOLB   C1D12021   4.300  13.899   1.028 -0.2389 -0.0970 -0.0439
  501BOLB   C2D12022   4.400  13.985   1.483 -0.4906 -0.3210 -0.0905
  501BOLB   C3D12023   4.560  13.771   1.833  0.0757  0.0590  0.2955
  501BOLB   C4D12024   4.795  13.568   2.181 -0.2900 -0.1243  0.2008
  502BOLB   NC112025  13.601  17.820   5.864  0.1311 -0.2158 -0.1521
  502BOLB   PO112026  13.549  17.436   5.710 -0.2176 -0.0070 -0.0806
  502BOLB   GL112027  13.983  17.410   5.672 -0.1715 -0.1178  0.3051
  502BOLB   GL212028  14.129  17.750   5.541 -0.1256  0.2539 -0.2392
  502BOLB   C1A12029  14.281  17.264   5.504 -0.1119 -0.1105 -0.0880
  502BOLB   C2A12030  14.659  17.202   5.550 -0.0726  0.0625 -0.1050
  502BOLB   C3A12031  14.895  16.998   5.770 -0.0541  0.0425 -0.0084
  502BOLB   C4A12032  15.254  16.833   5.945  0.1497  0.0205  0.1418
  502BOLB   C1B12033  14.622  17.663   5.421 -0.2020 -0.0826 -0.2348
  502BOLB   C2B12034  14.984  17.608   5.126  0.1679 -0.3614 -0.3195
  502BOLB   C3B12035  15.386  17.631   5.019  0.0036 -0.3154  0.2213
  502BOLB   C4B12036  15.773  17.793   5.172  0.3387 -0.0662 -0.0714
  502BOLB   NC212037  16.751  14.677   6.296 -0.1062 -0.1540  0.2179
  502BOLB   PO212038  16.828  14.971   6.480  0.2920 -0.3320 -0.0170
  502BOLB   GL312039  16.551  15.234   6.267 -0.0537  0.0717 -0.1292
  502BOLB   GL412040  16.569  15.429   6.560 -0.1011  0.1851 -0.1944
  502BOLB   C1C12041  16.160  15.383   6.163  0.0865  0.0407  0.2213
  502BOLB   C2C12042  15.804  15.686   6.272 -0.2630 -0.3050  0.2728
  502BOLB   C3C12043  15.600  15.992   6.093  0.1177 -0.1647  0.1988
  502BOLB   C4C12044  15.440  16.395   5.980 -0.0991  0.0076  0.0640
  502BOLB   C1D12045  16.418  15.332   6.881 -0.1267  0.3070 -0.1379
  502BOLB   C2D12046  16.399  14.980   7.226 -0.0003  0.1253  0.2322
  502BOLB   C3D12047  16.177  14.784   7.608 -0.2395 -0.4008  0.3161
  502BOLB   C4D12048  16.415  14.723   7.979 -0.3270 -0.1224 -0.3321
  503BOLB   NC112049   9.679  31.354  16.490  0.0347 -0.1562 -0.1896
  503BOLB   PO112050   9.938  31.458  16.099 -0.1076  0.0268 -0.0488
  503BOLB   GL112051   9.624  31.237  15.894 -0.3700  0.0817  0.3171
  503BOLB   GL212052   9.602  31.079  15.537 -0.0965 -0.1135  0.1037
  503BOLB   C1A12053   9.457  30.737  15.839  0.1497 -0.0693 -0.1717
  503BOLB   C2A12054   9.646  30.224  15.674  0.0872 -0.2931 -0.1379
  503BOLB   C3A12055   9.652  29.747  15.654  0.4320 -0.1002 -0.0305
  503BOLB   C4A12056   9.375  29.444  15.992  0.0723  0.2876  0.3033
  503BOLB   C1B12057   9.779  30.746  15.398 -0.0745  0.0988 -0.0316
  503BOLB   C2B12058   9.769  30.400  15.226 -0.3729 -0.1322  0.2355
  503BOLB   C3B12059   9.709  29.954  15.230 -0.1058  0.3013 -0.0273
  503BOLB   C4B12060   9.594  29.546  14.980  0.1819 -0.1492 -0.2510
  503BOLB   NC212061  10.570  29.983  18.132  0.0087 -0.2133  0.2326
  503BOLB   PO212062  10.892  29.888  17.836  0.2500 -0.3612  0.0598
  503BOLB   GL312063  10.490  29.680  17.659  0.3426  0.4512  0.4580
  503BOLB   GL412064  10.169  29.746  17.886  0.1999  0.1260 -0.1381
  503BOLB   C1C12065  10.106  29.620  17.425  0.1773 -0.3767  0.0308
  503BOLB   C2C12066   9.837  29.298  17.238 -0.2834 -0.1504  0.1652
  503BOLB   C3C12067   9.600  29.292  16.727 -0.0399 -0.0583  0.0309
  503BOLB   C4C12068   9.653  29.432  16.327 -0.3071 -0.1797 -0.5392
  503BOLB   C1D12069   9.746  29.632  17.721  0.0506  0.0092  0.0517
  503BOLB   C2D12070   9.483  29.533  17.557  0.1770 -0.1106 -0.0172
  503BOLB   C3D12071   9.346  29.307  17.183  0.3208 -0.1973 -0.0480
  503BOLB   C4D12072   9.206  28.970  17.004 -0.1518 -0.0532  0.5207
  504BOLB   NC112073  13.470  25.116  13.312 -0.0547  0.1429  0.0586
  504BOLB   PO112074  13.296  24.871  13.628 -0.0653 -0.1122  0.1081
  504BOLB   GL112075  13.532  25.067  13.912 -0.1424 -0.1439 -0.0127
  504BOLB   GL212076  13.847  24.943  14.139 -0.1964 -0.0387  0.0291
  504BOLB   C1A12077  13.991  25.383  13.993 -0.2883  0.1515  0.0859
  504BOLB   C2A12078  14.364  25.426  14.387  0.4030 -0.2681 -0.1863
  504BOLB   C3A12079  14.756  25.522  14.398  0.1806 -0.3048 -0.3843
  504BOLB   C4A12080  15.170  25.840  14.198 -0.4431  0.4265 -0.1728
  504BOLB   C1B12081  14.252  24.875  14.203  0.1087 -0.0022 -0.0874
  504BOLB   C2B12082  14.608  24.669  14.252 -0.0087 -0.2100 -0.3663
  504BOLB   C3B12083  14.853  24.907  14.378 -0.0873 -0.1439 -0.0903
  504BOLB   C4B12084  15.068  25.089  14.654 -0.0550  0.0387  0.0581
  504BOLB   NC212085  17.552  27.265  14.152 -0.1867 -0.0942  0.0818
  504BOLB   PO212086  17.106  27.271  14.187  0.2889 -0.1236 -0.2717
  504BOLB   GL312087  16.832  27.162  13.864  0.0830 -0.0748 -0.2214
  504BOLB   GL412088  16.709  27.371  13.557  0.3850 -0.0747  0.0720
  504BOLB   C1C12089  16.463  26.859  13.941  0.0442  0.0927 -0.1979
  504BOLB   C2C12090  16.025  26.656  13.851 -0.3079 -0.1484 -0.0495
  504BOLB   C3C12091  15.707  26.409  14.094  0.1522  0.2420  0.0109
  504BOLB   C4C12092  15.350  26.200  14.290  0.0484  0.0799 -0.1959
  504BOLB   C1D12093  16.581  26.970  13.466 -0.2085  0.1450  0.1829
  504BOLB   C2D12094  16.530  26.568  13.342  0.0553 -0.0981 -0.3750
  504BOLB   C3D12095  16.801  26.254  13.539 -0.1096 -0.1093  0.1875
  504BOLB   C4D12096  16.934  25.827  13.727 -0.0684 -0.0574  0.0738
  505BOLB   NC112097  13.275  21.087  14.753 -0.1525  0.1167 -0.0651
  505BOLB   PO112098  13.581  21.354  14.982 -0.1806  0.0010  0.1827
  505BOLB   GL112099  13.778  21.366  15.299 -0.0262 -0.0771  0.0562
  505BOLB   GL212100  13.744  21.414  15.615  0.0177  0.1001  0.0935
  505BOLB   C1A12101  14.228  21.222  15.602 -0.1487 -0.1230  0.3659
  505BOLB   C2A12102  14.586  20.911  15.598 -0.2100 -0.1660  0.0385
  505BOLB   C3A12103  15.007  20.657  15.669 -0.2502 -0.0441  0.3816
  505BOLB   C4A12104  15.358  20.497  15.968 -0.3827  0.1472  0.0883
  505BOLB   C1B12105  13.840  21.274  15.986  0.2379 -0.0931 -0.1020
  505BOLB   C2B12106  14.036  21.123  16.399  0.0397  0.1102 -0.0934
  505BOLB   C3B12107  14.435  21.324  16.614 -0.3422  0.2143 -0.2213
  505BOLB   C4B12108  14.597  21.593  16.801  0.0862  0.0189 -0.0834
  505BOLB   NC212109  17.320  20.950  16.989  0.0952  0.0946 -0.1211
  505BOLB   PO212110  17.259  20.669  17.183  0.1434 -0.1359 -0.3287
  505BOLB   GL312111  16.830  20.488  17.037 -0.3670 -0.0283 -0.0689
  505BOLB   GL412112  16.734  20.253  16.690  0.2497 -0.1233 -0.2369
  505BOLB   C1C12113  16.386  20.679  16.839 -0.0546 -0.2115  0.0781
  505BOLB   C2C12114  16.204  20.770  16.586 -0.0029 -0.1116 -0.2970
  505BOLB   C3C12115  15.977  20.713  16.485 -0.0098  0.2772  0.3218
  505BOLB   C4C12116  15.659  20.672  16.233  0.2484 -0.1227  0.4430
  505BOLB   C1D12117  16.285  20.247  16.515 -0.3592  0.3301 -0.0379
  505BOLB   C2D12118  15.954  20.259  16.257  0.0411 -0.1052  0.2631
  505BOLB   C3D12119  15.797  20.332  15.878 -0.0593 -0.2451  0.2030
  505BOLB   C4D12120  15.538  20.521  15.504 -0.1254  0.2039 -0.2035
  506BOLB   NC112121  10.907  23.147  17.444  0.0359 -0.0849 -0.1113
  506BOLB   PO112122  11.048  22.764  17.271 -0.2337 -0.0260  0.2132
  506BOLB   GL112123  11.323  22.851  17.606 -0.1056 -0.0010 -0.1049
  506BOLB   GL212124  11.142  22.863  17.840  0.0202 -0.0287 -0.0488
  506BOLB   C1A12125  11.752  23.112  17.782  0.2278  0.2242 -0.1394
  506BOLB   C2A12126  12.006  23.214  17.929 -0.1173 -0.2251  0.0333
  506BOLB   C3A12127  12.334  23.423  18.139  0.3809  0.0288 -0.0558
  506BOLB   C4A12128  12.450  23.851  18.116 -0.1857  0.2221 -0.0603
  506BOLB   C1B12129  11.434  22.932  18.178  0.5385 -0.2287 -0.4461
  506BOLB   C2B12130  11.766  22.876  18.252  0.0804 -0.0804  0.1918
  506BOLB   C3B12131  12.178  22.886  18.255  0.0678  0.0926 -0.1714
  506BOLB   C4B12132  12.473  22.872  17.947  0.0770  0.3232 -0.0643
  506BOLB   NC212133  13.591  24.294  20.598 -0.1891 -0.0761  0.0705
  506BOLB   PO212134  13.482  24.410  20.139  0.2024 -0.0222 -0.1113
  506BOLB   GL312135  13.577  24.314  19.713  0.0644  0.0938 -0.0337
  506BOLB   GL412136  13.342  24.566  19.624 -0.0904 -0.2098  0.0121
  506BOLB   C1C12137  13.488  24.316  19.211  0.0621  0.0962  0.1488
  506BOLB   C2C12138  13.350  24.379  18.889 -0.1925 -0.0850 -0.1291
  506BOLB   C3C12139  13.112  24.269  18.538 -0.2920  0.1657 -0.0913
  506BOLB   C4C12140  12.727  24.125  18.217 -0.1180 -0.2531 -0.1126
  506BOLB   C1D12141  12.928  24.282  19.493 -0.1590 -0.0245 -0.0539
  506BOLB   C2D12142  12.829  24.046  19.819  0.3075 -0.0718  0.0595
  506BOLB   C3D12143  12.469  23.729  19.799  0.1335 -0.0091  0.1532
  506BOLB   C4D12144  12.020  23.569  19.724  0.5450 -0.3168 -0.0249
  507BOLB   NC112145  15.145  22.365   7.627 -0.0224 -0.0856 -0.0824
  507BOLB   PO112146  15.412  22.765   7.723  0.1814  0.1491 -0.2646
  507BOLB   GL112147  15.737  22.844   7.649 -0.3611 -0.2500  0.0044
  507BOLB   GL212148  15.917  23.093   7.820  0.2414  0.4412  0.1248
  507BOLB   C1A12149  16.230  22.757   7.580  0.2001  0.4189  0.1994
  507BOLB   C2A12150  16.507  22.785   7.293  0.0156  0.0694 -0.2919
  507BOLB   C3A12151  16.626  22.789   6.888  0.0396 -0.0181  0.0706
  507BOLB   C4A12152  16.801  23.134   6.570  0.0812 -0.2489  0.2038
  507BOLB   C1B12153  16.185  23.344   7.902 -0.0260 -0.1611 -0.2290
  507BOLB   C2B12154  16.346  23.709   8.080 -0.0757 -0.0169  0.3220
  507BOLB   C3B12155  16.441  24.069   8.412 -0.4607 -0.0853  0.0911
  507BOLB   C4B12156  16.455  24.491   8.204 -0.1367  0.2177 -0.0365
  507BOLB   NC212157  18.847  22.894   5.462  0.0054  0.0643 -0.1717
  507BOLB   PO212158  18.782  23.260   5.665 -0.0352 -0.2938 -0.0523
  507BOLB   GL312159  18.412  23.153   5.730  0.1958 -0.0259 -0.0287
  507BOLB   GL412160  18.404  22.818   5.736  0.4315 -0.1414  0.1388
  507BOLB   C1C12161  18.166  23.215   6.049 -0.0435  0.1083 -0.1802
  507BOLB   C2C12162  17.774  23.270   6.221 -0.0322 -0.1136 -0.1263
  507BOLB   C3C12163  17.335  23.437   6.100 -0.1197 -0.0620 -0.0513
  507BOLB   C4C12164  16.989  23.328   6.198 -0.2372 -0.1127  0.2240
  507BOLB   C1D12165  18.033  22.745   5.939 -0.0430  0.1415 -0.2239
  507BOLB   C2D12166  17.730  22.822   6.266  0.1102  0.2469 -0.1001
  507BOLB   C3D12167  17.385  22.934   6.512  0.0961 -0.1380 -0.1688
  507BOLB   C4D12168  17.065  22.632   6.749  0.1184 -0.2564 -0.2068
  508BOLB   NC112169  10.673  15.460  12.878 -0.2847 -0.3308  0.1119
  508BOLB   PO112170  10.728  15.254  12.554  0.0222 -0.3828  0.0012
  508BOLB   GL112171  10.917  14.862  12.707  0.1150  0.0313 -0.0279
  508BOLB   GL212172  10.952  14.619  12.393 -0.1214  0.4386 -0.0351
  508BOLB   C1A12173  11.157  14.696  13.042 -0.0390 -0.0342  0.0879
  508BOLB   C2A12174  11.428  14.450  13.174  0.2024 -0.2422  0.0398
  508BOLB   C3A12175  11.578  14.012  13.279 -0.4286  0.0927  0.0280
  508BOLB   C4A12176  11.502  13.545  13.258  0.0706  0.1988 -0.1608
  508BOLB   C1B12177  10.945  14.156  12.482  0.0911  0.0874  0.1197
  508BOLB   C2B12178  10.904  13.847  12.686  0.0620 -0.0021  0.2394
  508BOLB   C3B12179  11.374  13.663  12.761  0.1504  0.0575  0.0426
  508BOLB   C4B12180  11.743  13.562  12.542  0.2885  0.1825 -0.0479
  508BOLB   NC212181  12.602  11.180  13.852 -0.1042  0.1183 -0.0184
  508BOLB   PO212182  12.305  11.318  13.734  0.1974  0.3449  0.1629
  508BOLB   GL312183  11.957  11.734  13.655 -0.0894 -0.0912 -0.1230
  508BOLB   GL412184  12.124  11.970  13.544 -0.0804 -0.0950 -0.0458
  508BOLB   C1C12185  11.634  12.003  13.493  0.1086 -0.1454 -0.0664
  508BOLB   C2C12186  11.436  12.410  13.565  0.1757 -0.2012  0.0613
  508BOLB   C3C12187  11.299  12.751  13.398  0.0263 -0.1804 -0.1796
  508BOLB   C4C12188  11.457  13.167  13.514 -0.0746  0.0768 -0.0203
  508BOLB   C1D12189  12.117  12.283  13.178 -0.0703 -0.1803  0.2905
  508BOLB   C2D12190  11.738  12.544  12.942  0.0852 -0.0747 -0.0911
  508BOLB   C3D12191  11.558  12.926  12.981 -0.0251 -0.2668  0.6398
  508BOLB   C4D12192  11.250  13.181  13.093 -0.1220  0.0797  0.2157
  509BOLB   NC112193   8.638  15.647   4.464 -0.2905 -0.2062 -0.0058
  509BOLB   PO112194   8.838  15.252   4.534  0.0480 -0.1829  0.5186
  509BOLB   GL112195   9.039  15.169   4.069  0.0895  0.3076 -0.1281
  509BOLB   GL212196   9.283  14.899   4.114  0.2889  0.1482 -0.0033
  509BOLB   C1A12197   9.019  15.056   3.673  0.1489 -0.0453 -0.0818
  509BOLB   C2A12198   9.331  14.944   3.494  0.2329 -0.2148  0.2692
  509BOLB   C3A12199   9.514  14.913   3.113 -0.2516  0.0100 -0.4022
  509BOLB   C4A12200   9.818  15.016   2.778  0.3667 -0.0103  0.0005
  509BOLB   C1B12201   9.165  14.552   3.893  0.2428  0.3215 -0.2890
  509BOLB   C2B12202   9.339  14.176   3.794 -0.2564  0.0151 -0.1080
  509BOLB   C3B12203   9.714  13.902   3.735 -0.0246  0.2837  0.0449
  509BOLB   C4B12204   9.772  13.552   3.445  0.1029 -0.0919 -0.0565
  509BOLB   NC212205  11.078  14.100   1.108 -0.3350  0.0927 -0.0146
  509BOLB   PO212206  11.470  14.250   1.225 -0.0601 -0.0130 -0.3052
  509BOLB   GL312207  11.142  14.542   1.371  0.0452  0.2244  0.0814
  509BOLB   GL412208  10.777  14.516   1.333 -0.3229  0.0116  0.1607
  509BOLB   C1C12209  11.097  14.818   1.642  0.3100 -0.1826  0.0260
  509BOLB   C2C12210  10.739  14.801   1.993 -0.6745 -0.1018 -0.0386
  509BOLB   C3C12211  10.540  14.900   2.395 -0.0350  0.2741 -0.0261
  509BOLB   C4C12212  10.134  14.998   2.501 -0.0793  0.1470  0.1183
  509BOLB   C1D12213  10.365  14.782   1.154 -0.0791  0.2722  0.2093
  509BOLB   C2D12214  10.048  15.181   1.366 -0.2979  0.3842 -0.0081
  509BOLB   C3D12215   9.909  15.518   1.579 -0.0798 -0.0341  0.0514
  509BOLB   C4D12216   9.738  15.730   1.947 -0.0208  0.1283  0.1909
  510BOLB   NC112217   6.286  13.423   5.993  0.0839  0.1333  0.0008
  510BOLB   PO112218   5.920  13.428   6.235  0.0651 -0.1451  0.0469
  510BOLB   GL112219   6.034  13.013   6.091 -0.0462 -0.0961 -0.2371
  510BOLB   GL212220   5.704  12.767   6.123 -0.0445  0.2196  0.1022
  510BOLB   C1A12221   6.381  12.806   5.856  0.0533  0.1621  0.0452
  510BOLB   C2A12222   6.712  12.506   5.555  0.1558 -0.0545 -0.0831
  510BOLB   C3A12223   6.925  12.188   5.448  0.3932  0.1199  0.1340
  510BOLB   C4A12224   6.959  11.949   5.145 -0.2654  0.0497 -0.0543
  510BOLB   C1B12225   5.322  12.497   6.069 -0.0858 -0.1419 -0.0859
  510BOLB   C2B12226   5.308  12.172   5.963 -0.1853  0.1933  0.2730
  510BOLB   C3B12227   5.045  11.824   5.877  0.1777 -0.1726 -0.1316
  510BOLB   C4B12228   4.983  11.393   5.904  0.0614 -0.2137  0.2331
  510BOLB   NC212229   8.833  10.399   3.652 -0.0590 -0.0058 -0.1038
  510BOLB   PO212230   8.712  10.735   3.988 -0.0743 -0.2882  0.1952
  510BOLB   GL312231   8.518  10.929   4.420 -0.1073  0.0596 -0.2218
  510BOLB   GL412232   8.592  11.075   4.721  0.0158  0.2054  0.0006
  510BOLB   C1C12233   8.096  11.234   4.679 -0.3184 -0.1380 -0.0967
  510BOLB   C2C12234   7.875  11.346   5.062 -0.0090 -0.0713 -0.3737
  510BOLB   C3C12235   7.754  11.760   5.158  0.0007 -0.4103 -0.1070
  510BOLB   C4C12236   7.375  11.813   5.041  0.1929 -0.1081 -0.1421
  510BOLB   C1D12237   8.581  11.422   4.907 -0.0247  0.0105 -0.5151
  510BOLB   C2D12238   8.239  11.737   4.867 -0.1480 -0.1155 -0.0668
  510BOLB   C3D12239   7.869  11.790   4.669 -0.4124  0.2054  0.0954
  510BOLB   C4D12240   7.784  11.920   4.272 -0.1551  0.2641 -0.4389
  511BOLB   NC112241   3.726  21.724  18.667  0.0152 -0.0263  0.4542
  511BOLB   PO112242   3.416  21.804  18.288 -0.0682  0.0208 -0.0162
  511BOLB   GL112243   3.326  22.012  18.754  0.1673  0.1409  0.1828
  511BOLB   GL212244   3.199  21.638  18.854 -0.2633 -0.2290  0.1094
  511BOLB   C1A12245   3.354  22.164  19.174  0.1054 -0.2927 -0.0371
  511BOLB   C2A12246   3.243  22.186  19.610  0.2291  0.1046  0.3628
  511BOLB   C3A12247   2.931  22.185  19.742 -0.0112 -0.0196 -0.1962
  511BOLB   C4A12248   2.691  22.404  20.094  0.1110  0.0313  0.0830
  511BOLB   C1B12249   3.160  21.718  19.264 -0.3224  0.1299 -0.0843
  511BOLB   C2B12250   2.908  21.633  19.619 -0.2968 -0.1579 -0.0661
  511BOLB   C3B12251   2.503  21.451  19.788 -0.2727 -0.0003  0.3688
  511BOLB   C4B12252   2.129  21.512  19.892 -0.1664 -0.1050  0.0783
  511BOLB   NC212253   1.078  22.086  22.192 -0.0982 -0.1064  0.1897
  511BOLB   PO212254   1.182  22.436  21.865  0.1506  0.2809 -0.2044
  511BOLB   GL312255   1.450  22.477  21.488 -0.0678  0.2054 -0.0613
  511BOLB   GL412256   1.434  22.743  21.229  0.0631  0.1559 -0.0915
  511BOLB   C1C12257   1.571  22.270  21.090  0.0436 -0.2225 -0.0620
  511BOLB   C2C12258   1.741  22.317  20.641 -0.1356 -0.1661  0.0542
  511BOLB   C3C12259   2.172  22.331  20.473 -0.0036  0.2841 -0.1643
  511BOLB   C4C12260   2.352  22.504  20.156  0.1821 -0.0962 -0.0630
  511BOLB   C1D12261   1.528  22.796  20.788 -0.3026  0.0486  0.0548
  511BOLB   C2D12262   1.835  22.741  20.455 -0.1480  0.0696 -0.3413
  511BOLB   C3D12263   1.862  22.452  20.149 -0.3469 -0.0018  0.0092
  511BOLB   C4D12264   1.929  22.271  19.818  0.0551  0.0596 -0.2687
  512BOLB   NC112265  12.831  17.026  11.864 -0.1385  0.4450 -0.1357
  512BOLB   PO112266  13.066  17.250  11.708 -0.2789 -0.2858  0.1584
  512BOLB   GL112267  13.479  16.878  11.786 -0.1499 -0.2638  0.2864
  512BOLB   GL212268  13.701  17.030  11.499  0.1264  0.0279 -0.1230
  512BOLB   C1A12269  13.640  16.621  12.065 -0.2076  0.0839 -0.1105
  512BOLB   C2A12270  13.901  16.160  12.037 -0.1697 -0.4758  0.0339
  512BOLB   C3A12271  14.213  15.996  12.291 -0.1080 -0.3079  0.0652
  512BOLB   C4A12272  14.436  16.019  12.619  0.3524 -0.1242  0.0413
  512BOLB   C1B12273  14.043  16.770  11.365 -0.1514  0.3310 -0.0544
  512BOLB   C2B12274  14.388  16.654  11.446 -0.1256  0.1472 -0.3036
  512BOLB   C3B12275  14.521  16.439  11.750  0.0260  0.1680  0.0359
  512BOLB   C4B12276  14.583  16.243  12.109 -0.3334 -0.1134  0.4187
  512BOLB   NC212277  16.558  15.355  13.591 -0.2395 -0.1881  0.2986
  512BOLB   PO212278  16.282  15.673  13.792 -0.1084  0.1981  0.1313
  512BOLB   GL312279  15.985  15.542  13.781  0.2030 -0.0074  0.0863
  512BOLB   GL412280  15.849  15.825  13.596  0.1463  0.3267  0.0556
  512BOLB   C1C12281  15.560  15.416  13.724  0.1864  0.3323 -0.2251
  512BOLB   C2C12282  15.195  15.436  13.403  0.3998 -0.1490 -0.1083
  512BOLB   C3C12283  14.910  15.707  13.208 -0.4859  0.0460  0.0583
  512BOLB   C4C12284  14.685  16.008  12.928  0.2228  0.1784  0.0319
  512BOLB   C1D12285  15.547  15.920  13.426 -0.1055  0.1563 -0.1983
  512BOLB   C2D12286  15.352  15.704  13.020  0.0382 -0.0374 -0.1589
  512BOLB   C3D12287  15.196  15.280  12.831 -0.2419  0.0319  0.3403
  512BOLB   C4D12288  15.531  14.924  12.908 -0.3314  0.1081 -0.0815
  513BOLB   NC112289  13.271  21.659  15.513 -0.0273 -0.0780 -0.0355
  513BOLB   PO112290  13.412  21.866  15.233  0.0976  0.1477 -0.3040
  513BOLB   GL112291  13.777  21.907  15.425  0.1009  0.0765 -0.0353
  513BOLB   GL212292  13.905  22.122  15.303 -0.0008 -0.2900  0.1813
  513BOLB   C1A12293  14.193  21.714  15.441 -0.0602  0.2600 -0.0281
  513BOLB   C2A12294  14.577  21.484  15.310  0.1590  0.1685  0.0504
  513BOLB   C3A12295  15.045  21.370  15.426  0.1311 -0.1014  0.0345
  513BOLB   C4A12296  15.416  21.241  15.509  0.2109 -0.3273  0.4484
  513BOLB   C1B12297  14.268  22.220  15.674  0.3957 -0.2420 -0.2181
  513BOLB   C2B12298  14.541  22.408  15.975 -0.1067  0.2153  0.1555
  513BOLB   C3B12299  14.810  22.179  16.312 -0.0834 -0.4244 -0.0782
  513BOLB   C4B12300  14.922  21.843  16.599 -0.1208 -0.0286  0.0674
  513BOLB   NC212301  17.443  20.156  15.852 -0.0402  0.0063 -0.4871
  513BOLB   PO212302  17.158  20.369  16.166 -0.0253 -0.1925  0.0237
  513BOLB   GL312303  17.005  20.256  15.892  0.1914  0.0906  0.1298
  513BOLB   GL412304  17.148  20.477  15.612 -0.1393 -0.1070  0.0059
  513BOLB   C1C12305  16.662  20.399  15.669  0.2465  0.1164  0.0790
  513BOLB   C2C12306  16.370  20.665  15.552 -0.0272 -0.0850 -0.2186
  513BOLB   C3C12307  16.124  20.810  15.344  0.0528  0.0955 -0.1445
  513BOLB   C4C12308  15.755  21.173  15.308  0.0645  0.0836 -0.2288
  513BOLB   C1D12309  16.887  20.777  15.453 -0.1362 -0.1986  0.1455
  513BOLB   C2D12310  16.691  21.108  15.274  0.6150  0.0116 -0.0323
  513BOLB   C3D12311  16.246  21.224  15.127 -0.1210 -0.0502  0.0939
  513BOLB   C4D12312  16.062  21.675  15.137 -0.1453 -0.2534 -0.1746
  514BOLB   NC112313  37.137  24.180  11.661 -0.1241  0.0185  0.0898
  514BOLB   PO112314  37.209  24.499  11.950 -0.1280 -0.0399 -0.2915
  514BOLB   GL112315  36.807  24.632  11.696 -0.0510  0.0290 -0.1551
  514BOLB   GL212316  36.736  24.365  11.566  0.0164  0.0724 -0.0480
  514BOLB   C1A12317  36.525  24.967  11.652  0.2367  0.1904  0.1597
  514BOLB   C2A12318  36.088  25.027  11.841 -0.0528 -0.0141  0.0106
  514BOLB   C3A12319  35.789  25.328  12.121 -0.0914  0.3635 -0.0302
  514BOLB   C4A12320  35.445  25.482  12.411  0.1027  0.1518 -0.1174
  514BOLB   C1B12321  36.340  24.496  11.762  0.1138 -0.1856  0.0544
  514BOLB   C2B12322  36.003  24.541  11.589  0.0648  0.0546  0.2729
  514BOLB   C3B12323  35.674  24.199  11.476  0.2301 -0.0034  0.2062
  514BOLB   C4B12324  35.522  24.012  11.790  0.0934  0.0188 -0.0087
  514BOLB   NC212325  33.522  26.905  13.000 -0.3283 -0.3451  0.0883
  514BOLB   PO212326  33.804  26.671  13.159 -0.1158 -0.1696  0.2778
  514BOLB   GL312327  34.154  26.614  12.981 -0.2116  0.0652 -0.0353
  514BOLB   GL412328  34.112  26.299  12.735  0.3238 -0.3457 -0.1725
  514BOLB   C1C12329  34.573  26.508  12.769  0.1283  0.2226  0.1567
  514BOLB   C2C12330  34.932  26.328  12.576  0.1040  0.0277 -0.0976
  514BOLB   C3C12331  35.278  26.127  12.557  0.0163 -0.1190  0.0744
  514BOLB   C4C12332  35.407  25.742  12.662 -0.2317  0.1432  0.2225
  514BOLB   C1D12333  34.439  26.123  12.482  0.1331  0.1214 -0.3452
  514BOLB   C2D12334  34.695  25.894  12.285  0.0190  0.4160 -0.0203
  514BOLB   C3D12335  35.138  25.898  12.113 -0.0742  0.2220 -0.0613
  514BOLB   C4D12336  35.353  25.500  11.882  0.3050  0.1824 -0.0456
  515BOLB   NC112337   5.503  15.617   3.558 -0.1816 -0.1324  0.0228
  515BOLB   PO112338   5.369  15.956   3.298 -0.1230 -0.0757 -0.0730
  515BOLB   GL112339   4.961  15.711   3.169 -0.1701  0.0487  0.0451
  515BOLB   GL212340   4.716  15.806   3.189 -0.1752  0.4057  0.1543
  515BOLB   C1A12341   4.790  15.464   2.813 -0.1415  0.1701 -0.1357
  515BOLB   C2A12342   4.751  14.972   2.844  0.0099  0.1308 -0.2101
  515BOLB   C3A12343   4.664  14.511   2.763  0.2126 -0.0006  0.1764
  515BOLB   C4A12344   4.618  14.391   2.371 -0.1559  0.2367  0.0601
  515BOLB   C1B12345   4.363  15.911   2.928  0.4411  0.0502  0.1474
  515BOLB   C2B12346   4.178  15.844   2.521 -0.4007 -0.4609 -0.0334
  515BOLB   C3B12347   3.796  15.778   2.316 -0.0511 -0.4204  0.0941
  515BOLB   C4B12348   3.551  15.825   1.913  0.0581 -0.2012 -0.0545
  515BOLB   NC212349   4.763  12.781   0.035  0.2082 -0.2161  0.1966
  515BOLB   PO212350   4.637  13.170   0.277 -0.0027 -0.1659 -0.0832
  515BOLB   GL312351   4.577  13.494   0.631 -0.0876  0.0041 -0.1035
  515BOLB   GL412352   4.443  13.700   0.522  0.0236 -0.0756 -0.2473
  515BOLB   C1C12353   4.734  13.701   1.123 -0.0347 -0.0525  0.1280
  515BOLB   C2C12354   4.884  13.876   1.511 -0.0010 -0.0226 -0.0411
  515BOLB   C3C12355   5.019  14.097   1.804  0.0706 -0.2951 -0.0041
  515BOLB   C4C12356   4.818  14.173   2.041 -0.2888 -0.3782  0.3071
  515BOLB   C1D12357   4.655  14.055   0.709  0.0513  0.1416 -0.3670
  515BOLB   C2D12358   4.757  14.171   1.141 -0.2637 -0.0856 -0.1178
  515BOLB   C3D12359   4.724  14.447   1.503  0.0031 -0.0270 -0.1164
  515BOLB   C4D12360   4.690  14.625   1.858  0.3163  0.1764  0.2162
  516BOLB   NC112361   1.946  22.424   4.170  0.0854 -0.2030  0.1613
  516BOLB   PO112362   1.533  22.378   4.205 -0.1858  0.1166  0.0754
  516BOLB   GL112363   1.190  22.573   3.975 -0.0545  0.1396  0.1169
  516BOLB   GL212364   1.204  22.341   3.783 -0.0293  0.1564  0.2377
  516BOLB   C1A12365   0.820  22.775   3.922  0.1518  0.0680  0.2779
  516BOLB   C2A12366   0.432  22.749   3.791 -0.2143 -0.0524 -0.2682
  516BOLB   C3A12367   0.140  22.938   3.736 -0.0799 -0.3167  0.1797
  516BOLB   C4A12368  -0.203  23.151   3.359 -0.0301  0.1713 -0.1419
  516BOLB   C1B12369   0.936  22.543   3.493  0.0044 -0.0666  0.2734
  516BOLB   C2B12370   0.562  22.587   3.241 -0.0549  0.1378  0.0982
  516BOLB   C3B12371   0.184  22.878   3.185  0.0962 -0.0894 -0.1675
  516BOLB   C4B12372  -0.085  22.955   2.823  0.1092  0.2102  0.1196
  516BOLB   NC212373  -1.224  23.718   1.283  0.0308 -0.3440 -0.1450
  516BOLB   PO212374  -1.624  23.664   1.261  0.1280  0.2791 -0.1251
  516BOLB   GL312375  -1.494  23.707   1.689  0.1542  0.3492 -0.2360
  516BOLB   GL412376  -1.688  23.846   1.886  0.3425  0.0511 -0.4012
  516BOLB   C1C12377  -1.282  23.424   1.993 -0.1392  0.0723  0.0449
  516BOLB   C2C12378  -0.888  23.399   2.298  0.1410 -0.3007  0.0409
  516BOLB   C3C12379  -0.642  23.393   2.720  0.2292  0.3405 -0.0433
  516BOLB   C4C12380  -0.364  23.357   3.022  0.2151 -0.0813 -0.4367
  516BOLB   C1D12381  -1.553  23.912   2.300  0.2181 -0.0885  0.0185
  516BOLB   C2D12382  -1.398  23.510   2.529 -0.4067 -0.5551  0.1437
  516BOLB   C3D12383  -1.226  23.243   2.797 -0.0489 -0.2946  0.1209
  516BOLB   C4D12384  -0.858  23.173   3.103  0.0910 -0.2096  0.1669
  517BOLB   NC112385   1.846  26.772  13.677  0.2139  0.1120  0.0219
  517BOLB   PO112386   2.041  27.006  13.512  0.0282  0.0700 -0.0529
  517BOLB   GL112387   1.788  27.305  13.579  0.0163 -0.1345 -0.0343
  517BOLB   GL212388   1.755  27.202  13.852  0.1782 -0.0129  0.1574
  517BOLB   C1A12389   1.700  27.680  13.406  0.2800  0.1020  0.2580
  517BOLB   C2A12390   1.682  28.159  13.528 -0.1118  0.0470 -0.1205
  517BOLB   C3A12391   1.444  28.461  13.716 -0.1257  0.0602 -0.1041
  517BOLB   C4A12392   1.232  28.935  13.721 -0.0968 -0.3269 -0.1176
  517BOLB   C1B12393   1.417  27.523  13.850  0.1209 -0.1997 -0.0806
  517BOLB   C2B12394   1.268  27.891  13.704 -0.3530  0.0431 -0.0123
  517BOLB   C3B12395   1.210  28.058  13.301 -0.0306  0.1738  0.1358
  517BOLB   C4B12396   0.789  28.191  13.087 -0.0574 -0.2827  0.0090
  517BOLB   NC212397  -0.150  31.207  13.869 -0.1398 -0.1053  0.0457
  517BOLB   PO212398  -0.359  30.863  13.598 -0.3084 -0.0291 -0.2248
  517BOLB   GL312399  -0.109  30.507  13.579 -0.0975 -0.0909  0.0482
  517BOLB   GL412400   0.240  30.494  13.670 -0.0950  0.2001  0.0891
  517BOLB   C1C12401  -0.129  30.109  13.450  0.0906  0.2896  0.1638
  517BOLB   C2C12402   0.262  29.846  13.424  0.1339 -0.0039  0.0015
  517BOLB   C3C12403   0.708  29.507  13.392  0.0156 -0.4585  0.2988
  517BOLB   C4C12404   0.866  29.100  13.608  0.1434 -0.2099 -0.0388
  517BOLB   C1D12405   0.519  30.149  13.723  0.4215 -0.0269  0.0038
  517BOLB   C2D12406   0.855  30.029  13.589 -0.0163  0.1503 -0.0046
  517BOLB   C3D12407   1.125  29.665  13.502 -0.0682  0.4304  0.1619
  517BOLB   C4D12408   1.197  29.219  13.254  0.1607  0.0623 -0.1672
  518BOLB   NC112409   0.373  24.229  14.695  0.0257 -0.0298 -0.1907
  518BOLB   PO112410   0.314  24.062  15.110 -0.0192  0.0057  0.1682
  518BOLB   GL112411   0.067  24.092  15.395  0.0606  0.1616  0.1068
  518BOLB   GL212412  -0.253  24.163  15.425  0.0208  0.0340 -0.0208
  518BOLB   C1A12413  -0.039  24.170  15.882 -0.0294  0.0820 -0.0343
  518BOLB   C2A12414  -0.504  24.111  16.118 -0.2355 -0.5093  0.1820
  518BOLB   C3A12415  -0.803  24.002  16.441  0.2928 -0.1221  0.0847
  518BOLB   C4A12416  -1.299  24.071  16.418 -0.0532  0.2172 -0.0869
  518BOLB   C1B12417  -0.695  24.276  15.551 -0.0502  0.0985 -0.2526
  518BOLB   C2B12418  -1.057  24.544  15.602 -0.2483 -0.1425  0.1994
  518BOLB   C3B12419  -1.142  24.867  15.890  0.2360 -0.1087  0.1848
  518BOLB   C4B12420  -1.250  25.214  16.203  0.2297  0.3154  0.2063
  518BOLB   NC212421  -3.608  23.973  17.511  0.1725  0.0413  0.1637
  518BOLB   PO212422  -3.228  23.997  17.516  0.0877  0.1165  0.4639
  518BOLB   GL312423  -3.004  24.028  17.134  0.4634 -0.2172  0.1946
  518BOLB   GL412424  -3.114  24.112  16.964 -0.0324  0.2224  0.2314
  518BOLB   C1C12425  -2.624  23.749  16.895 -0.2790  0.0339 -0.1095
  518BOLB   C2C12426  -2.444  23.777  16.424 -0.3958  0.1424  0.2390
  518BOLB   C3C12427  -2.179  23.867  16.064  0.2404 -0.0908 -0.1599
  518BOLB   C4C12428  -1.675  23.851  16.131 -0.1578  0.0559  0.2183
  518BOLB   C1D12429  -2.975  24.031  16.573 -0.1991 -0.0210  0.1348
  518BOLB   C2D12430  -2.614  24.279  16.497  0.1935  0.1795 -0.3996
  518BOLB   C3D12431  -2.234  24.238  16.554 -0.1099  0.0921 -0.0271
  518BOLB   C4D12432  -1.889  24.259  16.317 -0.1836 -0.2442 -0.4002
  519BOLB   NC112433  37.132  23.549  13.342  0.0619  0.1445  0.1317
  519BOLB   PO112434  37.038  23.592  12.812  0.1103  0.0553 -0.2555
  519BOLB   GL112435  36.715  23.608  13.102  0.0997 -0.1116  0.0950
  519BOLB   GL212436  36.650  23.880  13.021 -0.4738  0.1715  0.2447
  519BOLB   C1A12437  36.461  23.284  13.456 -0.1586 -0.3033  0.0617
  519BOLB   C2A12438  36.226  23.493  13.925  0.0760  0.0148  0.2498
  519BOLB   C3A12439  35.820  23.520  14.209 -0.0056  0.3491  0.0618
  519BOLB   C4A12440  35.671  23.743  14.520 -0.1968  0.0075  0.1476
  519BOLB   C1B12441  36.225  23.802  12.902 -0.1762  0.2088 -0.0991
  519BOLB   C2B12442  35.808  23.723  12.900  0.1094  0.0033 -0.1793
  519BOLB   C3B12443  35.491  23.408  12.836  0.0854  0.1878  0.0794
  519BOLB   C4B12444  35.144  23.162  12.815 -0.0906 -0.0692  0.3972
  519BOLB   NC212445  34.767  25.456  16.539  0.1568 -0.1837 -0.1365
  519BOLB   PO212446  34.649  25.213  16.209 -0.0692  0.2498  0.2742
  519BOLB   GL312447  34.751  24.918  16.014 -0.2301 -0.1333  0.2016
  519BOLB   GL412448  34.850  24.598  16.185  0.0531 -0.1622 -0.0107
  519BOLB   C1C12449  34.898  24.666  15.657  0.3749 -0.0081  0.4193
  519BOLB   C2C12450  34.971  24.218  15.454 -0.2360 -0.1289 -0.0173
  519BOLB   C3C12451  35.203  24.154  15.123  0.2815 -0.0618 -0.3107
  519BOLB   C4C12452  35.416  23.936  14.842  0.0644 -0.0504  0.0194
  519BOLB   C1D12453  35.143  24.314  15.944 -0.2196 -0.1094  0.4585
  519BOLB   C2D12454  35.361  23.990  15.633  0.0357 -0.1541 -0.0392
  519BOLB   C3D12455  35.511  23.775  15.303 -0.1390  0.1026  0.0808
  519BOLB   C4D12456  35.757  23.543  15.142  0.1429  0.3900  0.2366
  520BOLB   NC112457  12.812  25.188   6.215 -0.2345  0.0588 -0.2982
  520BOLB   PO112458  12.788  25.527   6.492 -0.2513  0.1263  0.2431
  520BOLB   GL112459  13.098  25.720   6.124  0.0728 -0.0606 -0.1745
  520BOLB   GL212460  13.328  25.521   5.907  0.0982  0.0904 -0.0100
  520BOLB   C1A12461  13.215  26.017   5.798  0.1827 -0.0700 -0.0695
  520BOLB   C2A12462  13.485  26.222   5.450 -0.1839 -0.3242  0.4716
  520BOLB   C3A12463  13.724  26.178   5.071  0.1359 -0.2479  0.0032
  520BOLB   C4A12464  14.120  26.286   5.148  0.0070  0.2458 -0.0800
  520BOLB   C1B12465  13.692  25.283   5.697 -0.0511 -0.2152 -0.0848
  520BOLB   C2B12466  14.119  25.281   5.504  0.0608 -0.0914 -0.1778
  520BOLB   C3B12467  14.536  25.236   5.469 -0.0136 -0.2215 -0.0948
  520BOLB   C4B12468  14.955  25.260   5.349 -0.4007 -0.1842 -0.1153
  520BOLB   NC212469  15.093  27.809   4.815  0.0585  0.0882  0.1970
  520BOLB   PO212470  14.970  28.250   4.678  0.4737 -0.2742  0.0803
  520BOLB   GL312471  14.593  27.927   4.772  0.2317  0.2398  0.0110
  520BOLB   GL412472  14.331  27.869   4.845 -0.1199  0.0428 -0.1867
  520BOLB   C1C12473  14.553  27.512   4.533  0.3333  0.2367 -0.0742
  520BOLB   C2C12474  14.673  27.105   4.628 -0.0724 -0.0225  0.0242
  520BOLB   C3C12475  14.654  26.774   4.903  0.0579  0.2111 -0.1812
  520BOLB   C4C12476  14.483  26.467   5.063 -0.1120 -0.2351  0.0241
  520BOLB   C1D12477  14.362  27.433   5.003  0.0864  0.0074  0.0576
  520BOLB   C2D12478  14.277  27.023   5.030  0.0262 -0.0116 -0.1753
  520BOLB   C3D12479  14.117  26.789   5.214 -0.0450 -0.1535  0.2400
  520BOLB   C4D12480  13.819  26.563   5.441 -0.1908  0.3136  0.0553
  521BOLB   NC112481  10.294  16.936  21.091  0.2302 -0.2254  0.0374
  521BOLB   PO112482  10.467  16.539  20.983  0.2013 -0.0162  0.1711
  521BOLB   GL112483  10.543  16.795  20.634  0.2814 -0.0495  0.0431
  521BOLB   GL212484  10.387  16.641  20.451 -0.3124  0.0076  0.1292
  521BOLB   C1A12485  10.430  17.205  20.354 -0.0144  0.1000  0.0142
  521BOLB   C2A12486  10.223  17.521  20.028 -0.3381 -0.0444 -0.1026
  521BOLB   C3A12487   9.983  17.659  19.739  0.0407  0.1158 -0.4079
  521BOLB   C4A12488   9.695  17.569  19.450  0.4868 -0.2228 -0.1963
  521BOLB   C1B12489  10.237  16.767  20.077 -0.3611  0.1740 -0.1346
  521BOLB   C2B12490  10.110  17.049  19.857  0.0708  0.0171  0.0329
  521BOLB   C3B12491   9.759  17.055  19.558  0.4224 -0.2756 -0.0099
  521BOLB   C4B12492   9.588  17.064  19.125 -0.0032 -0.0313 -0.0265
  521BOLB   NC212493   8.755  18.377  17.710 -0.1285 -0.0033 -0.0585
  521BOLB   PO212494   9.129  18.617  17.614  0.0338 -0.0890 -0.0313
  521BOLB   GL312495   9.219  18.326  17.951 -0.0303 -0.0731  0.2405
  521BOLB   GL412496   9.208  18.452  18.253 -0.1760  0.2468  0.0237
  521BOLB   C1C12497   9.342  17.966  18.187 -0.2721 -0.1876 -0.1583
  521BOLB   C2C12498   9.393  17.701  18.493 -0.0929 -0.2151  0.2371
  521BOLB   C3C12499   9.158  17.525  18.797  0.0965 -0.0580  0.3265
  521BOLB   C4C12500   9.351  17.448  19.197  0.1687 -0.2593  0.2406
  521BOLB   C1D12501   8.938  18.392  18.594  0.2139  0.1220 -0.2073
  521BOLB   C2D12502   8.986  18.482  19.020  0.3038  0.2550  0.1966
  521BOLB   C3D12503   9.384  18.427  19.370 -0.0700 -0.1521 -0.0599
  521BOLB   C4D12504   9.748  18.591  19.558 -0.0623 -0.1800  0.2190
  522BOLB   NC112505  12.676  22.571   4.360  0.0599  0.1290  0.0178
  522BOLB   PO112506  12.452  22.753   4.039 -0.3333 -0.1462  0.0973
  522BOLB   GL112507  12.661  22.845   3.686 -0.1460  0.2054  0.0202
  522BOLB   GL212508  12.994  22.848   3.811 -0.1809  0.2160  0.2396
  522BOLB   C1A12509  12.876  22.909   3.316  0.1323  0.1932 -0.1168
  522BOLB   C2A12510  12.900  23.109   2.929  0.0372  0.1858  0.1369
  522BOLB   C3A12511  12.547  23.254   2.682 -0.3443  0.3539  0.2666
  522BOLB   C4A12512  12.258  23.242   2.281 -0.1037  0.0011  0.1214
  522BOLB   C1B12513  13.413  22.970   3.699 -0.0959  0.0245 -0.1311
  522BOLB   C2B12514  13.767  23.255   3.508  0.1194 -0.0197 -0.1551
  522BOLB   C3B12515  13.868  23.645   3.443  0.1678 -0.4759 -0.0088
  522BOLB   C4B12516  13.766  23.988   3.284 -0.0278 -0.0989 -0.1508
  522BOLB   NC212517  12.931  23.820  -0.169 -0.0987 -0.2484 -0.1119
  522BOLB   PO212518  13.113  24.135   0.163 -0.0216  0.1551 -0.1087
  522BOLB   GL312519  13.054  24.019   0.648 -0.0564  0.2342 -0.3795
  522BOLB   GL412520  13.473  23.993   0.702 -0.0550  0.0954 -0.1949
  522BOLB   C1C12521  13.034  23.819   1.003  0.1128 -0.2696 -0.0997
  522BOLB   C2C12522  12.785  23.561   1.266  0.1241  0.0169 -0.0439
  522BOLB   C3C12523  12.552  23.605   1.632  0.1321  0.2861 -0.2868
  522BOLB   C4C12524  12.202  23.442   1.870 -0.1704  0.4154  0.3100
  522BOLB   C1D12525  13.444  23.571   1.041 -0.3359  0.1363  0.1040
  522BOLB   C2D12526  13.247  23.339   1.346 -0.1625 -0.1203  0.0665
  522BOLB   C3D12527  12.892  23.164   1.535  0.3449  0.1284 -0.0352
  522BOLB   C4D12528  12.635  23.066   1.821  0.1317  0.0912 -0.0816
  523BOLB   NC112529  10.028  21.577   2.553 -0.0129  0.2026  0.0667
  523BOLB   PO112530   9.858  21.968   2.442  0.1816 -0.0659 -0.0560
  523BOLB   GL112531  10.042  21.994   2.094 -0.3547  0.1428 -0.1379
  523BOLB   GL212532  10.277  22.333   2.206 -0.1646 -0.0561 -0.1100
  523BOLB   C1A12533  10.189  22.091   1.699  0.1495  0.2246 -0.1225
  523BOLB   C2A12534  10.197  22.066   1.191  0.2825 -0.0675 -0.0519
  523BOLB   C3A12535  10.337  21.972   0.794  0.0022 -0.0253 -0.2801
  523BOLB   C4A12536  10.326  22.115   0.436  0.2349  0.1068  0.3521
  523BOLB   C1B12537  10.575  22.336   1.922 -0.2907 -0.0463 -0.3418
  523BOLB   C2B12538  10.632  22.194   1.546 -0.1025  0.0175  0.0284
  523BOLB   C3B12539  10.669  22.120   1.152 -0.1203 -0.2805 -0.3343
  523BOLB   C4B12540  10.761  22.164   0.678  0.0496  0.0091  0.0340
  523BOLB   NC212541  11.664  21.981  -0.989  0.0563 -0.0534 -0.1452
  523BOLB   PO212542  12.052  21.824  -0.957  0.0075 -0.0492  0.1240
  523BOLB   GL312543  11.809  21.607  -0.659 -0.2002 -0.1726  0.0039
  523BOLB   GL412544  11.985  21.609  -0.421 -0.0025  0.3592  0.0790
  523BOLB   C1C12545  11.517  21.708  -0.329  0.0147  0.0321 -0.0616
  523BOLB   C2C12546  11.216  21.687   0.100 -0.1866  0.2105 -0.0811
  523BOLB   C3C12547  10.950  21.946   0.177  0.2522  0.0974  0.0656
  523BOLB   C4C12548  10.661  22.207   0.122  0.0877 -0.1037 -0.1259
  523BOLB   C1D12549  11.908  21.404   0.039  0.1934 -0.2868 -0.4698
  523BOLB   C2D12550  11.585  21.675   0.377 -0.1205 -0.2060  0.0811
  523BOLB   C3D12551  11.192  21.862   0.585 -0.2140  0.0954 -0.0769
  523BOLB   C4D12552  11.175  21.882   0.964  0.1223  0.1058 -0.1467
  524BOLB   NC112553  12.556  21.776   4.398  0.1622 -0.1274  0.0891
  524BOLB   PO112554  12.939  21.822   4.303 -0.4178 -0.1543  0.2540
  524BOLB   GL112555  13.247  22.027   4.048  0.5199  0.5902  0.1657
  524BOLB   GL212556  13.216  21.923   3.715 -0.1880 -0.0839  0.2357
  524BOLB   C1A12557  13.655  22.017   3.950  0.3959 -0.0756  0.2479
  524BOLB   C2A12558  13.889  22.261   3.605  0.2181 -0.1054  0.0018
  524BOLB   C3A12559  14.265  22.281   3.454  0.2129 -0.2031  0.0054
  524BOLB   C4A12560  14.639  22.284   3.240  0.1909  0.2123 -0.1512
  524BOLB   C1B12561  13.555  21.809   3.460  0.0966 -0.1096  0.5465
  524BOLB   C2B12562  13.949  21.796   3.221 -0.2455  0.1204  0.3178
  524BOLB   C3B12563  14.311  21.439   3.271 -0.3042 -0.4642 -0.0231
  524BOLB   C4B12564  14.410  21.323   3.681 -0.0080  0.0218  0.2268
  524BOLB   NC212565  15.237  21.868   0.790 -0.0442 -0.0062  0.1238
  524BOLB   PO212566  14.741  21.899   0.682  0.2592  0.0234  0.2050
  524BOLB   GL312567  14.865  21.808   1.128  0.1424  0.2588  0.1069
  524BOLB   GL412568  15.156  21.492   1.145 -0.1163  0.1928  0.1238
  524BOLB   C1C12569  14.819  21.980   1.584  0.1854 -0.1583 -0.1309
  524BOLB   C2C12570  14.674  22.090   1.952 -0.0340  0.1676 -0.1912
  524BOLB   C3C12571  14.732  22.327   2.329  0.2280  0.1734  0.1116
  524BOLB   C4C12572  14.676  22.388   2.805 -0.1901  0.1297  0.1626
  524BOLB   C1D12573  14.701  21.385   1.375  0.1356 -0.1101  0.3102
  524BOLB   C2D12574  14.140  21.333   1.327 -0.2246 -0.2817 -0.0794
  524BOLB   C3D12575  13.746  21.496   1.379  0.1070 -0.0871  0.3041
  524BOLB   C4D12576  13.305  21.562   1.568  0.0847  0.0813  0.1767
  525BOLB   NC112577   5.556  28.649   9.666  0.2081  0.1106  0.1045
  525BOLB   PO112578   5.348  28.789  10.057  0.1099 -0.2378 -0.0357
  525BOLB   GL112579   5.495  29.151   9.907 -0.0500  0.1439  0.3681
  525BOLB   GL212580   5.695  29.283   9.984 -0.0390  0.0105 -0.0853
  525BOLB   C1A12581   5.258  29.485   9.798 -0.1228  0.1710  0.2266
  525BOLB   C2A12582   5.219  29.874   9.766 -0.1176 -0.0394 -0.0736
  525BOLB   C3A12583   4.884  30.114   9.934  0.3154  0.4393 -0.1765
  525BOLB   C4A12584   4.580  30.507   9.897  0.2700  0.0878  0.0281
  525BOLB   C1B12585   5.615  29.670  10.146 -0.0860  0.1516  0.2416
  525BOLB   C2B12586   5.815  29.983  10.281  0.0119 -0.2401 -0.1723
  525BOLB   C3B12587   6.175  30.247  10.385  0.1652  0.0672  0.2827
  525BOLB   C4B12588   6.077  30.589  10.594  0.0905  0.1899  0.0262
  525BOLB   NC212589   4.702  32.885   9.144 -0.2428 -0.0393  0.0000
  525BOLB   PO212590   4.335  32.983   9.229  0.1741 -0.2460  0.2203
  525BOLB   GL312591   4.371  32.622   9.468 -0.2061  0.2131  0.1250
  525BOLB   GL412592   4.200  32.524   9.717 -0.3104 -0.0237  0.1045
  525BOLB   C1C12593   4.505  32.242   9.359  0.1552  0.2153  0.1494
  525BOLB   C2C12594   4.401  31.848   9.536 -0.1090  0.3060 -0.1709
  525BOLB   C3C12595   4.349  31.407   9.762 -0.1755 -0.1162  0.0357
  525BOLB   C4C12596   4.592  30.977   9.908  0.1598 -0.0073  0.1623
  525BOLB   C1D12597   3.996  32.137   9.651 -0.0236 -0.3639 -0.0974
  525BOLB   C2D12598   3.938  31.700   9.651 -0.3367 -0.2481 -0.0473
  525BOLB   C3D12599   3.563  31.440   9.568  0.3492 -0.0442  0.0785
  525BOLB   C4D12600   3.722  31.048   9.404  0.1908 -0.1846 -0.0505
  526BOLB   NC112601  12.206  20.002  15.673 -0.0440  0.1215  0.2057
  526BOLB   PO112602  12.640  20.065  15.520 -0.2250 -0.0371 -0.0108
  526BOLB   GL112603  13.011  19.778  15.781  0.1670  0.2639 -0.2247
  526BOLB   GL212604  13.002  19.468  15.787  0.2001  0.0575 -0.2436
  526BOLB   C1A12605  13.433  19.653  15.937 -0.0085  0.1235 -0.2344
  526BOLB   C2A12606  13.846  19.692  16.145  0.1792  0.2593  0.0782
  526BOLB   C3A12607  14.113  19.476  16.419  0.2343  0.0403  0.1272
  526BOLB   C4A12608  14.518  19.330  16.352 -0.2290  0.1448 -0.2138
  526BOLB   C1B12609  13.401  19.135  15.783  0.2897 -0.2821  0.2067
  526BOLB   C2B12610  13.820  19.144  16.116  0.0414  0.0969  0.3702
  526BOLB   C3B12611  14.195  19.265  15.968  0.4127  0.0234  0.0790
  526BOLB   C4B12612  14.514  19.490  15.838  0.0265 -0.1344 -0.6387
  526BOLB   NC212613  16.120  18.535  16.880 -0.0699  0.0257 -0.0029
  526BOLB   PO212614  16.128  18.544  17.280  0.0618 -0.0908 -0.1025
  526BOLB   GL312615  16.026  19.001  17.141  0.2782  0.1546 -0.1348
  526BOLB   GL412616  15.946  19.008  16.835 -0.1229 -0.3102 -0.0319
  526BOLB   C1C12617  15.713  19.262  17.191  0.0387  0.0750 -0.1454
  526BOLB   C2C12618  15.516  19.691  16.972 -0.3057 -0.0958 -0.2970
  526BOLB   C3C12619  15.323  19.585  16.567  0.0555  0.2700 -0.1020
  526BOLB   C4C12620  14.936  19.345  16.415 -0.0361 -0.2233 -0.0017
  526BOLB   C1D12621  15.635  19.128  16.548  0.5989 -0.2349  0.2326
  526BOLB   C2D12622  15.309  19.039  16.237 -0.1610  0.0611  0.0801
  526BOLB   C3D12623  14.907  18.891  16.129 -0.2086 -0.1585  0.0606
  526BOLB   C4D12624  14.621  19.022  15.915  0.2435  0.1603  0.3119
  527BOLB   NC112625  14.647  22.416  11.643 -0.1852 -0.1775  0.1341
  527BOLB   PO112626  14.868  21.985  11.762  0.0745  0.3803  0.2707
  527BOLB   GL112627  15.310  22.102  11.698 -0.3440 -0.0061 -0.1362
  527BOLB   GL212628  15.313  22.032  12.055 -0.1345  0.0850  0.4775
  527BOLB   C1A12629  15.610  21.896  11.731  0.0740 -0.3076  0.2295
  527BOLB   C2A12630  16.010  21.753  11.801  0.0098 -0.1558 -0.1474
  527BOLB   C3A12631  16.390  21.554  11.728 -0.1260  0.1645 -0.1713
  527BOLB   C4A12632  16.863  21.470  11.833  0.1765 -0.2671  0.0596
  527BOLB   C1B12633  15.716  22.098  12.268  0.0706  0.1001  0.2593
  527BOLB   C2B12634  15.846  22.237  12.799  0.0648  0.0032 -0.0301
  527BOLB   C3B12635  15.923  22.244  13.145 -0.3554 -0.3284  0.0120
  527BOLB   C4B12636  16.153  22.064  13.463 -0.1945  0.0052 -0.0354
  527BOLB   NC212637  19.011  20.273  12.344 -0.0838  0.1417 -0.0746
  527BOLB   PO212638  19.014  20.723  12.435  0.3362 -0.3002 -0.1352
  527BOLB   GL312639  18.583  20.557  12.327  0.3349 -0.1366  0.2162
  527BOLB   GL412640  18.534  20.198  12.373  0.0997  0.0130 -0.1982
  527BOLB   C1C12641  18.231  20.766  12.549  0.1246 -0.2155 -0.1665
  527BOLB   C2C12642  17.874  20.816  12.530  0.3541  0.0112  0.0411
  527BOLB   C3C12643  17.497  21.047  12.410 -0.0612  0.1211 -0.0228
  527BOLB   C4C12644  17.170  21.318  12.107 -0.0853  0.0393 -0.3122
  527BOLB   C1D12645  18.023  20.326  12.174 -0.3912  0.0967 -0.0979
  527BOLB   C2D12646  17.865  20.317  11.770  0.1228  0.0931  0.0440
  527BOLB   C3D12647  17.613  20.605  11.513  0.2086 -0.1367 -0.2643
  527BOLB   C4D12648  17.440  20.862  11.207  0.0451  0.2871 -0.2061
  528BOLB   NC112649   4.317  26.906  15.942  0.6091  0.1685  0.0311
  528BOLB   PO112650   4.551  27.146  16.071  0.1239  0.0260  0.1739
  528BOLB   GL112651   4.562  27.526  16.153 -0.0270  0.0722 -0.0796
  528BOLB   GL212652   4.696  27.694  15.983 -0.0933 -0.0874  0.0792
  528BOLB   C1A12653   4.191  27.724  16.329  0.1318  0.0467  0.0536
  528BOLB   C2A12654   4.160  28.132  16.491 -0.1342  0.2636  0.1488
  528BOLB   C3A12655   4.378  28.481  16.744  0.1535  0.0868  0.2513
  528BOLB   C4A12656   4.370  28.578  17.074 -0.2180  0.1077  0.3129
  528BOLB   C1B12657   4.653  28.022  16.314  0.1283 -0.1587  0.1748
  528BOLB   C2B12658   4.835  28.449  16.524  0.3865  0.1151 -0.3210
  528BOLB   C3B12659   5.065  28.689  16.765  0.1927 -0.1292  0.1391
  528BOLB   C4B12660   5.263  28.990  16.822 -0.0085 -0.0461  0.3161
  528BOLB   NC212661   2.755  29.571  19.087  0.0159 -0.1405  0.0573
  528BOLB   PO212662   3.105  29.303  19.035 -0.1009 -0.3137  0.1965
  528BOLB   GL312663   3.151  28.978  18.663  0.0456 -0.0710  0.2177
  528BOLB   GL412664   3.215  28.617  18.826 -0.0766 -0.0701  0.0244
  528BOLB   C1C12665   3.366  28.783  18.314  0.0841  0.2125  0.0323
  528BOLB   C2C12666   3.537  28.630  18.032  0.0048 -0.1608 -0.0753
  528BOLB   C3C12667   3.841  28.375  17.853 -0.0620  0.1707  0.0247
  528BOLB   C4C12668   4.131  28.496  17.476 -0.0853  0.0751 -0.0391
  528BOLB   C1D12669   3.272  28.288  18.524  0.1852  0.0169 -0.0928
  528BOLB   C2D12670   3.464  28.059  18.138  0.1123  0.2047  0.1192
  528BOLB   C3D12671   3.515  27.882  17.928 -0.0168  0.4376  0.5027
  528BOLB   C4D12672   3.216  27.657  17.736 -0.0027 -0.0963 -0.0348
  529BOLB   NC112673  10.576  23.741   4.368  0.0276 -0.0504  0.1588
  529BOLB   PO112674  10.359  23.978   4.072 -0.1473  0.0758  0.0092
  529BOLB   GL112675  10.530  24.171   3.655  0.3328 -0.0177 -0.2086
  529BOLB   GL212676  10.802  24.142   3.523  0.0282 -0.4126 -0.0554
  529BOLB   C1A12677  10.438  24.242   3.192  0.2582  0.1784  0.1450
  529BOLB   C2A12678  10.708  24.227   2.812 -0.0307  0.0960  0.0505
  529BOLB   C3A12679  11.030  24.497   2.601  0.2241  0.1574 -0.1515
  529BOLB   C4A12680  11.308  24.840   2.593  0.1915  0.1278  0.1528
  529BOLB   C1B12681  11.006  24.423   3.295 -0.1803  0.2098  0.2299
  529BOLB   C2B12682  11.168  24.676   3.012  0.2313 -0.0884 -0.0848
  529BOLB   C3B12683  11.152  25.036   3.021  0.0616  0.1216  0.0764
  529BOLB   C4B12684  11.220  25.424   3.284 -0.3863 -0.1590  0.0605
  529BOLB   NC212685  13.202  26.644   2.274  0.2145  0.0033 -0.2007
  529BOLB   PO212686  13.069  26.204   2.141 -0.2476 -0.1272  0.0861
  529BOLB   GL312687  12.749  25.948   2.186  0.2926  0.1353 -0.0656
  529BOLB   GL412688  12.868  25.807   2.388 -0.4213 -0.1524  0.1131
  529BOLB   C1C12689  12.325  25.758   2.222 -0.4369 -0.0817 -0.1001
  529BOLB   C2C12690  12.154  25.478   2.313 -0.0008 -0.0589  0.0422
  529BOLB   C3C12691  12.001  25.083   2.440  0.2197 -0.1378  0.1108
  529BOLB   C4C12692  11.651  25.047   2.619 -0.1209  0.3095  0.0095
  529BOLB   C1D12693  12.990  25.602   2.774 -0.2001  0.2239  0.1824
  529BOLB   C2D12694  13.131  25.205   2.814 -0.0433 -0.0714 -0.0301
  529BOLB   C3D12695  13.388  24.874   2.686  0.3576 -0.0090  0.3157
  529BOLB   C4D12696  13.876  24.699   2.739 -0.3312 -0.0090 -0.1017
  530BOLB   NC112697   7.272  17.382   2.668 -0.1606  0.1894 -0.3086
  530BOLB   PO112698   7.484  16.966   2.844 -0.2892 -0.1261 -0.0338
  530BOLB   GL112699   7.394  16.644   2.502 -0.3959 -0.2566  0.0592
  530BOLB   GL212700   7.505  16.763   2.319 -0.2326 -0.1617  0.2849
  530BOLB   C1A12701   7.216  16.425   2.124 -0.0944  0.2235 -0.2403
  530BOLB   C2A12702   7.080  16.349   1.730 -0.1084  0.1894  0.3725
  530BOLB   C3A12703   7.057  16.206   1.334 -0.2161  0.1693  0.3135
  530BOLB   C4A12704   6.852  16.002   1.158  0.2062  0.1803 -0.0312
  530BOLB   C1B12705   7.711  16.522   1.957  0.1953 -0.1821  0.2291
  530BOLB   C2B12706   7.839  16.480   1.618 -0.4590  0.0659  0.2765
  530BOLB   C3B12707   7.997  16.620   1.297 -0.0308 -0.1080  0.2160
  530BOLB   C4B12708   8.316  16.580   0.982  0.0462  0.0619  0.0121
  530BOLB   NC212709   5.365  15.731  -0.899 -0.3613  0.2630 -0.3711
  530BOLB   PO212710   5.601  15.369  -0.964  0.0556  0.1575 -0.0145
  530BOLB   GL312711   5.866  15.405  -0.598 -0.2359 -0.3082 -0.2842
  530BOLB   GL412712   5.758  15.491  -0.351  0.1695 -0.1074  0.1558
  530BOLB   C1C12713   6.317  15.436  -0.351  0.2658 -0.1504 -0.0680
  530BOLB   C2C12714   6.648  15.593  -0.037  0.0856 -0.0048 -0.0246
  530BOLB   C3C12715   6.580  15.674   0.446 -0.0848  0.1696 -0.0620
  530BOLB   C4C12716   6.744  15.821   0.832 -0.0059 -0.2734  0.1419
  530BOLB   C1D12717   5.813  15.731   0.011  0.1948  0.1199  0.2191
  530BOLB   C2D12718   5.844  16.035   0.196  0.0264  0.0510 -0.0924
  530BOLB   C3D12719   6.081  16.530   0.337 -0.1707 -0.0045 -0.1061
  530BOLB   C4D12720   6.222  16.731   0.668  0.0553 -0.1995  0.0372
  531BOLB   NC112721  13.258  25.509   8.874  0.2890  0.0513 -0.2996
  531BOLB   PO112722  12.873  25.785   8.791  0.1098 -0.1234  0.2346
  531BOLB   GL112723  13.237  26.013   8.630  0.3416 -0.1262 -0.2851
  531BOLB   GL212724  13.520  25.808   8.603 -0.2299  0.1535 -0.1926
  531BOLB   C1A12725  13.525  26.384   8.456 -0.1452 -0.1291  0.0845
  531BOLB   C2A12726  13.836  26.633   8.281  0.1743 -0.0955 -0.1494
  531BOLB   C3A12727  14.212  26.909   8.349  0.0405 -0.0367 -0.1365
  531BOLB   C4A12728  14.632  26.872   8.102 -0.0118 -0.0684 -0.3668
  531BOLB   C1B12729  13.937  26.044   8.564 -0.2306  0.3979 -0.0124
  531BOLB   C2B12730  14.337  26.441   8.551 -0.1108 -0.0604  0.1419
  531BOLB   C3B12731  14.697  26.658   8.553 -0.1645 -0.0261 -0.1476
  531BOLB   C4B12732  15.052  26.971   8.603 -0.0953  0.5494  0.0275
  531BOLB   NC212733  16.238  29.019   7.451  0.1503  0.1815  0.1437
  531BOLB   PO212734  16.302  28.647   7.495 -0.1586  0.0495 -0.2860
  531BOLB   GL312735  16.079  28.251   7.642  0.0775  0.1403  0.0341
  531BOLB   GL412736  16.043  28.197   8.005 -0.0108  0.2544 -0.0169
  531BOLB   C1C12737  15.724  27.924   7.697  0.3876 -0.0181  0.0810
  531BOLB   C2C12738  15.313  27.700   7.702 -0.3143  0.1675 -0.1085
  531BOLB   C3C12739  15.061  27.298   7.858  0.1481 -0.0770  0.0567
  531BOLB   C4C12740  14.963  26.945   8.049 -0.1579 -0.0973 -0.1608
  531BOLB   C1D12741  15.935  27.867   8.161  0.1020  0.1526 -0.2751
  531BOLB   C2D12742  15.774  27.506   8.008 -0.0411 -0.1927  0.1889
  531BOLB   C3D12743  15.540  27.181   7.730  0.1268  0.0540 -0.3210
  531BOLB   C4D12744  15.608  26.876   7.439  0.0672  0.0488 -0.5338
  532BOLB   NC112745   2.889  21.526   3.213  0.1098 -0.0949 -0.2806
  532BOLB   PO112746   2.729  21.376   2.964  0.0278 -0.1212  0.0479
  532BOLB   GL112747   2.521  21.716   2.609  0.1616  0.0849  0.0416
  532BOLB   GL212748   2.422  21.955   2.722  0.1975 -0.2255  0.1454
  532BOLB   C1A12749   2.424  21.701   2.104 -0.0291 -0.0448  0.0953
  532BOLB   C2A12750   2.634  21.583   1.687 -0.1363 -0.1213  0.0910
  532BOLB   C3A12751   2.570  21.869   1.226 -0.0585  0.2298 -0.0048
  532BOLB   C4A12752   2.689  22.266   0.993  0.0933  0.0545 -0.2650
  532BOLB   C1B12753   2.440  22.262   2.336 -0.3522 -0.1125  0.0477
  532BOLB   C2B12754   2.216  22.265   1.946 -0.2700 -0.3218 -0.1180
  532BOLB   C3B12755   1.954  22.335   1.552 -0.0549  0.5416 -0.0396
  532BOLB   C4B12756   2.060  22.612   1.269 -0.1665 -0.0455 -0.0967
  532BOLB   NC212757   2.908  22.829  -1.026 -0.3134 -0.0033  0.1666
  532BOLB   PO212758   2.829  22.499  -1.351  0.0006  0.1689  0.0937
  532BOLB   GL312759   2.850  22.368  -0.912 -0.0208  0.2033 -0.1003
  532BOLB   GL412760   2.743  22.057  -0.944  0.2238 -0.1994  0.0269
  532BOLB   C1C12761   3.205  22.379  -0.671 -0.1303  0.2126 -0.1120
  532BOLB   C2C12762   3.099  22.276  -0.258 -0.0418  0.2516  0.0167
  532BOLB   C3C12763   2.869  22.340   0.036  0.0767  0.1213  0.2698
  532BOLB   C4C12764   2.872  22.352   0.497  0.0597 -0.2005  0.1042
  532BOLB   C1D12765   3.064  21.865  -0.588 -0.0356  0.0109 -0.2197
  532BOLB   C2D12766   3.477  21.843  -0.457  0.0708  0.5707 -0.2172
  532BOLB   C3D12767   3.802  21.922  -0.642 -0.0948  0.0666 -0.4776
  532BOLB   C4D12768   4.203  21.749  -0.667  0.0815  0.4040  0.1033
  533BOLB   NC112769  11.562  17.062   5.520  0.2788  0.0436  0.0624
  533BOLB   PO112770  11.458  16.670   5.118 -0.2624 -0.0848 -0.1514
  533BOLB   GL112771  11.491  16.502   4.714 -0.0165 -0.2257  0.4674
  533BOLB   GL212772  11.376  16.166   4.607  0.1547  0.0949  0.3341
  533BOLB   C1A12773  11.882  16.252   4.668 -0.2790 -0.3159 -0.3322
  533BOLB   C2A12774  12.163  16.173   4.438  0.1764 -0.2463 -0.3049
  533BOLB   C3A12775  12.431  16.014   4.124 -0.2073 -0.0564  0.3327
  533BOLB   C4A12776  12.712  16.001   3.923 -0.1637 -0.1193 -0.0152
  533BOLB   C1B12777  11.622  16.105   4.301  0.0707  0.2782  0.0055
  533BOLB   C2B12778  11.960  15.904   4.061 -0.3103  0.0009  0.2481
  533BOLB   C3B12779  12.234  15.791   3.702 -0.2761 -0.2504  0.0498
  533BOLB   C4B12780  12.621  15.635   3.569  0.2035 -0.2335 -0.0128
  533BOLB   NC212781  14.279  14.147   2.539  0.0505 -0.1351 -0.1741
  533BOLB   PO212782  14.155  14.587   2.350 -0.0072  0.1363 -0.0580
  533BOLB   GL312783  13.981  14.919   2.594 -0.1119 -0.1111  0.1577
  533BOLB   GL412784  13.876  15.199   2.467  0.0648  0.0081 -0.2552
  533BOLB   C1C12785  13.742  15.023   2.862 -0.0112  0.2662  0.0318
  533BOLB   C2C12786  13.469  15.232   3.254  0.1590 -0.1249 -0.3390
  533BOLB   C3C12787  13.182  15.528   3.556  0.0582 -0.0816  0.1383
  533BOLB   C4C12788  13.034  15.846   3.758 -0.0114 -0.1342 -0.2866
  533BOLB   C1D12789  13.665  15.456   2.643 -0.1605  0.1554  0.0614
  533BOLB   C2D12790  13.271  15.363   2.869 -0.2262  0.0337 -0.0791
  533BOLB   C3D12791  12.895  15.501   3.042  0.1367  0.3142 -0.2588
  533BOLB   C4D12792  12.518  15.582   2.821 -0.2669  0.3652 -0.0276
  534BOLB   NC112793   9.102  28.762  11.240  0.2189  0.0217  0.0146
  534BOLB   PO112794   8.696  28.695  11.384 -0.0806 -0.2043  0.1250
  534BOLB   GL112795   8.748  29.179  11.259 -0.0986  0.2179  0.0985
  534BOLB   GL212796   8.463  29.296  11.228  0.3549 -0.2410  0.0079
  534BOLB   C1A12797   9.016  29.495  11.183  0.1873  0.1778 -0.0796
  534BOLB   C2A12798   9.135  29.895  10.943 -0.0950  0.0085  0.3248
  534BOLB   C3A12799   9.074  30.301  10.724  0.1696  0.0829 -0.1615
  534BOLB   C4A12800   9.021  30.702  10.731 -0.0708 -0.0345  0.3004
  534BOLB   C1B12801   8.476  29.787  11.265  0.0868  0.1666  0.1791
  534BOLB   C2B12802   8.664  30.141  11.082  0.2190  0.2416  0.1962
  534BOLB   C3B12803   8.685  30.550  11.010 -0.0111  0.3572 -0.0726
  534BOLB   C4B12804   8.649  31.002  10.924  0.0255 -0.0775  0.1817
  534BOLB   NC212805   9.355  32.950  10.598  0.0242 -0.1976 -0.3223
  534BOLB   PO212806   8.897  32.873  10.491  0.0482  0.1240  0.3165
  534BOLB   GL312807   8.908  32.662  10.863  0.3871 -0.0452 -0.1036
  534BOLB   GL412808   8.519  32.575  11.073 -0.2053 -0.1885 -0.1831
  534BOLB   C1C12809   8.980  32.289  11.102  0.1507 -0.0766  0.2751
  534BOLB   C2C12810   8.899  31.860  10.924  0.2017  0.0233 -0.3573
  534BOLB   C3C12811   9.061  31.441  10.837  0.3008 -0.2981  0.0775
  534BOLB   C4C12812   9.042  31.160  10.619  0.0786 -0.1632  0.1148
  534BOLB   C1D12813   8.579  32.256  10.760  0.0520 -0.0613 -0.3187
  534BOLB   C2D12814   8.765  32.143  10.382  0.1665  0.2754 -0.2631
  534BOLB   C3D12815   8.860  31.952  10.000  0.3231  0.1892  0.1051
  534BOLB   C4D12816   8.581  31.817   9.665  0.0052  0.0972  0.4469
  535BOLB   NC112817   2.976  27.201  13.343  0.1136 -0.1533  0.0852
  535BOLB   PO112818   3.076  27.320  13.757 -0.2355  0.0320 -0.0010
  535BOLB   GL112819   2.859  27.722  13.685 -0.1052 -0.2704  0.1763
  535BOLB   GL212820   2.775  27.665  13.362  0.0870 -0.1035  0.0718
  535BOLB   C1A12821   2.525  27.776  13.989 -0.0986  0.0002  0.3712
  535BOLB   C2A12822   2.208  27.934  14.312 -0.1635  0.0722  0.2138
  535BOLB   C3A12823   1.907  28.258  14.501 -0.0830 -0.1208  0.0761
  535BOLB   C4A12824   1.728  28.640  14.368 -0.0964  0.0006 -0.3603
  535BOLB   C1B12825   2.585  28.057  13.333 -0.1890  0.0318 -0.0382
  535BOLB   C2B12826   2.485  28.448  13.562  0.2067  0.1479  0.5053
  535BOLB   C3B12827   2.168  28.726  13.758 -0.2771 -0.4413  0.1741
  535BOLB   C4B12828   1.941  28.481  13.884 -0.0273 -0.0919  0.0625
  535BOLB   NC212829   0.002  29.957  15.285 -0.0753  0.1456  0.1719
  535BOLB   PO212830   0.153  30.150  14.934 -0.0916  0.3867 -0.1016
  535BOLB   GL312831   0.500  29.928  14.883  0.0417 -0.2021 -0.1713
  535BOLB   GL412832   0.738  29.999  14.732 -0.0741 -0.1102  0.2202
  535BOLB   C1C12833   0.673  29.522  14.948  0.1566 -0.0960  0.2279
  535BOLB   C2C12834   0.831  29.261  14.707  0.1367 -0.1920  0.2658
  535BOLB   C3C12835   1.193  29.105  14.451 -0.0581 -0.1506  0.2508
  535BOLB   C4C12836   1.365  28.754  14.256 -0.1434  0.0750 -0.1025
  535BOLB   C1D12837   0.722  29.718  14.407  0.0173  0.1592  0.0713
  535BOLB   C2D12838   0.837  29.324  14.214  0.2514 -0.0851  0.2713
  535BOLB   C3D12839   0.869  29.007  14.090 -0.1521 -0.0619  0.5228
  535BOLB   C4D12840   0.853  28.718  13.946  0.1059  0.0117 -0.4102
  536BOLB   NC112841   9.780  27.901  11.908  0.2800 -0.2147  0.2113
  536BOLB   PO112842   9.716  28.243  11.522 -0.0925 -0.0314 -0.1927
  536BOLB   GL112843   9.829  28.516  11.904  0.0147  0.2365  0.1430
  536BOLB   GL212844   9.924  28.802  11.806 -0.0974  0.2155  0.0887
  536BOLB   C1A12845   9.900  28.705  12.298 -0.1518  0.0693  0.1889
  536BOLB   C2A12846  10.212  29.037  12.433 -0.0333  0.5055 -0.0702
  536BOLB   C3A12847  10.386  29.302  12.760 -0.1833 -0.2363 -0.1582
  536BOLB   C4A12848  10.470  29.720  12.911 -0.1144  0.0913  0.2084
  536BOLB   C1B12849  10.151  29.216  11.773  0.1164  0.2286  0.1432
  536BOLB   C2B12850  10.590  29.398  11.692 -0.1737  0.2162  0.0927
  536BOLB   C3B12851  10.906  29.634  11.901  0.1919 -0.0755  0.0880
  536BOLB   C4B12852  11.183  29.912  12.170  0.0969  0.3312  0.2386
  536BOLB   NC212853  11.348  32.234  13.288 -0.1825 -0.0983 -0.0353
  536BOLB   PO212854  11.315  31.848  13.592 -0.1657  0.0759  0.2374
  536BOLB   GL312855  11.458  31.374  13.624 -0.0520  0.4179  0.4152
  536BOLB   GL412856  11.762  31.164  13.597 -0.0147 -0.0352  0.1064
  536BOLB   C1C12857  11.428  31.084  13.289 -0.1118 -0.0180 -0.1036
  536BOLB   C2C12858  11.142  30.852  12.905 -0.3009 -0.0448  0.1147
  536BOLB   C3C12859  10.944  30.522  12.715 -0.0085 -0.0249 -0.0193
  536BOLB   C4C12860  10.659  30.083  12.780  0.0577  0.0177  0.1301
  536BOLB   C1D12861  11.596  30.781  13.775 -0.2403  0.0170 -0.1491
  536BOLB   C2D12862  11.329  30.407  13.776  0.0528 -0.2618 -0.0361
  536BOLB   C3D12863  10.900  30.344  13.767  0.0105 -0.0298  0.0847
  536BOLB   C4D12864  10.401  30.562  13.726 -0.1431 -0.0919  0.0205
  537BOLB   NC112865  14.750  18.713   9.547  0.2484  0.0669  0.0109
  537BOLB   PO112866  14.457  18.640   9.077 -0.1028  0.2531  0.1511
  537BOLB   GL112867  14.810  18.398   9.040 -0.1586  0.2043  0.1725
  537BOLB   GL212868  14.959  18.175   8.688  0.0968 -0.0571  0.2191
  537BOLB   C1A12869  15.256  18.138   9.064 -0.1134 -0.0356  0.0135
  537BOLB   C2A12870  15.514  17.736   9.198 -0.2011 -0.1118 -0.0344
  537BOLB   C3A12871  15.905  17.458   9.084  0.0697 -0.0636 -0.0548
  537BOLB   C4A12872  16.209  17.305   8.948  0.2333  0.0886 -0.2518
  537BOLB   C1B12873  15.291  17.949   8.485 -0.1348 -0.0190  0.0690
  537BOLB   C2B12874  15.620  17.620   8.656  0.0976  0.0482  0.2914
  537BOLB   C3B12875  15.871  17.455   8.379  0.1732 -0.0987 -0.0900
  537BOLB   C4B12876  16.064  17.084   8.116  0.3371 -0.0038 -0.0299
  537BOLB   NC212877  18.229  16.267   9.094  0.2937 -0.1345  0.1121
  537BOLB   PO212878  18.280  15.996   9.493  0.0787 -0.1333 -0.1774
  537BOLB   GL312879  17.869  16.220   9.460  0.0228  0.2130  0.0628
  537BOLB   GL412880  17.908  16.465   9.644 -0.4439 -0.0167 -0.2578
  537BOLB   C1C12881  17.511  16.512   9.339 -0.1721  0.2697  0.1161
  537BOLB   C2C12882  17.364  16.915   9.158 -0.1507  0.1658  0.1203
  537BOLB   C3C12883  16.975  17.222   9.146 -0.1838 -0.0178  0.0700
  537BOLB   C4C12884  16.550  17.234   8.924 -0.2599 -0.1679 -0.0062
  537BOLB   C1D12885  17.360  16.488   9.804 -0.0791  0.1629 -0.2875
  537BOLB   C2D12886  16.859  16.508   9.752  0.0010 -0.4371 -0.3298
  537BOLB   C3D12887  16.470  16.397   9.570 -0.0291  0.0853  0.0565
  537BOLB   C4D12888  16.062  16.202   9.473  0.0689  0.0362 -0.0999
  538BOLB   NC112889   6.854  23.968  18.238 -0.0296  0.0216  0.0878
  538BOLB   PO112890   7.219  24.387  18.318  0.2613  0.1228  0.1285
  538BOLB   GL112891   7.174  24.292  18.704 -0.1040 -0.0171  0.2119
  538BOLB   GL212892   6.947  24.111  18.775 -0.0186  0.0176 -0.1214
  538BOLB   C1A12893   7.327  24.456  19.053  0.2762  0.0143  0.0260
  538BOLB   C2A12894   7.430  24.698  19.419 -0.0419  0.3006 -0.0621
  538BOLB   C3A12895   7.613  24.796  19.814  0.0160  0.0319 -0.4960
  538BOLB   C4A12896   7.942  25.013  19.989 -0.1273  0.1694 -0.1923
  538BOLB   C1B12897   6.996  24.039  19.190 -0.4781 -0.0770  0.0168
  538BOLB   C2B12898   7.108  24.280  19.498  0.2218  0.0008  0.1626
  538BOLB   C3B12899   7.211  24.334  19.919 -0.3001  0.0325 -0.0861
  538BOLB   C4B12900   7.314  24.343  20.415 -0.0300  0.1219  0.1370
  538BOLB   NC212901   8.954  25.842  21.806 -0.0747 -0.1173  0.0811
  538BOLB   PO212902   9.270  26.136  21.551 -0.1187 -0.0014  0.1348
  538BOLB   GL312903   9.132  25.782  21.264 -0.3003 -0.3356 -0.2122
  538BOLB   GL412904   9.474  25.680  21.151  0.2330  0.3052 -0.1324
  538BOLB   C1C12905   8.914  25.662  20.910  0.0015  0.1225  0.0928
  538BOLB   C2C12906   8.808  25.250  20.727  0.0780  0.1140  0.2321
  538BOLB   C3C12907   8.532  25.019  20.457  0.0647  0.2114 -0.0297
  538BOLB   C4C12908   8.029  25.115  20.327  0.1033  0.1314  0.2040
  538BOLB   C1D12909   9.528  26.149  20.948  0.0793  0.0501 -0.2588
  538BOLB   C2D12910   9.405  26.571  20.690 -0.0349  0.4767 -0.2116
  538BOLB   C3D12911   9.436  26.727  20.242 -0.0586 -0.0011 -0.2733
  538BOLB   C4D12912   9.423  27.101  20.057 -0.0768  0.1608  0.0105
  539BOLB   NC112913   3.952  18.685  17.123  0.1523 -0.1927 -0.0778
  539BOLB   PO112914   3.987  18.540  17.523 -0.2115 -0.1173  0.0534
  539BOLB   GL112915   4.033  18.331  17.926  0.0663  0.1374 -0.2741
  539BOLB   GL212916   3.887  17.986  17.901  0.1384  0.0521  0.0973
  539BOLB   C1A12917   4.105  18.237  18.303  0.1777  0.2343  0.0275
  539BOLB   C2A12918   4.040  18.022  18.669 -0.1641  0.0893  0.0718
  539BOLB   C3A12919   3.682  18.055  18.963  0.2892  0.0207  0.1059
  539BOLB   C4A12920   3.414  17.741  19.110 -0.1212  0.2091 -0.0646
  539BOLB   C1B12921   3.762  17.787  18.310 -0.0118 -0.1488  0.2060
  539BOLB   C2B12922   3.524  17.628  18.615 -0.0116 -0.1564 -0.2352
  539BOLB   C3B12923   3.312  17.259  18.755  0.0586 -0.1456  0.2155
  539BOLB   C4B12924   3.203  16.846  18.730  0.0631  0.0922  0.3872
  539BOLB   NC212925   2.721  17.683  21.817  0.0207  0.1092 -0.3616
  539BOLB   PO212926   2.912  17.503  21.395 -0.2145  0.3757  0.1207
  539BOLB   GL312927   3.175  17.679  21.018  0.2747  0.2022  0.2673
  539BOLB   GL412928   3.506  17.676  21.163 -0.2340 -0.2682 -0.1143
  539BOLB   C1C12929   3.349  17.691  20.586  0.7212  0.0520  0.0252
  539BOLB   C2C12930   3.198  17.566  20.288 -0.2904 -0.0601  0.0721
  539BOLB   C3C12931   3.054  17.721  19.900 -0.1471 -0.2163  0.0388
  539BOLB   C4C12932   3.145  17.800  19.437  0.0476 -0.2913  0.2234
  539BOLB   C1D12933   3.850  17.565  20.793  0.0350  0.0265 -0.4809
  539BOLB   C2D12934   3.793  17.617  20.343 -0.0464  0.1329  0.1730
  539BOLB   C3D12935   3.513  17.874  20.043  0.0108  0.1564 -0.0596
  539BOLB   C4D12936   3.635  17.988  19.515 -0.1735  0.2698 -0.1360
  540BOLB   NC112937   7.703  28.230  13.268 -0.3222 -0.2841 -0.2870
  540BOLB   PO112938   7.781  28.661  13.375 -0.1867 -0.1231 -0.0011
  540BOLB   GL112939   8.127  28.976  13.302  0.0675  0.0397 -0.1403
  540BOLB   GL212940   8.440  28.864  13.211  0.2022  0.0519  0.1416
  540BOLB   C1A12941   8.388  29.376  13.455  0.1815 -0.0081 -0.1184
  540BOLB   C2A12942   8.607  29.642  13.743 -0.0533 -0.0597 -0.0608
  540BOLB   C3A12943   9.011  29.656  13.899 -0.1949  0.1252  0.3470
  540BOLB   C4A12944   9.224  29.976  13.861 -0.2421  0.0893 -0.0412
  540BOLB   C1B12945   8.820  29.124  13.343  0.2186 -0.0755  0.2302
  540BOLB   C2B12946   9.054  29.460  13.460  0.2161  0.0261 -0.3030
  540BOLB   C3B12947   9.365  29.731  13.427  0.3057  0.2889  0.0815
  540BOLB   C4B12948   9.408  30.191  13.393  0.6123 -0.2137  0.3669
  540BOLB   NC212949   8.850  32.834  13.909 -0.1286  0.1224  0.2280
  540BOLB   PO212950   8.735  32.365  13.804  0.0340  0.0787 -0.1983
  540BOLB   GL312951   8.732  31.874  13.715 -0.1769 -0.0125 -0.0181
  540BOLB   GL412952   8.394  31.860  13.664 -0.1452  0.0052  0.0129
  540BOLB   C1C12953   8.929  31.447  13.685  0.0497  0.3391  0.0068
  540BOLB   C2C12954   9.205  31.073  13.620 -0.0997 -0.3489 -0.4253
  540BOLB   C3C12955   9.408  30.736  13.726  0.3486 -0.0316 -0.2929
  540BOLB   C4C12956   9.310  30.391  13.882 -0.2156  0.0661 -0.2225
  540BOLB   C1D12957   8.434  31.404  13.487 -0.2467 -0.1706 -0.0681
  540BOLB   C2D12958   8.653  30.986  13.457 -0.1342 -0.1752  0.1566
  540BOLB   C3D12959   8.918  30.712  13.518  0.1470  0.1260 -0.2107
  540BOLB   C4D12960   9.087  30.660  13.089 -0.0152  0.2762  0.0965
  541BOLB   NC112961   1.866  23.913  16.260  0.1958  0.0476 -0.1116
  541BOLB   PO112962   1.935  23.526  16.439  0.1888 -0.0567  0.0554
  541BOLB   GL112963   1.704  23.804  16.771  0.1956 -0.1469  0.0160
  541BOLB   GL212964   1.530  24.128  16.634 -0.0751 -0.0129  0.1078
  541BOLB   C1A12965   1.567  23.939  17.119 -0.0117  0.1752 -0.1513
  541BOLB   C2A12966   1.273  24.171  17.477  0.3566  0.2346  0.2943
  541BOLB   C3A12967   1.089  24.531  17.638 -0.2214 -0.1522  0.1215
  541BOLB   C4A12968   0.756  24.472  17.948  0.1117 -0.3230 -0.2246
  541BOLB   C1B12969   1.304  24.312  16.984 -0.1314 -0.0685 -0.0782
  541BOLB   C2B12970   0.922  24.412  17.196  0.0785 -0.2488  0.0367
  541BOLB   C3B12971   0.578  24.169  16.994 -0.1800  0.0045  0.0018
  541BOLB   C4B12972   0.191  24.151  16.830 -0.0469  0.1491 -0.1759
  541BOLB   NC212973  -1.080  24.885  19.444  0.1245 -0.1503  0.1368
  541BOLB   PO212974  -1.020  25.273  19.493 -0.2016  0.2930 -0.2652
  541BOLB   GL312975  -0.689  25.169  19.312  0.0941 -0.1827  0.0488
  541BOLB   GL412976  -0.272  25.175  19.470 -0.0782  0.1829 -0.2026
  541BOLB   C1C12977  -0.492  25.245  18.960 -0.1866  0.3183  0.1444
  541BOLB   C2C12978  -0.167  25.295  18.681 -0.1895 -0.0005 -0.2274
  541BOLB   C3C12979   0.158  25.250  18.243 -0.1169 -0.1118  0.0198
  541BOLB   C4C12980   0.450  24.915  17.992  0.1000 -0.0725 -0.0420
  541BOLB   C1D12981  -0.153  24.952  19.107  0.0338 -0.1762  0.0953
  541BOLB   C2D12982  -0.473  24.778  18.781  0.1636  0.1593 -0.4142
  541BOLB   C3D12983  -0.739  24.593  18.555 -0.2886 -0.0233  0.1270
  541BOLB   C4D12984  -0.919  24.410  18.091 -0.0773  0.2957 -0.0052
  542BOLB   NC112985   5.292  17.497  17.691 -0.0832  0.0262  0.0692
  542BOLB   PO112986   5.181  17.051  17.645  0.0832  0.1760  0.0485
  542BOLB   GL112987   5.003  16.731  17.733 -0.1125  0.2039  0.0652
  542BOLB   GL212988   4.759  16.436  17.599 -0.3247  0.1129 -0.0646
  542BOLB   C1A12989   4.867  16.458  18.125  0.1672 -0.1000  0.1815
  542BOLB   C2A12990   4.932  16.259  18.527  0.1000  0.1868 -0.3143
  542BOLB   C3A12991   4.999  15.940  18.775 -0.3498 -0.1937  0.0805
  542BOLB   C4A12992   5.210  15.666  19.079  0.2670  0.0596  0.0012
  542BOLB   C1B12993   4.934  16.027  17.624 -0.1028  0.2773 -0.0981
  542BOLB   C2B12994   4.766  15.581  17.775  0.0056 -0.1875  0.4346
  542BOLB   C3B12995   4.751  15.174  17.749  0.2149  0.1543 -0.0133
  542BOLB   C4B12996   4.583  14.843  17.977 -0.4492  0.2467 -0.1820
  542BOLB   NC212997   5.196  13.477  19.266  0.1000  0.3304  0.2744
  542BOLB   PO212998   5.552  13.265  19.035 -0.3298 -0.0441 -0.0922
  542BOLB   GL312999   5.621  13.657  18.954 -0.0950  0.2627  0.0677
  542BOLB   GL413000   5.968  13.620  19.103  0.2227 -0.0148  0.0907
  542BOLB   C1C13001   5.775  14.090  19.009  0.2927 -0.0101  0.3352
  542BOLB   C2C13002   5.615  14.541  18.908 -0.0009 -0.0020 -0.3031
  542BOLB   C3C13003   5.483  14.929  18.945 -0.2972  0.0617  0.0809
  542BOLB   C4C13004   5.387  15.320  19.124 -0.0615 -0.1397 -0.2051
  542BOLB   C1D13005   6.107  13.779  18.689 -0.2450 -0.0525  0.0472
  542BOLB   C2D13006   6.088  14.129  18.390 -0.0386  0.1319 -0.3939
  542BOLB   C3D13007   6.007  14.534  18.340 -0.0957 -0.6277 -0.0028
  542BOLB   C4D13008   6.174  14.696  17.854 -0.0424  0.0046 -0.0543
  543BOLB   NC113009  12.793  20.970   3.802  0.2720  0.0676  0.1201
  543BOLB   PO113010  12.599  21.386   3.644  0.1610 -0.2367  0.2148
  543BOLB   GL113011  12.818  21.701   3.322  0.1177  0.0118  0.3365
  543BOLB   GL213012  12.916  21.561   2.927 -0.2104 -0.0386 -0.0452
  543BOLB   C1A13013  13.155  21.958   3.174  0.0915 -0.0338  0.1701
  543BOLB   C2A13014  13.423  22.193   3.118 -0.2029 -0.5476 -0.0419
  543BOLB   C3A13015  13.570  22.498   2.760  0.1143  0.2130 -0.1001
  543BOLB   C4A13016  13.675  22.863   2.740 -0.0366  0.0908 -0.0011
  543BOLB   C1B13017  13.317  21.665   2.803  0.3166 -0.1528 -0.1494
  543BOLB   C2B13018  13.604  21.948   2.719 -0.1078  0.2099 -0.6075
  543BOLB   C3B13019  13.961  22.182   2.615 -0.0636 -0.1023  0.2459
  543BOLB   C4B13020  14.128  22.428   2.952 -0.0094 -0.1582 -0.2771
  543BOLB   NC213021  15.732  24.443   2.111 -0.1415 -0.4174  0.2779
  543BOLB   PO213022  15.682  24.011   2.044  0.0196 -0.0508 -0.2218
  543BOLB   GL313023  15.350  23.897   2.298 -0.0354  0.2151 -0.1550
  543BOLB   GL413024  15.336  24.149   2.418 -0.2060  0.0409 -0.0408
  543BOLB   C1C13025  15.103  23.623   2.513 -0.0433 -0.3704  0.1492
  543BOLB   C2C13026  14.754  23.535   2.630 -0.3643 -0.1747  0.1588
  543BOLB   C3C13027  14.399  23.296   2.733  0.2451 -0.4291 -0.2165
  543BOLB   C4C13028  14.047  23.086   2.603 -0.0799  0.2582  0.1592
  543BOLB   C1D13029  15.104  24.046   2.823  0.2077  0.1052 -0.2233
  543BOLB   C2D13030  14.863  23.817   3.024 -0.0541  0.0931  0.0169
  543BOLB   C3D13031  14.497  23.639   3.133  0.2058 -0.5726  0.0768
  543BOLB   C4D13032  14.044  23.640   2.975 -0.1708  0.0305 -0.1276
  544BOLB   NC113033  12.714  24.854   6.791  0.0741 -0.1298  0.0231
  544BOLB   PO113034  12.866  25.251   6.935 -0.0336  0.2555  0.1009
  544BOLB   GL113035  13.193  25.554   6.868 -0.1045  0.0917 -0.2057
  544BOLB   GL213036  13.301  25.877   6.857  0.0475 -0.0320 -0.0621
  544BOLB   C1A13037  13.508  25.542   6.520 -0.2061  0.2905 -0.1192
  544BOLB   C2A13038  13.796  25.396   6.158 -0.3324 -0.4747  0.1210
  544BOLB   C3A13039  14.104  25.620   5.948 -0.0334  0.1269 -0.0266
  544BOLB   C4A13040  14.430  25.689   5.658  0.2735  0.1146  0.0792
  544BOLB   C1B13041  13.624  26.149   6.700 -0.0608 -0.1101  0.1191
  544BOLB   C2B13042  13.752  26.438   6.379  0.0565 -0.0405  0.0616
  544BOLB   C3B13043  13.797  26.920   6.303  0.1435 -0.1657 -0.0439
  544BOLB   C4B13044  13.857  27.446   6.360 -0.0356  0.1014 -0.1259
  544BOLB   NC213045  16.073  27.057   3.903  0.2277  0.0834  0.0133
  544BOLB   PO213046  15.643  27.010   3.984  0.0965 -0.1258  0.1736
  544BOLB   GL313047  15.424  26.936   4.403  0.0935 -0.0072 -0.5170
  544BOLB   GL413048  15.161  26.672   4.231  0.1669 -0.0083 -0.1994
  544BOLB   C1C13049  15.461  26.562   4.671 -0.0903 -0.1499 -0.3967
  544BOLB   C2C13050  15.488  26.190   4.937 -0.0430  0.0360  0.1859
  544BOLB   C3C13051  15.215  26.016   5.288  0.1273  0.0755  0.1879
  544BOLB   C4C13052  14.889  25.849   5.508 -0.0008 -0.0980 -0.2611
  544BOLB   C1D13053  14.783  26.530   4.311 -0.3394 -0.2821  0.0133
  544BOLB   C2D13054  14.412  26.203   4.201  0.0162 -0.0774 -0.0652
  544BOLB   C3D13055  13.984  26.175   4.113 -0.1025 -0.1258 -0.2565
  544BOLB   C4D13056  13.476  26.034   4.171 -0.3949 -0.4575  0.0434
  545BOLB   NC113057   3.967  27.832  13.013 -0.1796  0.0245 -0.0320
  545BOLB   PO113058   3.820  28.082  13.269 -0.2392 -0.2079 -0.0020
  545BOLB   GL113059   3.814  28.483  13.474 -0.4189  0.0534 -0.0021
  545BOLB   GL213060   3.961  28.765  13.395  0.2089 -0.2293 -0.1838
  545BOLB   C1A13061   3.688  28.836  13.812  0.3330  0.1038 -0.1042
  545BOLB   C2A13062   3.467  29.072  13.557  0.2246 -0.3756 -0.0155
  545BOLB   C3A13063   3.169  29.252  13.281  0.0925  0.2446  0.0433
  545BOLB   C4A13064   3.035  29.561  13.086 -0.0126 -0.0510  0.0154
  545BOLB   C1B13065   4.149  29.177  13.504  0.2698 -0.3434  0.1281
  545BOLB   C2B13066   3.998  29.474  13.720 -0.1010  0.1240 -0.0635
  545BOLB   C3B13067   4.001  29.907  13.856 -0.0940 -0.3553  0.4047
  545BOLB   C4B13068   3.896  30.389  13.870  0.2512 -0.2962 -0.1214
  545BOLB   NC213069   1.244  31.294  12.764  0.1002  0.0690 -0.1692
  545BOLB   PO213070   1.790  31.217  12.817  0.1171 -0.1677  0.0689
  545BOLB   GL313071   1.924  30.805  12.826  0.0623  0.1279 -0.1998
  545BOLB   GL413072   2.039  30.812  13.167  0.1706  0.0704  0.0717
  545BOLB   C1C13073   1.926  30.433  12.609  0.0331 -0.0585 -0.2904
  545BOLB   C2C13074   2.203  30.152  12.553 -0.1401 -0.1119  0.0982
  545BOLB   C3C13075   2.597  30.152  12.657  0.4977 -0.0912 -0.0825
  545BOLB   C4C13076   2.948  29.978  12.894  0.0386  0.3689  0.0548
  545BOLB   C1D13077   2.270  30.523  12.991 -0.0690  0.1067  0.1166
  545BOLB   C2D13078   2.751  30.594  12.865  0.2910 -0.0248  0.0413
  545BOLB   C3D13079   2.975  30.465  12.592 -0.3334 -0.1661 -0.0014
  545BOLB   C4D13080   3.270  30.063  12.567  0.1788  0.0231  0.4944
  546BOLB   NC113081  12.216  18.302  14.317  0.1159 -0.0397 -0.3688
  546BOLB   PO113082  12.447  18.322  14.688  0.2491  0.0747 -0.1687
  546BOLB   GL113083  12.730  18.059  14.947 -0.1585 -0.0115  0.0095
  546BOLB   GL213084  12.671  17.791  14.994 -0.0030  0.0261 -0.1076
  546BOLB   C1A13085  13.088  17.991  15.172  0.1449 -0.0020 -0.0872
  546BOLB   C2A13086  13.282  17.691  15.329  0.0695 -0.1936 -0.2252
  546BOLB   C3A13087  13.542  17.630  15.688 -0.2756 -0.2686  0.0653
  546BOLB   C4A13088  13.589  17.300  15.959 -0.0651  0.0551  0.1909
  546BOLB   C1B13089  12.657  17.403  15.194 -0.1361 -0.3208 -0.0441
  546BOLB   C2B13090  12.563  17.017  15.081 -0.3008 -0.1965  0.0403
  546BOLB   C3B13091  12.403  16.986  14.730  0.1280 -0.0661  0.0197
  546BOLB   C4B13092  12.295  16.637  14.503 -0.3312  0.0257 -0.2695
  546BOLB   NC213093  14.475  16.941  18.382  0.0224 -0.2590  0.5164
  546BOLB   PO213094  14.570  16.759  17.965 -0.1398 -0.1233 -0.4344
  546BOLB   GL313095  14.117  16.725  17.822 -0.0126  0.2482  0.1486
  546BOLB   GL413096  13.977  16.775  18.024 -0.1913 -0.2316 -0.1444
  546BOLB   C1C13097  13.953  16.959  17.532  0.1648 -0.4082  0.1914
  546BOLB   C2C13098  13.757  16.942  17.133 -0.1422  0.0153 -0.2587
  546BOLB   C3C13099  13.600  16.835  16.697 -0.3192  0.1488  0.3824
  546BOLB   C4C13100  13.535  17.054  16.318  0.0819  0.0577  0.1858
  546BOLB   C1D13101  13.805  17.222  17.942 -0.1546  0.0751  0.0502
  546BOLB   C2D13102  13.504  17.546  17.871  0.2302  0.0471  0.2738
  546BOLB   C3D13103  13.261  17.667  17.635 -0.0549 -0.2049 -0.2653
  546BOLB   C4D13104  13.151  17.880  17.375  0.3977 -0.0452  0.1148
  547BOLB   NC113105  36.299   9.018  16.594  0.2334  0.0757 -0.0886
  547BOLB   PO113106  36.462   9.440  16.747  0.0591  0.2166  0.0282
  547BOLB   GL113107  36.535   9.752  16.571 -0.4909  0.1125 -0.1859
  547BOLB   GL213108  36.809   9.754  16.561 -0.1879  0.0595 -0.0216
  547BOLB   C1A13109  36.579  10.159  16.705  0.3282  0.2132 -0.1117
  547BOLB   C2A13110  36.785  10.597  16.485  0.0813  0.0258 -0.0970
  547BOLB   C3A13111  37.041  10.986  16.439  0.1157 -0.3772  0.0747
  547BOLB   C4A13112  37.224  11.275  16.758 -0.3131  0.0499  0.0734
  547BOLB   C1B13113  37.044  10.110  16.413 -0.1071 -0.0031  0.0990
  547BOLB   C2B13114  37.113  10.342  16.213 -0.0230  0.0254 -0.0836
  547BOLB   C3B13115  37.118  10.792  15.964  0.0065 -0.0412 -0.0599
  547BOLB   C4B13116  37.003  11.220  15.926 -0.1224 -0.0549 -0.2635
  547BOLB   NC213117  37.007   9.590  18.584  0.2412  0.2687  0.1392
  547BOLB   PO213118  36.963  10.004  18.418 -0.2347  0.3712  0.1017
  547BOLB   GL313119  36.956  10.386  18.366 -0.0758  0.0845 -0.3393
  547BOLB   GL413120  36.717  10.328  18.084  0.1212  0.0136  0.2004
  547BOLB   C1C13121  36.896  10.797  18.226  0.0189 -0.4949  0.2928
  547BOLB   C2C13122  36.912  11.096  17.789  0.2968  0.0557 -0.4862
  547BOLB   C3C13123  37.193  11.283  17.549  0.1019 -0.1026 -0.1940
  547BOLB   C4C13124  37.391  11.420  17.173 -0.2061  0.1541  0.2092
  547BOLB   C1D13125  37.062  10.572  17.805  0.1699  0.0358  0.0188
  547BOLB   C2D13126  37.365  10.791  17.656 -0.1490  0.0993  0.1089
  547BOLB   C3D13127  37.662  11.053  17.482 -0.1382  0.3177  0.1647
  547BOLB   C4D13128  37.929  11.280  17.180  0.0708  0.0106  0.0592
  548BOLB   NC113129   3.272  21.315  18.301 -0.3188 -0.4093  0.3501
  548BOLB   PO113130   3.067  21.751  17.945 -0.1176 -0.0865 -0.2550
  548BOLB   GL113131   2.922  21.939  18.339  0.0940 -0.1316 -0.0659
  548BOLB   GL213132   2.986  22.334  18.536  0.3876 -0.0567  0.1030
  548BOLB   C1A13133   2.731  21.923  18.756  0.1237  0.2092  0.1752
  548BOLB   C2A13134   2.338  21.686  19.030  0.0348 -0.3533 -0.1783
  548BOLB   C3A13135   1.934  21.684  19.021 -0.0767 -0.1435 -0.1601
  548BOLB   C4A13136   1.510  21.667  19.298  0.0883  0.1587 -0.3253
  548BOLB   C1B13137   2.913  22.334  18.980 -0.1581  0.0431 -0.0844
  548BOLB   C2B13138   2.811  22.125  19.300 -0.0163 -0.1571  0.2410
  548BOLB   C3B13139   2.443  21.842  19.508 -0.0685 -0.1934  0.0799
  548BOLB   C4B13140   1.967  21.918  19.457 -0.0719  0.0497 -0.0009
  548BOLB   NC213141   0.163  20.568  21.061  0.0145 -0.0149 -0.2699
  548BOLB   PO213142   0.302  20.912  21.085 -0.3321 -0.2195  0.2191
  548BOLB   GL313143   0.417  20.784  20.619 -0.2716 -0.3397 -0.0647
  548BOLB   GL413144   0.514  20.428  20.521  0.1881 -0.2309 -0.2219
  548BOLB   C1C13145   0.425  21.101  20.292  0.0150 -0.5607  0.0167
  548BOLB   C2C13146   0.655  21.464  20.173  0.1015 -0.0111 -0.0082
  548BOLB   C3C13147   0.906  21.542  19.762 -0.1587 -0.1412 -0.0550
  548BOLB   C4C13148   1.156  21.553  19.432  0.0137  0.1326  0.2016
  548BOLB   C1D13149   0.867  20.805  20.242 -0.1320 -0.1913  0.0102
  548BOLB   C2D13150   0.910  21.009  19.897  0.0492  0.2268 -0.0286
  548BOLB   C3D13151   1.072  21.062  19.555  0.3138 -0.2255 -0.0451
  548BOLB   C4D13152   1.417  21.185  19.191  0.0416  0.2619 -0.2129
  549BOLB   NC113153   7.024  27.344   5.430 -0.0157 -0.2020 -0.0722
  549BOLB   PO113154   6.626  27.428   5.355  0.0371 -0.0801 -0.1479
  549BOLB   GL113155   6.700  27.761   5.304  0.2714 -0.1897  0.0920
  549BOLB   GL213156   6.871  27.879   5.598  0.1707 -0.2639 -0.1913
  549BOLB   C1A13157   6.559  28.107   5.054  0.0761 -0.2654  0.0212
  549BOLB   C2A13158   6.401  28.495   4.802  0.0167  0.2261 -0.2996
  549BOLB   C3A13159   6.482  28.903   4.695  0.0831 -0.0218 -0.4365
  549BOLB   C4A13160   6.676  29.479   4.764 -0.2980 -0.2226  0.2492
  549BOLB   C1B13161   6.960  28.203   5.370 -0.1613 -0.0059 -0.1147
  549BOLB   C2B13162   6.926  28.420   5.011 -0.0260 -0.2602  0.2390
  549BOLB   C3B13163   6.966  28.624   4.603 -0.0387 -0.0326  0.1358
  549BOLB   C4B13164   7.024  28.963   4.384  0.2540 -0.3276 -0.2282
  549BOLB   NC213165   6.868  31.974   4.493  0.0972 -0.2619  0.0441
  549BOLB   PO213166   7.180  31.786   4.578 -0.1177  0.1104  0.1798
  549BOLB   GL313167   7.327  31.341   4.681 -0.3135 -0.1386 -0.1849
  549BOLB   GL413168   7.572  31.173   4.538 -0.1527  0.2428 -0.0500
  549BOLB   C1C13169   7.028  30.963   4.556  0.1503 -0.0782 -0.1920
  549BOLB   C2C13170   6.794  30.637   4.514 -0.1836 -0.1322 -0.0218
  549BOLB   C3C13171   6.626  30.238   4.600 -0.0687 -0.0341 -0.0304
  549BOLB   C4C13172   6.702  29.819   4.838 -0.2027  0.2005  0.1410
  549BOLB   C1D13173   7.836  31.205   4.766 -0.1203 -0.2060 -0.0185
  549BOLB   C2D13174   7.973  31.192   5.214  0.0775 -0.0589  0.1912
  549BOLB   C3D13175   8.067  31.048   5.682 -0.2874  0.0759  0.0492
  549BOLB   C4D13176   8.288  31.191   6.049  0.0983 -0.1161  0.1113
  550BOLB   NC113177  12.142  14.439  18.611 -0.0137 -0.1478  0.1268
  550BOLB   PO113178  11.795  14.453  18.764  0.0421  0.0400 -0.1035
  550BOLB   GL113179  11.655  14.679  18.424  0.2274  0.1502 -0.0303
  550BOLB   GL213180  11.356  14.510  18.367 -0.2575 -0.1419  0.4763
  550BOLB   C1A13181  11.473  14.777  17.987  0.1281  0.0330 -0.2612
  550BOLB   C2A13182  11.224  14.960  17.761 -0.0152  0.3052  0.1835
  550BOLB   C3A13183  11.300  15.231  17.399  0.0304 -0.0102  0.1160
  550BOLB   C4A13184  11.149  15.483  17.155 -0.0209  0.0108  0.4703
  550BOLB   C1B13185  10.993  14.727  18.372  0.1961  0.0748  0.0370
  550BOLB   C2B13186  10.721  15.009  18.083 -0.2432  0.0220 -0.3287
  550BOLB   C3B13187  10.741  15.416  18.223  0.2081  0.2211 -0.3124
  550BOLB   C4B13188  10.595  15.821  18.455  0.1648  0.0290  0.0815
  550BOLB   NC213189  10.661  17.659  15.595  0.1626 -0.2896 -0.0295
  550BOLB   PO213190  10.578  17.532  16.085 -0.1354 -0.0008  0.1316
  550BOLB   GL313191  10.642  17.314  16.506 -0.3122  0.3592  0.0778
  550BOLB   GL413192  11.023  17.315  16.675  0.1169  0.0143  0.0652
  550BOLB   C1C13193  10.548  17.020  16.863 -0.1152 -0.0640 -0.0691
  550BOLB   C2C13194  10.561  16.629  17.109 -0.2699  0.1266  0.0546
  550BOLB   C3C13195  10.936  16.351  17.057 -0.0793  0.2930 -0.0148
  550BOLB   C4C13196  11.121  15.894  16.943  0.0391 -0.2801 -0.1656
  550BOLB   C1D13197  11.377  17.164  16.829  0.1712  0.2761 -0.0615
  550BOLB   C2D13198  11.695  17.116  17.261 -0.1321 -0.1452  0.0329
  550BOLB   C3D13199  11.802  17.076  17.642 -0.0141 -0.3408  0.3949
  550BOLB   C4D13200  11.997  16.976  18.000  0.1969 -0.0998  0.1196
  551BOLB   NC113201   4.948  15.636  15.932 -0.0482 -0.0329  0.1199
  551BOLB   PO113202   4.987  15.585  16.349  0.0929 -0.1452  0.0876
  551BOLB   GL113203   4.908  15.204  16.338 -0.0134 -0.0273  0.0220
  551BOLB   GL213204   4.611  15.257  16.409 -0.0728  0.0998 -0.2389
  551BOLB   C1A13205   4.645  14.792  16.256  0.0101  0.1359 -0.0056
  551BOLB   C2A13206   4.490  14.351  16.432 -0.4856 -0.5077 -0.0930
  551BOLB   C3A13207   4.451  13.981  16.450 -0.0881  0.2031 -0.3650
  551BOLB   C4A13208   4.698  13.704  16.757  0.0549 -0.0765  0.0983
  551BOLB   C1B13209   4.552  15.182  16.835  0.0516  0.0993  0.2162
  551BOLB   C2B13210   4.314  15.024  17.206 -0.0147  0.1512  0.2845
  551BOLB   C3B13211   4.241  14.924  17.607  0.4141  0.1173 -0.3028
  551BOLB   C4B13212   4.097  14.765  17.972  0.1667  0.0813  0.2727
  551BOLB   NC213213   4.727  12.208  18.958  0.0248 -0.0485  0.1777
  551BOLB   PO213214   4.886  12.637  18.941  0.1197  0.1211 -0.0307
  551BOLB   GL313215   4.919  12.868  18.549 -0.0607  0.1520  0.0502
  551BOLB   GL413216   4.685  13.150  18.564  0.0099 -0.3264  0.0772
  551BOLB   C1C13217   5.094  12.906  18.016  0.0892 -0.0568  0.0058
  551BOLB   C2C13218   4.921  13.109  17.724 -0.2657 -0.1907  0.3019
  551BOLB   C3C13219   4.681  13.147  17.407 -0.0617 -0.0396 -0.1031
  551BOLB   C4C13220   4.624  13.309  16.929  0.2021  0.1162 -0.1802
  551BOLB   C1D13221   4.446  12.974  18.132 -0.3369 -0.0578 -0.3970
  551BOLB   C2D13222   4.438  13.154  17.844  0.2780 -0.1349  0.0316
  551BOLB   C3D13223   4.278  13.478  17.505  0.1524 -0.2462 -0.0991
  551BOLB   C4D13224   4.221  13.711  16.981 -0.1934  0.2921 -0.2585
  552BOLB   NC113225   4.017  23.397  17.591  0.1369  0.1585 -0.4093
  552BOLB   PO113226   3.752  23.472  18.006 -0.4131 -0.0029  0.0719
  552BOLB   GL113227   3.642  23.674  18.447 -0.1274  0.1308  0.0123
  552BOLB   GL213228   3.838  23.718  18.765  0.4351 -0.0093  0.0838
  552BOLB   C1A13229   3.274  23.808  18.636 -0.2635 -0.0787 -0.2582
  552BOLB   C2A13230   3.013  23.994  18.849 -0.4773 -0.1015  0.3308
  552BOLB   C3A13231   2.762  24.341  19.052  0.3699  0.0183  0.1632
  552BOLB   C4A13232   2.627  24.731  19.151  0.4138  0.2120 -0.1569
  552BOLB   C1B13233   4.003  23.493  19.204 -0.2468  0.1430 -0.0254
  552BOLB   C2B13234   3.769  23.391  19.616 -0.0248 -0.1353  0.1329
  552BOLB   C3B13235   3.533  23.416  19.932 -0.1272  0.3537 -0.2036
  552BOLB   C4B13236   3.216  23.473  20.178 -0.0651  0.0565  0.0195
  552BOLB   NC213237   1.358  25.442  21.265 -0.1279  0.0537  0.2303
  552BOLB   PO213238   1.438  25.011  21.082  0.1436 -0.1536  0.0506
  552BOLB   GL313239   1.555  24.901  20.737  0.1799 -0.1017  0.0587
  552BOLB   GL413240   1.494  25.019  20.414  0.0630 -0.0627  0.0363
  552BOLB   C1C13241   1.692  24.603  20.405 -0.0966  0.4904  0.2617
  552BOLB   C2C13242   1.758  24.636  20.054  0.1973  0.0694  0.1399
  552BOLB   C3C13243   2.035  24.596  19.654 -0.0978  0.1122 -0.1043
  552BOLB   C4C13244   2.188  24.808  19.319  0.0377 -0.1514  0.0191
  552BOLB   C1D13245   1.262  24.741  20.025  0.0228 -0.1393 -0.1155
  552BOLB   C2D13246   0.917  24.518  19.990  0.1945  0.0926  0.1001
  552BOLB   C3D13247   0.939  24.102  19.795 -0.1620 -0.2051 -0.0348
  552BOLB   C4D13248   1.023  23.716  19.698 -0.1300  0.0481 -0.0261
  553BOLB   NC113249   2.278  27.172   9.121  0.2378 -0.0870  0.1778
  553BOLB   PO113250   2.126  27.199   8.704  0.0475 -0.1087 -0.2035
  553BOLB   GL113251   2.118  27.613   8.494 -0.0301  0.4407  0.0020
  553BOLB   GL213252   1.770  27.665   8.439 -0.0063  0.0451 -0.2233
  553BOLB   C1A13253   2.083  27.970   8.123  0.2123 -0.1545 -0.2794
  553BOLB   C2A13254   2.027  28.388   8.325  0.0894  0.0723 -0.3508
  553BOLB   C3A13255   1.818  28.863   8.358 -0.0674 -0.1084 -0.1996
  553BOLB   C4A13256   1.817  29.260   8.062 -0.3670 -0.3209  0.0391
  553BOLB   C1B13257   1.596  28.063   8.284  0.1392  0.2065 -0.0180
  553BOLB   C2B13258   1.310  28.293   8.566 -0.1601 -0.1326 -0.0716
  553BOLB   C3B13259   1.333  28.688   8.687 -0.0747 -0.2537  0.3449
  553BOLB   C4B13260   1.429  29.208   8.501  0.3321  0.1178  0.0496
  553BOLB   NC213261   0.764  31.043   6.888 -0.2329 -0.0159 -0.1254
  553BOLB   PO213262   0.615  31.058   7.292 -0.1827  0.1992  0.2145
  553BOLB   GL313263   0.654  30.695   7.615 -0.1912  0.2071  0.1340
  553BOLB   GL413264   0.416  30.457   7.842 -0.1601  0.2999 -0.0395
  553BOLB   C1C13265   0.917  30.390   7.760  0.2861  0.1474 -0.2033
  553BOLB   C2C13266   1.275  30.318   7.879  0.2409  0.1908  0.1105
  553BOLB   C3C13267   1.554  30.079   8.029 -0.3159 -0.4187  0.2835
  553BOLB   C4C13268   1.712  29.668   8.036 -0.3121 -0.1036  0.1092
  553BOLB   C1D13269   0.264  30.336   8.177 -0.1255  0.1489  0.0561
  553BOLB   C2D13270   0.372  30.126   8.502 -0.2356  0.2410  0.0173
  553BOLB   C3D13271   0.728  29.978   8.697 -0.3031 -0.1973 -0.0933
  553BOLB   C4D13272   0.981  29.771   8.942 -0.2012 -0.0283  0.6170
  554BOLB   NC113273   6.441  19.164  18.559  0.1970 -0.1711  0.2111
  554BOLB   PO113274   6.907  19.208  18.194 -0.0981  0.1974  0.2354
  554BOLB   GL113275   6.939  18.970  18.552  0.0449  0.0513 -0.3156
  554BOLB   GL213276   6.922  19.144  18.809 -0.0004  0.0554  0.3588
  554BOLB   C1A13277   6.888  18.659  18.783 -0.1229  0.2820  0.0386
  554BOLB   C2A13278   7.041  18.480  19.081  0.0618  0.1962 -0.1117
  554BOLB   C3A13279   7.190  18.271  19.487  0.1275 -0.0571 -0.0333
  554BOLB   C4A13280   7.327  17.981  19.674  0.0059  0.1311  0.1510
  554BOLB   C1B13281   6.707  18.959  19.267 -0.2656 -0.3280  0.1540
  554BOLB   C2B13282   6.713  18.593  19.525 -0.1154 -0.1567 -0.1004
  554BOLB   C3B13283   6.801  18.345  19.852 -0.0579  0.3350 -0.0401
  554BOLB   C4B13284   6.899  18.017  20.085  0.1627  0.0250  0.0811
  554BOLB   NC213285   6.644  17.479  22.542  0.0025 -0.1065 -0.3069
  554BOLB   PO213286   6.707  17.359  22.101  0.0697  0.5110 -0.0629
  554BOLB   GL313287   6.839  17.402  21.684 -0.1995  0.1920 -0.1033
  554BOLB   GL413288   6.852  17.680  21.471  0.3027 -0.1114 -0.2440
  554BOLB   C1C13289   6.908  17.356  21.134  0.0105  0.0785  0.1603
  554BOLB   C2C13290   6.993  17.442  20.703  0.0889 -0.0142  0.1244
  554BOLB   C3C13291   7.124  17.380  20.259 -0.0109  0.2069  0.0472
  554BOLB   C4C13292   7.277  17.660  19.848 -0.0652 -0.0634 -0.5329
  554BOLB   C1D13293   6.746  17.801  20.992 -0.1067 -0.2405 -0.1891
  554BOLB   C2D13294   6.570  18.009  20.658  0.2678  0.0339  0.0953
  554BOLB   C3D13295   6.492  18.168  20.271  0.1941 -0.0194  0.0127
  554BOLB   C4D13296   6.238  18.429  20.228  0.0567  0.0657 -0.1499
  555BOLB   NC113297   7.830  19.905   2.623 -0.2766  0.0760  0.1222
  555BOLB   PO113298   8.276  19.873   2.515  0.0711  0.0728  0.0675
  555BOLB   GL113299   8.385  19.717   2.112  0.0391 -0.0386 -0.1935
  555BOLB   GL213300   8.643  19.492   2.218 -0.0909 -0.1406 -0.2156
  555BOLB   C1A13301   8.195  19.504   1.801  0.2261 -0.1813  0.1015
  555BOLB   C2A13302   8.367  19.237   1.556 -0.2173 -0.0473 -0.0814
  555BOLB   C3A13303   8.341  19.423   1.138 -0.2252 -0.0664  0.2548
  555BOLB   C4A13304   8.336  19.449   0.731 -0.0540 -0.1067 -0.2877
  555BOLB   C1B13305   8.669  19.498   1.803 -0.0546  0.1481  0.3616
  555BOLB   C2B13306   8.872  19.558   1.343 -0.0348  0.3023  0.0303
  555BOLB   C3B13307   8.986  19.530   0.918  0.4894 -0.1070  0.0900
  555BOLB   C4B13308   8.895  19.882   0.680 -0.0117  0.1151  0.2264
  555BOLB   NC213309   8.835  18.698  -1.869 -0.2475  0.1912 -0.2158
  555BOLB   PO213310   8.944  19.018  -1.606 -0.1698 -0.0263  0.0163
  555BOLB   GL313311   8.849  19.333  -1.341  0.0830 -0.0398 -0.3127
  555BOLB   GL413312   9.025  19.622  -1.363  0.1429 -0.2395 -0.0499
  555BOLB   C1C13313   8.764  19.583  -0.959  0.3867  0.0628 -0.0071
  555BOLB   C2C13314   8.778  19.633  -0.552  0.1183  0.0855 -0.0844
  555BOLB   C3C13315   8.697  19.619  -0.176  0.4008  0.0379 -0.0429
  555BOLB   C4C13316   8.520  19.604   0.267  0.1940  0.5497  0.2190
  555BOLB   C1D13317   9.159  19.909  -0.912  0.2027 -0.2384  0.3842
  555BOLB   C2D13318   9.101  20.002  -0.488 -0.0119  0.1367 -0.3101
  555BOLB   C3D13319   9.250  19.835  -0.053  0.3869  0.3134  0.0844
  555BOLB   C4D13320   9.037  19.527   0.188 -0.0298  0.0286  0.0228
  556BOLB   NC113321  12.901  26.274  11.191 -0.4412  0.2906  0.0899
  556BOLB   PO113322  12.925  26.569  10.794 -0.4537 -0.1520  0.0926
  556BOLB   GL113323  13.340  26.626  10.934 -0.1594  0.1214  0.1171
  556BOLB   GL213324  13.338  26.430  11.304  0.0500 -0.0114 -0.0456
  556BOLB   C1A13325  13.747  26.768  11.059  0.1302 -0.1578  0.2358
  556BOLB   C2A13326  13.949  27.098  11.230  0.0261 -0.2571 -0.0259
  556BOLB   C3A13327  14.131  27.492  11.270  0.2099 -0.3035 -0.0988
  556BOLB   C4A13328  14.141  27.749  11.755  0.0327  0.2216 -0.3005
  556BOLB   C1B13329  13.513  26.601  11.537 -0.2752  0.0983  0.0210
  556BOLB   C2B13330  13.717  26.939  11.770 -0.0252 -0.2161  0.0163
  556BOLB   C3B13331  13.768  27.344  11.652 -0.0332 -0.4447 -0.2437
  556BOLB   C4B13332  13.664  27.728  11.331  0.2033 -0.1424 -0.1812
  556BOLB   NC213333  15.879  28.724  13.410  0.0994 -0.0177  0.0396
  556BOLB   PO213334  15.728  28.812  12.898 -0.2111  0.0723 -0.4131
  556BOLB   GL313335  15.452  28.728  13.083  0.2408  0.0476  0.0688
  556BOLB   GL413336  15.375  28.533  13.302 -0.2113 -0.1682  0.2746
  556BOLB   C1C13337  15.226  28.398  12.866  0.1394  0.0999 -0.1512
  556BOLB   C2C13338  14.929  28.277  12.559 -0.0519 -0.0854  0.2429
  556BOLB   C3C13339  14.582  28.401  12.273  0.2440 -0.0020 -0.0497
  556BOLB   C4C13340  14.292  28.195  11.973  0.0863  0.1461  0.0431
  556BOLB   C1D13341  15.512  28.122  13.159 -0.3167 -0.2320 -0.3849
  556BOLB   C2D13342  15.277  27.839  12.898 -0.0193  0.0635  0.1848
  556BOLB   C3D13343  15.295  27.523  12.624  0.0644 -0.2190  0.0475
  556BOLB   C4D13344  15.031  27.341  12.279 -0.1507  0.1285  0.1206
  557BOLB   NC113345  15.170  20.295  10.426  0.1221  0.0768  0.2563
  557BOLB   PO113346  15.226  20.348   9.997 -0.0089 -0.0968  0.2559
  557BOLB   GL113347  15.633  20.234  10.072  0.0202  0.2833 -0.2239
  557BOLB   GL213348  15.795  20.133   9.878 -0.0069  0.3858 -0.2107
  557BOLB   C1A13349  15.823  20.094  10.408 -0.0348  0.3935  0.1569
  557BOLB   C2A13350  16.302  20.021  10.537  0.1487  0.1930  0.2499
  557BOLB   C3A13351  16.806  20.016  10.402  0.3236 -0.4187 -0.0918
  557BOLB   C4A13352  17.084  20.122  10.671  0.1496 -0.0945 -0.3407
  557BOLB   C1B13353  16.196  20.254  10.102  0.2671 -0.0167 -0.0236
  557BOLB   C2B13354  16.606  20.351   9.954 -0.3862  0.1808  0.0359
  557BOLB   C3B13355  16.774  20.514   9.625  0.1256  0.1743  0.0935
  557BOLB   C4B13356  16.915  20.857   9.574 -0.0977  0.2202 -0.3626
  557BOLB   NC213357  19.131  19.893  10.127  0.0239  0.3060  0.0862
  557BOLB   PO213358  18.964  19.461  10.276  0.1930  0.0872 -0.1505
  557BOLB   GL313359  18.687  19.566  10.144  0.1013 -0.0806 -0.0994
  557BOLB   GL413360  18.601  19.883  10.149  0.0376 -0.0953  0.1004
  557BOLB   C1C13361  18.251  19.534  10.214 -0.1066  0.0573 -0.0234
  557BOLB   C2C13362  18.127  19.551  10.670 -0.0148 -0.0791  0.0882
  557BOLB   C3C13363  17.806  19.856  10.862 -0.3686  0.1897  0.4626
  557BOLB   C4C13364  17.486  19.927  10.776  0.3447  0.1528 -0.2051
  557BOLB   C1D13365  18.198  19.976  10.393 -0.2410  0.0728  0.0378
  557BOLB   C2D13366  17.868  19.861  10.307 -0.1968 -0.0016  0.4270
  557BOLB   C3D13367  17.430  20.059  10.263 -0.1653 -0.1360 -0.3198
  557BOLB   C4D13368  17.085  20.228  10.041 -0.3966 -0.2764 -0.0851
  558BOLB   NC113369   7.305  13.943   6.706  0.0687 -0.2337  0.1901
  558BOLB   PO113370   7.237  13.513   6.863 -0.0637  0.0394 -0.1786
  558BOLB   GL113371   7.350  13.167   6.615 -0.0130  0.1840  0.0251
  558BOLB   GL213372   7.474  13.148   6.342  0.1829 -0.0301 -0.0714
  558BOLB   C1A13373   7.453  12.738   6.689 -0.1402  0.0727  0.1023
  558BOLB   C2A13374   7.508  12.131   6.675 -0.0143  0.1422 -0.1038
  558BOLB   C3A13375   7.476  11.833   6.502 -0.0577  0.0570  0.1634
  558BOLB   C4A13376   7.639  11.383   6.589  0.0338 -0.0717  0.0314
  558BOLB   C1B13377   7.781  13.116   5.979  0.0772 -0.0374  0.1134
  558BOLB   C2B13378   7.892  12.853   5.632 -0.2301  0.1499  0.0547
  558BOLB   C3B13379   7.906  12.486   5.711 -0.3687  0.1638  0.0279
  558BOLB   C4B13380   7.743  12.246   5.426  0.2517 -0.2887 -0.0060
  558BOLB   NC213381   8.462   9.104   6.481  0.0992 -0.2617 -0.0985
  558BOLB   PO213382   8.280   9.271   6.100 -0.0177  0.1605  0.1445
  558BOLB   GL313383   8.224   9.639   6.354  0.4270  0.0270 -0.1603
  558BOLB   GL413384   7.884   9.630   6.266 -0.1401  0.1253  0.1284
  558BOLB   C1C13385   8.328   9.970   6.624  0.1481 -0.0724  0.1775
  558BOLB   C2C13386   8.402  10.412   6.835 -0.1094  0.2556  0.1271
  558BOLB   C3C13387   8.254  10.852   6.759  0.1606 -0.3294  0.0933
  558BOLB   C4C13388   7.996  11.133   6.855 -0.1415  0.1918  0.2107
  558BOLB   C1D13389   7.455   9.866   6.257 -0.2562  0.1133 -0.2917
  558BOLB   C2D13390   7.410  10.229   6.393  0.1109  0.1141  0.2581
  558BOLB   C3D13391   7.095  10.585   6.457 -0.3681 -0.3389 -0.2108
  558BOLB   C4D13392   6.669  10.624   6.368 -0.0628  0.0906 -0.2079
  559BOLB   NC113393  12.439  16.043  10.983 -0.2261  0.2466  0.1442
  559BOLB   PO113394  12.668  15.733  10.793  0.1616 -0.0991  0.0678
  559BOLB   GL113395  12.947  15.505  10.841  0.0749 -0.3362 -0.1514
  559BOLB   GL213396  13.025  15.382  10.583  0.0813 -0.3195  0.2965
  559BOLB   C1A13397  12.990  15.214  11.089 -0.1418 -0.1650  0.0269
  559BOLB   C2A13398  13.315  15.055  11.334  0.3128 -0.2014 -0.0073
  559BOLB   C3A13399  13.324  14.958  11.759  0.1231  0.1019 -0.4256
  559BOLB   C4A13400  13.251  14.752  12.099 -0.3297 -0.3764 -0.3214
  559BOLB   C1B13401  13.369  15.217  10.721 -0.1990  0.1999  0.1431
  559BOLB   C2B13402  13.745  14.911  10.693 -0.4613  0.0612  0.2421
  559BOLB   C3B13403  14.082  14.654  10.873  0.1162  0.3551 -0.0478
  559BOLB   C4B13404  14.390  14.430  11.055  0.2404  0.2117 -0.1394
  559BOLB   NC213405  13.965  13.099  13.586  0.0997 -0.0298  0.2209
  559BOLB   PO213406  14.046  12.810  13.350  0.1586 -0.1275  0.1599
  559BOLB   GL313407  14.202  13.241  13.219 -0.1028  0.2067  0.0996
  559BOLB   GL413408  14.214  13.678  13.315  0.3883 -0.0308  0.1129
  559BOLB   C1C13409  13.872  13.427  13.032 -0.0685 -0.1104 -0.0929
  559BOLB   C2C13410  13.594  13.730  12.770 -0.0539  0.1326 -0.1432
  559BOLB   C3C13411  13.422  13.952  12.524  0.0970 -0.2002  0.1998
  559BOLB   C4C13412  13.201  14.308  12.301 -0.0880 -0.0920 -0.1732
  559BOLB   C1D13413  13.851  14.018  13.368 -0.1320 -0.3636  0.2473
  559BOLB   C2D13414  13.496  14.144  13.176 -0.1098  0.1616 -0.0309
  559BOLB   C3D13415  13.230  14.017  12.993 -0.0888 -0.1473 -0.0457
  559BOLB   C4D13416  13.010  14.050  12.731 -0.0140 -0.0184  0.1453
  560BOLB   NC113417  12.549  17.643   5.243  0.2187  0.2520  0.2108
  560BOLB   PO113418  12.636  17.317   5.433  0.0419 -0.2024 -0.0560
  560BOLB   GL113419  12.913  17.043   5.353 -0.0177 -0.0252 -0.0645
  560BOLB   GL213420  12.834  16.762   5.543  0.0307  0.0969 -0.2656
  560BOLB   C1A13421  13.179  17.031   5.015  0.1437 -0.3320 -0.1160
  560BOLB   C2A13422  13.517  16.865   4.961 -0.2274 -0.4070 -0.1045
  560BOLB   C3A13423  13.657  16.606   5.032  0.0582 -0.0356 -0.1481
  560BOLB   C4A13424  13.883  16.307   5.106  0.1345  0.2006  0.0357
  560BOLB   C1B13425  13.178  16.606   5.263 -0.1309 -0.1961 -0.2120
  560BOLB   C2B13426  13.326  16.253   5.234 -0.2762  0.2454 -0.0123
  560BOLB   C3B13427  13.559  15.829   5.450  0.2266  0.1854 -0.4018
  560BOLB   C4B13428  13.751  15.506   5.626 -0.2618 -0.0763 -0.1760
  560BOLB   NC213429  15.482  15.361   3.728  0.0707  0.4223  0.0078
  560BOLB   PO213430  15.696  15.077   4.000  0.1493  0.1061 -0.0988
  560BOLB   GL313431  15.416  15.056   4.289 -0.1514 -0.0060  0.3191
  560BOLB   GL413432  15.560  14.942   4.545  0.1470 -0.4134  0.0002
  560BOLB   C1C13433  15.137  15.246   4.583  0.1619 -0.1507 -0.2298
  560BOLB   C2C13434  14.746  15.405   4.752  0.0197  0.0493 -0.0686
  560BOLB   C3C13435  14.328  15.613   4.867 -0.3589  0.1463  0.1325
  560BOLB   C4C13436  13.878  15.846   5.012 -0.3626  0.1906 -0.1131
  560BOLB   C1D13437  15.263  14.765   4.863 -0.0982 -0.0355  0.1669
  560BOLB   C2D13438  14.903  14.942   4.956  0.0832 -0.1355 -0.4069
  560BOLB   C3D13439  14.635  15.024   5.270  0.1018 -0.0567 -0.1229
  560BOLB   C4D13440  14.307  15.273   5.571  0.0706  0.2289  0.2444
  561BOLB   NC113441   3.443  28.258   8.441 -0.0640 -0.3479  0.4789
  561BOLB   PO113442   3.536  28.259   8.897  0.0054  0.0529 -0.3263
  561BOLB   GL113443   3.301  28.650   8.832  0.1028  0.0165  0.2943
  561BOLB   GL213444   3.561  28.916   8.878 -0.0936 -0.0258  0.1408
  561BOLB   C1A13445   3.008  28.902   9.027  0.0334  0.0299 -0.0098
  561BOLB   C2A13446   2.866  29.213   8.929  0.0074 -0.0932 -0.3935
  561BOLB   C3A13447   2.787  29.645   8.779 -0.2775 -0.0240 -0.0343
  561BOLB   C4A13448   2.743  30.029   8.827 -0.1747 -0.2558 -0.0079
  561BOLB   C1B13449   3.476  29.270   8.892  0.3378 -0.0651 -0.2551
  561BOLB   C2B13450   3.384  29.688   8.810  0.0900 -0.0760  0.0394
  561BOLB   C3B13451   3.202  29.984   8.646  0.1152 -0.0029  0.1440
  561BOLB   C4B13452   3.059  29.974   8.232 -0.1302  0.0031 -0.3972
  561BOLB   NC213453   2.609  32.442   9.220  0.0858 -0.2312  0.1495
  561BOLB   PO213454   2.239  32.509   9.042 -0.1907 -0.0571 -0.1544
  561BOLB   GL313455   2.333  32.137   8.725 -0.0654 -0.0070  0.2828
  561BOLB   GL413456   2.627  32.003   8.715  0.2249 -0.4063  0.0138
  561BOLB   C1C13457   2.266  31.671   8.808  0.2867  0.1883  0.3356
  561BOLB   C2C13458   2.234  31.267   8.716 -0.3790 -0.1061  0.2202
  561BOLB   C3C13459   2.541  31.046   8.787 -0.0128  0.1485 -0.1458
  561BOLB   C4C13460   2.631  30.506   8.884  0.4528 -0.0522 -0.0716
  561BOLB   C1D13461   2.718  31.512   8.732  0.1956 -0.1665 -0.1065
  561BOLB   C2D13462   3.001  31.082   8.719 -0.2938  0.0316  0.0061
  561BOLB   C3D13463   3.193  30.705   8.827 -0.1471  0.2987  0.3893
  561BOLB   C4D13464   3.282  30.279   9.023  0.0156  0.1263 -0.2060
  562BOLB   NC113465  31.129  13.873  15.824 -0.1133 -0.0865  0.0824
  562BOLB   PO113466  31.359  14.118  15.545 -0.0898 -0.2167  0.0125
  562BOLB   GL113467  31.768  14.270  15.531 -0.1872 -0.0630 -0.1303
  562BOLB   GL213468  32.002  14.155  15.848  0.0664 -0.1966  0.3641
  562BOLB   C1A13469  32.092  14.319  15.166  0.0134 -0.0617 -0.3815
  562BOLB   C2A13470  32.378  14.453  15.005 -0.2774  0.0139  0.0139
  562BOLB   C3A13471  32.885  14.374  14.959  0.1469  0.2307 -0.1004
  562BOLB   C4A13472  33.291  14.198  15.233  0.0357 -0.0770  0.0322
  562BOLB   C1B13473  32.007  14.633  15.726  0.0252 -0.0733 -0.1459
  562BOLB   C2B13474  32.097  15.067  15.603  0.0345  0.0828 -0.2109
  562BOLB   C3B13475  32.387  15.209  15.417  0.0053  0.0534 -0.2363
  562BOLB   C4B13476  32.752  15.241  15.363 -0.0619 -0.1066 -0.6355
  562BOLB   NC213477  33.040  12.145  15.882 -0.3778  0.1023  0.0509
  562BOLB   PO213478  33.099  12.004  16.337  0.0498 -0.0399 -0.0693
  562BOLB   GL313479  33.139  12.436  16.316  0.0871 -0.2730  0.0225
  562BOLB   GL413480  32.922  12.767  16.324 -0.1948 -0.0179 -0.0830
  562BOLB   C1C13481  33.309  12.785  15.984 -0.0026  0.1373  0.1683
  562BOLB   C2C13482  33.004  13.031  15.743  0.2111 -0.2190 -0.0009
  562BOLB   C3C13483  33.059  13.437  15.499 -0.0397 -0.1436  0.0539
  562BOLB   C4C13484  33.247  13.830  15.410 -0.0501 -0.0569 -0.1270
  562BOLB   C1D13485  33.070  13.203  16.225 -0.0610 -0.0777 -0.0937
  562BOLB   C2D13486  33.264  13.630  16.116 -0.1726  0.0546  0.2412
  562BOLB   C3D13487  33.709  13.811  16.060  0.3000  0.0840 -0.0592
  562BOLB   C4D13488  34.163  13.933  16.250 -0.0262 -0.1465 -0.1242
  563BOLB   NC113489   6.217  29.075   9.856  0.0989  0.1196 -0.2810
  563BOLB   PO113490   5.875  28.994   9.566  0.2610  0.1462  0.4160
  563BOLB   GL113491   5.779  29.395   9.508 -0.2891 -0.2449  0.0912
  563BOLB   GL213492   5.852  29.379   9.246  0.1227 -0.1441 -0.1927
  563BOLB   C1A13493   5.711  29.747   9.686 -0.1948 -0.3034 -0.2449
  563BOLB   C2A13494   5.613  30.144   9.742 -0.0869 -0.0070  0.1755
  563BOLB   C3A13495   5.327  30.400   9.618  0.0786 -0.1293 -0.0402
  563BOLB   C4A13496   4.932  30.681   9.517 -0.0527  0.2584  0.0432
  563BOLB   C1B13497   5.841  29.700   9.001 -0.0145  0.0006 -0.2447
  563BOLB   C2B13498   6.029  30.135   8.959  0.3384  0.0976 -0.2616
  563BOLB   C3B13499   5.962  30.538   8.693  0.0038  0.2161 -0.0922
  563BOLB   C4B13500   5.717  30.727   8.525  0.3635 -0.0131  0.0483
  563BOLB   NC213501   3.897  32.956   8.861 -0.2657 -0.2071 -0.1149
  563BOLB   PO213502   3.688  32.590   8.542  0.1854 -0.1593  0.1130
  563BOLB   GL313503   3.693  32.311   8.820  0.1820  0.2401  0.1718
  563BOLB   GL413504   3.901  32.117   8.655  0.0361 -0.2198 -0.1266
  563BOLB   C1C13505   3.775  31.972   9.124 -0.0644  0.0582  0.1176
  563BOLB   C2C13506   4.117  31.653   9.184 -0.0820 -0.0832  0.4161
  563BOLB   C3C13507   4.384  31.364   9.261  0.3785 -0.0169 -0.5043
  563BOLB   C4C13508   4.719  31.029   9.316  0.0750 -0.0486  0.0073
  563BOLB   C1D13509   4.326  31.996   8.905  0.4401 -0.3182  0.1751
  563BOLB   C2D13510   4.699  31.711   9.023  0.2014  0.2539 -0.3338
  563BOLB   C3D13511   4.833  31.520   9.413 -0.1951  0.1763 -0.0782
  563BOLB   C4D13512   4.978  31.184   9.696  0.0645 -0.0870 -0.0880
  564BOLB   NC113513   2.961  20.343  18.121 -0.3747  0.2573 -0.1750
  564BOLB   PO113514   3.120  20.848  18.113 -0.0609  0.1380 -0.6071
  564BOLB   GL113515   3.088  20.641  18.486 -0.2173  0.0618 -0.0998
  564BOLB   GL213516   3.314  20.364  18.540 -0.2985  0.3538  0.0485
  564BOLB   C1A13517   3.047  20.612  19.003  0.1874  0.2158 -0.0377
  564BOLB   C2A13518   2.696  20.680  19.381  0.3969  0.4411 -0.1317
  564BOLB   C3A13519   2.502  21.056  19.527 -0.3132  0.0914 -0.2807
  564BOLB   C4A13520   2.078  20.999  19.738 -0.1429  0.2499  0.2011
  564BOLB   C1B13521   3.532  20.198  18.907 -0.1500  0.0260  0.0130
  564BOLB   C2B13522   3.491  20.330  19.274 -0.1553 -0.1909  0.2280
  564BOLB   C3B13523   3.242  20.375  19.678 -0.1588  0.1272 -0.2804
  564BOLB   C4B13524   3.571  20.482  19.911  0.0251 -0.1681 -0.1381
  564BOLB   NC213525   1.986  21.040  22.122 -0.1161 -0.2467 -0.1349
  564BOLB   PO213526   1.528  21.160  21.895 -0.1074  0.0620  0.0868
  564BOLB   GL313527   1.814  20.930  21.592  0.2095  0.1064 -0.1768
  564BOLB   GL413528   2.121  20.999  21.560 -0.1449 -0.2113 -0.2003
  564BOLB   C1C13529   1.892  20.640  21.338  0.2170  0.0565  0.1745
  564BOLB   C2C13530   1.848  20.525  20.944 -0.0290 -0.0632  0.0417
  564BOLB   C3C13531   2.026  20.638  20.504  0.1701  0.2097 -0.4714
  564BOLB   C4C13532   1.896  20.760  20.056 -0.1672 -0.0097 -0.0322
  564BOLB   C1D13533   2.401  21.221  21.276  0.0622 -0.0680 -0.1140
  564BOLB   C2D13534   2.589  21.548  21.009 -0.1078  0.2723 -0.0996
  564BOLB   C3D13535   2.911  21.621  20.687  0.4222  0.1536  0.3053
  564BOLB   C4D13536   3.063  21.422  20.367  0.2379 -0.1688 -0.1247
  565BOLB   NC113537   9.219  20.619   2.145 -0.1237 -0.3571  0.1174
  565BOLB   PO113538   9.563  20.374   2.267 -0.0635 -0.3968 -0.2477
  565BOLB   GL113539   9.550  20.310   1.879 -0.0548  0.2027  0.3105
  565BOLB   GL213540   9.272  20.515   1.652  0.1405  0.1737  0.0261
  565BOLB   C1A13541   9.727  20.230   1.581 -0.0773  0.0372 -0.3933
  565BOLB   C2A13542  10.043  20.007   1.357  0.0162 -0.1976  0.1500
  565BOLB   C3A13543  10.133  20.161   0.910 -0.1593 -0.1102 -0.1664
  565BOLB   C4A13544  10.245  20.423   0.622 -0.2550 -0.1029 -0.0537
  565BOLB   C1B13545   9.341  20.459   1.242 -0.0738  0.2088 -0.0906
  565BOLB   C2B13546   9.166  20.351   0.772  0.2339 -0.1780  0.0804
  565BOLB   C3B13547   8.935  20.291   0.337  0.0242  0.1705  0.1142
  565BOLB   C4B13548   8.962  20.290  -0.041  0.3541 -0.3451 -0.2090
  565BOLB   NC213549   9.733  20.052  -2.135 -0.1392 -0.0203  0.1792
  565BOLB   PO213550  10.033  19.727  -1.926 -0.4440  0.1500 -0.0739
  565BOLB   GL313551   9.872  19.896  -1.607 -0.0090  0.0962  0.4760
  565BOLB   GL413552   9.549  19.835  -1.632  0.1929  0.1648 -0.0098
  565BOLB   C1C13553   9.952  20.142  -1.238  0.1115 -0.2262  0.1435
  565BOLB   C2C13554  10.091  20.097  -0.782  0.2120  0.0428  0.0271
  565BOLB   C3C13555  10.229  20.100  -0.287  0.1960  0.0430 -0.0415
  565BOLB   C4C13556  10.214  20.182   0.142  0.2040 -0.0457  0.1335
  565BOLB   C1D13557   9.573  19.773  -1.185 -0.1477  0.0681  0.0515
  565BOLB   C2D13558   9.777  19.716  -0.710 -0.1382  0.1024  0.0595
  565BOLB   C3D13559   9.595  19.613  -0.365  0.2145  0.2595 -0.0703
  565BOLB   C4D13560   9.542  19.362   0.011  0.1615  0.1870  0.4431
  566BOLB   NC113561   4.762  19.356   2.038  0.0344  0.0205  0.1556
  566BOLB   PO113562   4.443  19.150   2.186 -0.0225 -0.0496  0.0767
  566BOLB   GL113563   3.982  19.028   1.955  0.2763  0.3393 -0.2244
  566BOLB   GL213564   4.231  18.805   1.850 -0.3059 -0.0494  0.1320
  566BOLB   C1A13565   3.644  18.773   1.841  0.0028  0.4487  0.0068
  566BOLB   C2A13566   3.308  18.610   1.613 -0.1186 -0.0636  0.1285
  566BOLB   C3A13567   3.247  18.477   1.182  0.0728 -0.4188  0.1236
  566BOLB   C4A13568   3.203  18.685   0.755  0.0726  0.0456 -0.2289
  566BOLB   C1B13569   4.023  18.582   1.570  0.0492 -0.0442 -0.3278
  566BOLB   C2B13570   4.144  18.236   1.490 -0.0033 -0.0270  0.0622
  566BOLB   C3B13571   4.041  18.040   1.130  0.1539  0.0894 -0.1881
  566BOLB   C4B13572   3.918  18.031   0.704  0.0269  0.1029  0.2899
  566BOLB   NC213573   3.068  17.974  -1.694  0.2102  0.0830  0.1441
  566BOLB   PO213574   3.527  17.993  -1.450  0.0814  0.4469  0.0038
  566BOLB   GL313575   3.563  17.974  -1.074 -0.3573 -0.1371 -0.0407
  566BOLB   GL413576   3.450  17.855  -0.711 -0.0290 -0.0222  0.1902
  566BOLB   C1C13577   3.725  18.294  -0.766  0.1310 -0.0900  0.1391
  566BOLB   C2C13578   3.697  18.526  -0.356  0.0215  0.1608  0.3284
  566BOLB   C3C13579   3.548  18.724   0.118 -0.0159  0.0326  0.0385
  566BOLB   C4C13580   3.191  18.909   0.376 -0.1107  0.0968  0.0321
  566BOLB   C1D13581   3.618  17.754  -0.332 -0.0470 -0.0296 -0.0349
  566BOLB   C2D13582   3.401  17.467  -0.025 -0.0188 -0.0995 -0.0326
  566BOLB   C3D13583   3.297  17.637   0.362  0.3175  0.3241  0.3947
  566BOLB   C4D13584   3.461  17.845   0.650 -0.0400 -0.0474 -0.0078
  567BOLB   NC113585  10.976  17.160   4.607  0.5414 -0.0119 -0.2105
  567BOLB   PO113586  10.741  16.862   4.283 -0.1860 -0.1945  0.1175
  567BOLB   GL113587  10.920  16.535   4.290  0.0149 -0.0221 -0.0864
  567BOLB   GL213588  10.904  16.274   4.543 -0.0915  0.1464 -0.0212
  567BOLB   C1A13589  11.212  16.289   4.053  0.0180 -0.1128  0.0052
  567BOLB   C2A13590  11.463  16.130   3.860  0.0925 -0.0209  0.1768
  567BOLB   C3A13591  11.701  15.838   3.596 -0.0210  0.0235 -0.1469
  567BOLB   C4A13592  11.865  15.719   3.147  0.1939  0.0589 -0.0062
  567BOLB   C1B13593  11.068  15.820   4.319  0.2374 -0.0058  0.0937
  567BOLB   C2B13594  11.533  15.609   4.156  0.0918  0.3221 -0.1064
  567BOLB   C3B13595  11.947  15.312   4.033 -0.1406  0.2187  0.0386
  567BOLB   C4B13596  12.390  15.175   3.799 -0.0707 -0.1832  0.0462
  567BOLB   NC213597  12.757  13.724   1.283 -0.1516 -0.0443  0.2290
  567BOLB   PO213598  12.455  13.986   1.333 -0.2390 -0.0240 -0.1069
  567BOLB   GL313599  12.340  14.368   1.545 -0.3421  0.0910 -0.0420
  567BOLB   GL413600  11.917  14.318   1.729 -0.1141 -0.3882  0.0342
  567BOLB   C1C13601  12.457  14.761   1.775  0.1949 -0.2134  0.0858
  567BOLB   C2C13602  12.235  14.868   2.132 -0.1527  0.1700 -0.0136
  567BOLB   C3C13603  11.999  15.177   2.517 -0.1722 -0.1132  0.0124
  567BOLB   C4C13604  11.961  15.423   2.813  0.2419 -0.0735 -0.2659
  567BOLB   C1D13605  11.889  14.528   2.089  0.3885 -0.0999  0.5982
  567BOLB   C2D13606  11.821  14.713   2.396  0.4692  0.0229  0.1459
  567BOLB   C3D13607  11.532  15.012   2.486  0.2005 -0.0138 -0.1276
  567BOLB   C4D13608  11.284  15.283   2.575  0.0210 -0.4129  0.1455
  568BOLB   NC113609  11.325  23.204   3.381 -0.1929 -0.3031 -0.0902
  568BOLB   PO113610  11.238  22.791   3.207  0.1280  0.0372 -0.4627
  568BOLB   GL113611  11.487  22.936   2.918 -0.1638 -0.0616  0.0587
  568BOLB   GL213612  11.772  22.831   3.075 -0.0176 -0.1743  0.0781
  568BOLB   C1A13613  11.575  23.234   2.534  0.0219 -0.3381 -0.1222
  568BOLB   C2A13614  11.771  23.545   2.265  0.1872 -0.0121 -0.2624
  568BOLB   C3A13615  11.849  23.818   1.946 -0.0572 -0.0592 -0.1785
  568BOLB   C4A13616  12.258  23.984   1.725  0.2875  0.0094 -0.0699
  568BOLB   C1B13617  12.069  22.830   2.767  0.0068  0.1167 -0.2219
  568BOLB   C2B13618  12.340  22.707   2.345 -0.0198  0.1551 -0.1085
  568BOLB   C3B13619  12.721  22.662   2.178  0.3050  0.1203  0.0428
  568BOLB   C4B13620  12.963  22.581   1.906  0.0444 -0.2075 -0.0232
  568BOLB   NC213621  12.139  23.478  -0.552  0.2513  0.0631 -0.1043
  568BOLB   PO213622  12.286  22.979  -0.563 -0.0310  0.3049 -0.1958
  568BOLB   GL313623  12.255  23.158  -0.095 -0.2005 -0.2864 -0.1783
  568BOLB   GL413624  12.394  22.981   0.131  0.0448 -0.0898  0.1585
  568BOLB   C1C13625  12.227  23.366   0.375 -0.2209 -0.2333 -0.2611
  568BOLB   C2C13626  12.165  23.683   0.600 -0.0452  0.2043  0.1078
  568BOLB   C3C13627  12.462  23.927   0.844 -0.0606  0.2789 -0.6393
  568BOLB   C4C13628  12.480  24.059   1.372  0.0340 -0.0866 -0.4054
  568BOLB   C1D13629  12.310  22.541  -0.002  0.1190  0.3258  0.2337
  568BOLB   C2D13630  12.420  22.247   0.113  0.2513 -0.1616 -0.0373
  568BOLB   C3D13631  12.149  21.915   0.179 -0.0173  0.2047 -0.0382
  568BOLB   C4D13632  12.362  21.577   0.280  0.2865 -0.3295  0.1798
  569BOLB   NC113633   7.175  18.074   2.049 -0.0308  0.0191 -0.1665
  569BOLB   PO113634   7.518  18.252   2.216  0.1838  0.3301  0.0803
  569BOLB   GL113635   7.723  18.165   1.810 -0.1620  0.0978  0.2161
  569BOLB   GL213636   8.109  18.258   1.875  0.1231  0.2909 -0.0216
  569BOLB   C1A13637   7.785  18.153   1.364  0.0117 -0.0057  0.0163
  569BOLB   C2A13638   8.059  17.940   0.967 -0.0525 -0.1992  0.0713
  569BOLB   C3A13639   8.265  17.744   0.675  0.2214  0.2717  0.0320
  569BOLB   C4A13640   8.573  17.642   0.423  0.0408  0.0883  0.1899
  569BOLB   C1B13641   8.384  18.157   1.581  0.2424 -0.3148 -0.0934
  569BOLB   C2B13642   8.852  18.076   1.418 -0.3303  0.0719 -0.0310
  569BOLB   C3B13643   9.072  18.119   1.082  0.2439 -0.1789  0.0859
  569BOLB   C4B13644   9.065  18.100   0.564  0.1963 -0.2616 -0.4320
  569BOLB   NC213645   8.919  15.874  -1.444  0.4090  0.2884 -0.1131
  569BOLB   PO213646   8.806  15.818  -1.085  0.4393  0.2483  0.0694
  569BOLB   GL313647   8.645  16.065  -0.787 -0.0470 -0.1332  0.0680
  569BOLB   GL413648   8.310  16.186  -0.631 -0.0615  0.0340 -0.1706
  569BOLB   C1C13649   8.811  16.304  -0.453  0.3093 -0.0748  0.0686
  569BOLB   C2C13650   8.893  16.424  -0.008 -0.0745  0.3833  0.1941
  569BOLB   C3C13651   8.948  16.819   0.174 -0.4091 -0.1468 -0.0896
  569BOLB   C4C13652   8.872  17.236   0.413  0.2746 -0.0246 -0.2925
  569BOLB   C1D13653   8.411  16.496  -0.257 -0.3420  0.0478 -0.1039
  569BOLB   C2D13654   8.327  16.347   0.193  0.2014 -0.1200 -0.3903
  569BOLB   C3D13655   8.123  16.461   0.559 -0.1206  0.0852  0.1513
  569BOLB   C4D13656   7.777  16.629   0.730  0.1670  0.1072  0.0492
  570BOLB   NC113657  11.647  22.237  16.125  0.0171 -0.1113  0.1123
  570BOLB   PO113658  11.621  22.368  16.590  0.0466 -0.1564 -0.0050
  570BOLB   GL113659  11.957  22.530  16.866 -0.1758 -0.1461  0.0899
  570BOLB   GL213660  12.271  22.572  16.757  0.1161  0.3289 -0.2005
  570BOLB   C1A13661  12.249  22.518  17.250  0.0160  0.0655 -0.0712
  570BOLB   C2A13662  12.548  22.537  17.534 -0.1663 -0.0603 -0.0189
  570BOLB   C3A13663  12.823  22.445  17.909 -0.3082  0.2591 -0.1579
  570BOLB   C4A13664  12.750  22.669  18.307  0.3109  0.1477 -0.3180
  570BOLB   C1B13665  12.800  22.691  16.845 -0.0535 -0.1467  0.1466
  570BOLB   C2B13666  13.140  22.838  16.686 -0.0306 -0.2385  0.2158
  570BOLB   C3B13667  13.538  23.012  16.858  0.1207  0.1144  0.3699
  570BOLB   C4B13668  13.889  22.959  17.015 -0.0415 -0.0433  0.0828
  570BOLB   NC213669  14.149  22.259  20.773 -0.0469 -0.0436  0.4516
  570BOLB   PO213670  14.140  22.234  20.316 -0.1609  0.1013  0.0934
  570BOLB   GL313671  13.951  22.151  19.922 -0.0134  0.0184  0.0584
  570BOLB   GL413672  14.169  22.013  19.774  0.0992 -0.0385  0.2932
  570BOLB   C1C13673  13.651  22.376  19.778  0.0575 -0.0366  0.3568
  570BOLB   C2C13674  13.455  22.500  19.317 -0.0971 -0.2978 -0.0750
  570BOLB   C3C13675  13.262  22.522  18.964  0.0768  0.0330 -0.0220
  570BOLB   C4C13676  12.982  22.587  18.660  0.2884 -0.0121 -0.0529
  570BOLB   C1D13677  14.267  22.020  19.388 -0.1389  0.0690 -0.0762
  570BOLB   C2D13678  14.515  22.238  19.028  0.1446  0.3579  0.2665
  570BOLB   C3D13679  14.521  22.454  18.676 -0.1898 -0.0108 -0.0093
  570BOLB   C4D13680  14.094  22.763  18.737 -0.1682  0.3485 -0.2788
  571BOLB   NC113681  10.626  25.545   5.410  0.2451  0.1703  0.2557
  571BOLB   PO113682  10.498  25.411   5.037  0.3008  0.0217  0.1977
  571BOLB   GL113683  10.674  25.791   4.951  0.0505 -0.1147 -0.0123
  571BOLB   GL213684  10.656  26.058   5.095 -0.1489 -0.0700  0.1050
  571BOLB   C1A13685  10.948  25.967   4.687 -0.0231  0.2175  0.1386
  571BOLB   C2A13686  11.284  26.126   4.395  0.4619  0.1504  0.1102
  571BOLB   C3A13687  11.550  26.534   4.275 -0.1771  0.4422 -0.4696
  571BOLB   C4A13688  11.651  26.707   3.855 -0.0767 -0.0545  0.1113
  571BOLB   C1B13689  10.940  26.270   5.116  0.4507 -0.0273 -0.0220
  571BOLB   C2B13690  11.336  26.410   4.860  0.1669  0.5350 -0.0026
  571BOLB   C3B13691  11.562  26.844   4.745 -0.1149 -0.0227  0.1278
  571BOLB   C4B13692  11.694  27.214   4.496 -0.0524 -0.0255 -0.2615
  571BOLB   NC213693  12.364  28.691   2.724 -0.0595  0.1077  0.0732
  571BOLB   PO213694  12.622  28.307   2.519  0.0455  0.0294 -0.0492
  571BOLB   GL313695  12.424  28.160   2.881 -0.2049  0.2677  0.2815
  571BOLB   GL413696  12.217  28.385   3.084 -0.0437  0.0785 -0.0899
  571BOLB   C1C13697  12.051  27.936   2.926 -0.0971 -0.1883  0.2704
  571BOLB   C2C13698  12.053  27.513   3.057  0.0318  0.0824  0.0975
  571BOLB   C3C13699  11.770  27.227   3.383  0.0932  0.0626 -0.2084
  571BOLB   C4C13700  11.694  26.813   3.438 -0.0335  0.2284  0.0894
  571BOLB   C1D13701  12.023  28.223   3.465 -0.2637 -0.2022 -0.1908
  571BOLB   C2D13702  12.108  28.183   3.905  0.1138  0.1569  0.0295
  571BOLB   C3D13703  12.298  27.779   4.111 -0.3097 -0.1430  0.3284
  571BOLB   C4D13704  12.166  27.507   4.395  0.6058 -0.0620  0.0911
  572BOLB   NC113705  13.716  16.886  10.161  0.0678 -0.1613 -0.3301
  572BOLB   PO113706  13.655  16.516  10.388  0.0410 -0.0433  0.3818
  572BOLB   GL113707  14.068  16.499  10.343 -0.2055  0.1657  0.0323
  572BOLB   GL213708  14.154  16.636  10.073 -0.1918 -0.2064 -0.1336
  572BOLB   C1A13709  14.291  16.108  10.326  0.1876  0.0945  0.0405
  572BOLB   C2A13710  14.605  15.992  10.647 -0.2267  0.0255  0.2144
  572BOLB   C3A13711  15.030  16.059  10.756 -0.3774 -0.3056 -0.0776
  572BOLB   C4A13712  15.349  16.074  10.510 -0.0460  0.0447  0.2543
  572BOLB   C1B13713  14.608  16.436  10.198  0.0739 -0.2749  0.1402
  572BOLB   C2B13714  14.940  16.412  10.492  0.0868  0.1482  0.0395
  572BOLB   C3B13715  14.999  16.605  10.847 -0.2303  0.0736  0.2326
  572BOLB   C4B13716  14.907  16.668  11.352 -0.1828  0.1123 -0.0467
  572BOLB   NC213717  17.601  14.852  10.306  0.1515  0.2742  0.0130
  572BOLB   PO213718  17.505  14.821   9.841 -0.2108  0.0474  0.1334
  572BOLB   GL313719  17.216  15.202   9.934 -0.0607  0.1119  0.0500
  572BOLB   GL413720  16.903  15.206   9.874  0.2512  0.5443 -0.1114
  572BOLB   C1C13721  17.051  15.458  10.279  0.0424 -0.1619  0.2032
  572BOLB   C2C13722  16.611  15.637  10.169  0.4211 -0.0498 -0.2212
  572BOLB   C3C13723  16.167  15.783  10.146  0.4882 -0.1587  0.0495
  572BOLB   C4C13724  15.646  16.108  10.214 -0.3426 -0.1245  0.3557
  572BOLB   C1D13725  16.734  15.476   9.681 -0.2968 -0.0911 -0.1729
  572BOLB   C2D13726  16.462  15.620   9.374 -0.2538  0.0455  0.1150
  572BOLB   C3D13727  16.101  15.746   9.222 -0.0183  0.3041  0.0289
  572BOLB   C4D13728  15.889  15.696   8.845 -0.2584  0.0525 -0.0770
  573BOLB   NC113729   4.589  24.275  22.480 -0.0705  0.1096 -0.0371
  573BOLB   PO113730   4.363  24.038  22.120  0.0608 -0.0908  0.0396
  573BOLB   GL113731   4.410  23.788  21.863  0.1682 -0.1472  0.0282
  573BOLB   GL213732   4.401  24.011  21.604  0.2591  0.2080  0.1429
  573BOLB   C1A13733   4.260  23.580  21.521  0.2112 -0.3614  0.3364
  573BOLB   C2A13734   4.245  23.161  21.505  0.2044 -0.1900 -0.2458
  573BOLB   C3A13735   4.268  22.786  21.640  0.3525 -0.2624 -0.1527
  573BOLB   C4A13736   4.196  22.435  21.886 -0.1221 -0.0141  0.3172
  573BOLB   C1B13737   4.547  23.836  21.189  0.0858 -0.3010 -0.1331
  573BOLB   C2B13738   4.494  23.375  21.099  0.1473  0.0892  0.0728
  573BOLB   C3B13739   4.460  22.920  21.116 -0.1820  0.1591 -0.1837
  573BOLB   C4B13740   4.401  22.402  21.076 -0.0278 -0.1083 -0.3605
  573BOLB   NC213741   3.128  20.897  22.687  0.2163  0.2380  0.0469
  573BOLB   PO213742   3.249  21.185  22.410  0.1146 -0.2744 -0.1665
  573BOLB   GL313743   3.309  21.011  21.967 -0.3067 -0.1399  0.1211
  573BOLB   GL413744   2.992  21.055  21.795 -0.3698 -0.1776  0.1013
  573BOLB   C1C13745   3.420  20.948  21.613  0.1466  0.1806 -0.2283
  573BOLB   C2C13746   3.712  21.267  21.411 -0.1193  0.0194 -0.1671
  573BOLB   C3C13747   3.964  21.731  21.569  0.1244  0.1792 -0.1204
  573BOLB   C4C13748   4.214  22.016  21.685  0.3790 -0.0372 -0.0526
  573BOLB   C1D13749   3.094  21.230  21.408 -0.0726  0.1696  0.1625
  573BOLB   C2D13750   2.949  21.194  21.005 -0.1011 -0.5325  0.0265
  573BOLB   C3D13751   2.671  21.130  20.673 -0.2447 -0.1523  0.0946
  573BOLB   C4D13752   2.549  20.839  20.437 -0.3397  0.1379  0.0162
  574BOLB   NC113753   8.628  13.852   6.300  0.1208 -0.1797  0.0249
  574BOLB   PO113754   8.959  13.684   6.650 -0.0330  0.0396  0.1481
  574BOLB   GL113755   8.929  13.298   6.495 -0.1823 -0.0241  0.4252
  574BOLB   GL213756   8.670  13.281   6.285  0.0315 -0.1844 -0.2506
  574BOLB   C1A13757   9.256  13.051   6.332 -0.0200 -0.0925 -0.3423
  574BOLB   C2A13758   9.523  12.633   6.344 -0.1149  0.3106  0.1443
  574BOLB   C3A13759   9.388  12.194   6.516  0.0284 -0.0132  0.3266
  574BOLB   C4A13760   9.255  11.811   6.539 -0.4107 -0.3061  0.1782
  574BOLB   C1B13761   8.376  13.053   6.093  0.0395  0.4260 -0.2070
  574BOLB   C2B13762   8.223  12.775   5.986  0.0659  0.0194 -0.1490
  574BOLB   C3B13763   8.198  12.272   6.102 -0.3909  0.1941  0.0082
  574BOLB   C4B13764   8.426  11.957   6.076  0.1638  0.0904  0.0023
  574BOLB   NC213765  10.572   9.926   5.100  0.1666 -0.2309  0.0761
  574BOLB   PO213766  10.221  10.381   5.004 -0.2213 -0.0997 -0.0400
  574BOLB   GL313767  10.192  10.841   5.015  0.2440 -0.1641  0.0085
  574BOLB   GL413768  10.034  11.025   4.675  0.4046  0.1068  0.1233
  574BOLB   C1C13769   9.975  10.930   5.309  0.0489 -0.1990  0.1547
  574BOLB   C2C13770   9.769  11.210   5.652  0.1952 -0.2905 -0.0281
  574BOLB   C3C13771   9.501  11.313   6.039  0.0420 -0.2111  0.0522
  574BOLB   C4C13772   9.446  11.595   6.391 -0.2793 -0.2453  0.1498
  574BOLB   C1D13773   9.645  11.111   4.753 -0.0652 -0.2588 -0.0530
  574BOLB   C2D13774   9.359  11.454   4.744 -0.2249  0.3256 -0.0532
  574BOLB   C3D13775   9.028  11.748   4.924  0.1394 -0.2031  0.0431
  574BOLB   C4D13776   8.647  11.972   5.027  0.3237 -0.2024  0.2042
  575BOLB   NC113777   4.577  23.997   3.147  0.4503 -0.0684  0.0559
  575BOLB   PO113778   4.684  23.647   3.061  0.0079 -0.0898 -0.1750
  575BOLB   GL113779   4.634  23.769   2.711  0.0088 -0.0253 -0.3657
  575BOLB   GL213780   4.753  23.663   2.434  0.1675  0.1937  0.2894
  575BOLB   C1A13781   4.486  24.050   2.438  0.2319 -0.0807  0.1429
  575BOLB   C2A13782   4.443  24.307   2.084  0.1981 -0.0650  0.0204
  575BOLB   C3A13783   4.618  24.534   1.677  0.0907 -0.0408  0.1148
  575BOLB   C4A13784   4.598  24.842   1.352  0.1453  0.0271  0.0147
  575BOLB   C1B13785   4.866  23.782   2.024  0.1316  0.3263 -0.2515
  575BOLB   C2B13786   4.856  23.954   1.601  0.0928  0.0512 -0.4178
  575BOLB   C3B13787   4.771  23.899   1.261 -0.1508 -0.1888  0.4572
  575BOLB   C4B13788   4.651  23.760   0.879 -0.1269 -0.1041 -0.1582
  575BOLB   NC213789   3.876  26.447  -0.120  0.0809 -0.1402  0.1196
  575BOLB   PO213790   3.988  25.990  -0.352  0.2162 -0.1676 -0.1289
  575BOLB   GL313791   4.086  26.001   0.112  0.0097 -0.0457 -0.3069
  575BOLB   GL413792   4.137  26.181   0.366 -0.1043 -0.0777  0.0496
  575BOLB   C1C13793   3.896  25.858   0.553  0.1441  0.1098 -0.0326
  575BOLB   C2C13794   3.771  25.624   0.862  0.1703 -0.1360 -0.0412
  575BOLB   C3C13795   3.992  25.252   1.033 -0.0583 -0.2905  0.2774
  575BOLB   C4C13796   4.225  25.016   1.344  0.0119  0.0591  0.3350
  575BOLB   C1D13797   4.337  26.224   0.710  0.0832 -0.0126 -0.2911
  575BOLB   C2D13798   4.672  26.286   1.123 -0.3193  0.1421  0.0062
  575BOLB   C3D13799   4.800  26.254   1.452  0.2027  0.1313  0.1065
  575BOLB   C4D13800   5.185  26.154   1.657 -0.2057 -0.0168  0.2744
  576BOLB   NC113801   8.752  16.631  16.239 -0.1123  0.0368 -0.1125
  576BOLB   PO113802   8.719  16.983  16.507  0.0346 -0.0642 -0.2272
  576BOLB   GL113803   8.816  16.665  16.852  0.0430 -0.1297 -0.1586
  576BOLB   GL213804   8.852  16.383  16.720  0.0876  0.1050  0.2726
  576BOLB   C1A13805   8.839  16.430  17.210  0.2196  0.2254 -0.2677
  576BOLB   C2A13806   9.019  16.061  17.469  0.2302  0.2308  0.0764
  576BOLB   C3A13807   9.031  15.637  17.512 -0.0147 -0.0604 -0.2195
  576BOLB   C4A13808   9.403  15.365  17.560  0.0732  0.0182  0.2685
  576BOLB   C1B13809   9.009  15.952  16.937 -0.0817  0.0746  0.1662
  576BOLB   C2B13810   9.323  15.748  17.159  0.0968  0.1838 -0.1759
  576BOLB   C3B13811   9.488  15.884  17.565  0.2251  0.3286 -0.1018
  576BOLB   C4B13812   9.434  15.646  18.036 -0.0351  0.3880 -0.0947
  576BOLB   NC213813  10.891  13.060  17.571 -0.2143 -0.1233 -0.0031
  576BOLB   PO213814  10.760  13.449  17.572  0.1105  0.3580 -0.0419
  576BOLB   GL313815  10.638  13.709  17.308  0.1717  0.2758 -0.2863
  576BOLB   GL413816  10.776  13.832  17.066  0.0835  0.2519  0.1805
  576BOLB   C1C13817  10.411  14.071  17.289  0.1260  0.0080 -0.1355
  576BOLB   C2C13818  10.160  14.527  17.483 -0.3031  0.5644 -0.1157
  576BOLB   C3C13819  10.154  14.854  17.402  0.2422 -0.0537 -0.2417
  576BOLB   C4C13820   9.833  15.165  17.403  0.4910  0.2475 -0.0492
  576BOLB   C1D13821  10.514  14.243  16.812 -0.3094 -0.2646  0.0347
  576BOLB   C2D13822  10.416  14.393  16.406 -0.0930  0.0886  0.0606
  576BOLB   C3D13823  10.375  14.689  15.955 -0.2633 -0.1634  0.0352
  576BOLB   C4D13824  10.619  14.918  15.733  0.2304 -0.1070  0.0670
  577BOLB   NC113825  12.027  27.179   9.517 -0.0460  0.1419 -0.2264
  577BOLB   PO113826  11.617  27.377   9.638 -0.0343  0.2413  0.2706
  577BOLB   GL113827  11.945  27.612   9.788  0.2292 -0.0031 -0.0177
  577BOLB   GL213828  11.842  27.907   9.733  0.2401  0.2242 -0.1027
  577BOLB   C1A13829  12.309  27.808   9.571  0.0887  0.0849 -0.0522
  577BOLB   C2A13830  12.615  28.134   9.627 -0.2192  0.3937  0.2603
  577BOLB   C3A13831  13.066  28.315   9.517  0.0139  0.2397  0.1560
  577BOLB   C4A13832  13.520  28.083   9.666  0.0371  0.0508  0.0329
  577BOLB   C1B13833  12.134  28.267   9.567 -0.0168  0.1337 -0.2861
  577BOLB   C2B13834  12.407  28.593   9.306  0.0472 -0.1069  0.1481
  577BOLB   C3B13835  12.768  28.409   9.067  0.0765 -0.1528  0.1095
  577BOLB   C4B13836  13.110  28.521   9.037  0.2520 -0.0602  0.0857
  577BOLB   NC213837  15.389  29.765   9.656  0.2413 -0.1570  0.1358
  577BOLB   PO213838  15.257  29.844   9.193  0.1958  0.0308  0.1204
  577BOLB   GL313839  15.010  29.471   9.277 -0.1437  0.3228  0.1950
  577BOLB   GL413840  14.674  29.505   9.315  0.0650 -0.0961 -0.0315
  577BOLB   C1C13841  14.834  28.948   9.254  0.2092  0.2217  0.0906
  577BOLB   C2C13842  14.545  28.593   9.271  0.0409 -0.2400 -0.0346
  577BOLB   C3C13843  14.285  28.251   9.584 -0.0556  0.0667 -0.3689
  577BOLB   C4C13844  13.869  28.163   9.835  0.3610 -0.0286 -0.0470
  577BOLB   C1D13845  14.410  29.140   9.234  0.2702 -0.0339 -0.1090
  577BOLB   C2D13846  14.058  29.027   9.342 -0.4176 -0.2634 -0.1621
  577BOLB   C3D13847  13.781  29.174   9.158  0.0628 -0.0532  0.2445
  577BOLB   C4D13848  13.501  28.923   8.917 -0.1238  0.0678  0.1461
  578BOLB   NC113849  12.622  26.124  12.258  0.0778 -0.4045 -0.2227
  578BOLB   PO113850  12.762  26.031  12.686 -0.0996  0.2267  0.3574
  578BOLB   GL113851  13.093  26.346  12.675  0.3538 -0.1624  0.2105
  578BOLB   GL213852  13.128  26.638  12.930  0.5870  0.0811 -0.1225
  578BOLB   C1A13853  13.292  26.707  12.500 -0.0348  0.2695 -0.2026
  578BOLB   C2A13854  13.638  26.929  12.750 -0.1667 -0.3308 -0.1488
  578BOLB   C3A13855  14.093  26.788  12.737  0.1980 -0.1884  0.0263
  578BOLB   C4A13856  14.437  26.976  12.536  0.1748 -0.3134 -0.1955
  578BOLB   C1B13857  13.452  26.644  13.103  0.0496  0.1650  0.2744
  578BOLB   C2B13858  13.783  26.590  13.366  0.0085 -0.0494  0.1313
  578BOLB   C3B13859  14.048  26.822  13.269  0.0284  0.1338 -0.2651
  578BOLB   C4B13860  14.102  27.149  13.515 -0.0340 -0.1853  0.0616
  578BOLB   NC213861  16.644  27.964  12.556  0.1266  0.1565  0.2947
  578BOLB   PO213862  16.304  28.201  12.846  0.2514  0.0632  0.2349
  578BOLB   GL313863  15.978  28.120  12.678 -0.0099  0.2992  0.2326
  578BOLB   GL413864  16.089  27.872  12.434 -0.2917 -0.1207 -0.1702
  578BOLB   C1C13865  15.565  28.062  12.586  0.0132 -0.1495 -0.1924
  578BOLB   C2C13866  15.221  27.929  12.309 -0.1655 -0.0945 -0.1951
  578BOLB   C3C13867  14.855  27.769  12.569  0.2701 -0.0828 -0.4627
  578BOLB   C4C13868  14.531  27.451  12.489 -0.1024  0.2242  0.0224
  578BOLB   C1D13869  15.728  27.638  12.286  0.3287  0.0564 -0.1192
  578BOLB   C2D13870  15.438  27.506  11.987  0.0172 -0.0935 -0.0114
  578BOLB   C3D13871  15.142  27.327  11.729  0.0952 -0.1239 -0.2407
  578BOLB   C4D13872  14.955  26.954  11.507  0.0829 -0.0225 -0.2090
  579BOLB   NC113873   9.994  14.530   7.483  0.0960  0.1727  0.1208
  579BOLB   PO113874   9.888  14.108   7.601 -0.1317  0.0686  0.3717
  579BOLB   GL113875  10.206  13.741   7.606  0.0972 -0.0589 -0.0698
  579BOLB   GL213876  10.178  13.741   7.376 -0.4575 -0.0292  0.2022
  579BOLB   C1A13877  10.419  13.537   7.885  0.0010 -0.0053 -0.2235
  579BOLB   C2A13878  10.898  13.405   7.825  0.0587 -0.3001 -0.2176
  579BOLB   C3A13879  11.263  13.501   8.113  0.1345  0.1081 -0.0384
  579BOLB   C4A13880  11.579  13.209   8.154  0.0569 -0.1487 -0.1103
  579BOLB   C1B13881  10.161  13.353   7.097  0.2564  0.2034  0.2801
  579BOLB   C2B13882  10.074  13.038   6.765  0.3919  0.3183 -0.0518
  579BOLB   C3B13883  10.034  12.672   6.563  0.3253  0.2134  0.1883
  579BOLB   C4B13884   9.971  12.234   6.538 -0.0891  0.3386 -0.0640
  579BOLB   NC213885  13.574  11.359   7.608  0.2146  0.3039  0.3541
  579BOLB   PO213886  13.121  11.268   7.469  0.1356 -0.0235 -0.1685
  579BOLB   GL313887  12.819  11.507   7.549  0.2762  0.1107  0.3971
  579BOLB   GL413888  12.491  11.481   7.642 -0.0401  0.3068  0.0650
  579BOLB   C1C13889  12.786  11.872   7.848 -0.0195 -0.3243 -0.1035
  579BOLB   C2C13890  12.430  12.269   7.869  0.2680 -0.0674 -0.0380
  579BOLB   C3C13891  12.182  12.613   7.951  0.0569 -0.0905 -0.1130
  579BOLB   C4C13892  11.958  12.921   8.277 -0.0987 -0.2036  0.0159
  579BOLB   C1D13893  12.264  11.321   8.033 -0.1030  0.0025 -0.0534
  579BOLB   C2D13894  11.957  11.416   8.393 -0.0063 -0.1263  0.2324
  579BOLB   C3D13895  11.465  11.236   8.300 -0.0810 -0.2258 -0.2727
  579BOLB   C4D13896  11.369  10.854   8.179 -0.0594  0.0168 -0.1621
  580BOLB   NC113897   6.860  14.828   4.092 -0.0905  0.0432  0.2481
  580BOLB   PO113898   7.032  15.089   3.760  0.4234 -0.1798 -0.1835
  580BOLB   GL113899   7.175  14.869   3.506  0.1418  0.0226  0.2178
  580BOLB   GL213900   7.173  14.577   3.731 -0.6932 -0.1017  0.2709
  580BOLB   C1A13901   7.171  14.521   3.257  0.2831 -0.1102 -0.0719
  580BOLB   C2A13902   7.153  14.406   2.810  0.1236  0.1452 -0.0833
  580BOLB   C3A13903   7.155  14.004   2.624  0.4079  0.0349  0.3503
  580BOLB   C4A13904   6.977  13.646   2.698 -0.3456  0.0791  0.0240
  580BOLB   C1B13905   7.530  14.422   3.617 -0.0669 -0.0704 -0.0223
  580BOLB   C2B13906   7.867  14.360   3.391 -0.0656  0.0008  0.3057
  580BOLB   C3B13907   8.056  14.250   2.960 -0.0673 -0.1255  0.2701
  580BOLB   C4B13908   8.188  13.839   2.890  0.1142  0.0777 -0.0134
  580BOLB   NC213909   6.982  11.017   1.827  0.3267  0.0044 -0.2098
  580BOLB   PO213910   6.691  11.310   2.136  0.2170 -0.0701  0.0101
  580BOLB   GL313911   6.756  11.690   2.331 -0.3963 -0.1468  0.0643
  580BOLB   GL413912   6.767  11.950   2.076  0.2015  0.0139  0.0652
  580BOLB   C1C13913   7.046  12.153   2.471 -0.2069 -0.3600 -0.2633
  580BOLB   C2C13914   7.186  12.495   2.244  0.1758 -0.1597 -0.1336
  580BOLB   C3C13915   7.183  12.912   2.326 -0.0112 -0.0544 -0.1904
  580BOLB   C4C13916   7.012  13.325   2.421 -0.1444 -0.2605 -0.0838
  580BOLB   C1D13917   6.657  12.332   2.206 -0.1303  0.0336 -0.0311
  580BOLB   C2D13918   6.818  12.633   2.665  0.0367  0.1799  0.0793
  580BOLB   C3D13919   7.047  12.939   2.881 -0.0795 -0.1163  0.1854
  580BOLB   C4D13920   7.310  13.135   3.002 -0.1371  0.3082  0.0280
  581BOLB   NC113921   8.096  20.387   2.476 -0.2090  0.0016  0.0979
  581BOLB   PO113922   7.761  20.661   2.225 -0.1263 -0.3806  0.1449
  581BOLB   GL113923   7.995  20.411   1.891 -0.1516 -0.0642  0.1473
  581BOLB   GL213924   8.062  20.649   1.759 -0.0729  0.1125 -0.2046
  581BOLB   C1A13925   7.995  20.252   1.441  0.0809 -0.1916  0.0469
  581BOLB   C2A13926   8.186  20.213   1.072  0.1765  0.0307  0.1432
  581BOLB   C3A13927   7.993  20.179   0.824 -0.0090 -0.2024  0.0599
  581BOLB   C4A13928   8.040  20.170   0.369  0.1432  0.0284  0.0601
  581BOLB   C1B13929   8.297  20.704   1.452  0.1473  0.0853 -0.1938
  581BOLB   C2B13930   8.428  20.754   1.042 -0.2791 -0.1055  0.0082
  581BOLB   C3B13931   8.649  20.952   0.757  0.1601  0.1813  0.1120
  581BOLB   C4B13932   8.859  20.751   0.467  0.0712 -0.0295 -0.2873
  581BOLB   NC213933   7.986  20.463  -2.497  0.3243 -0.3586 -0.0409
  581BOLB   PO213934   7.903  20.430  -2.060  0.2267  0.2963  0.0008
  581BOLB   GL313935   7.736  20.335  -1.636  0.0417  0.0949  0.0293
  581BOLB   GL413936   7.498  20.206  -1.425  0.2422  0.1312 -0.0064
  581BOLB   C1C13937   8.015  20.347  -1.293  0.0669 -0.0835  0.0606
  581BOLB   C2C13938   8.140  20.294  -0.850  0.1752 -0.0356  0.0647
  581BOLB   C3C13939   8.000  20.168  -0.469  0.0743  0.0895 -0.2719
  581BOLB   C4C13940   7.900  20.218  -0.072  0.0949 -0.2744  0.2094
  581BOLB   C1D13941   7.291  19.987  -0.937  0.2092  0.1436  0.1815
  581BOLB   C2D13942   7.392  20.178  -0.512 -0.0828 -0.0041  0.1777
  581BOLB   C3D13943   7.353  19.993  -0.185  0.1328 -0.0769  0.0419
  581BOLB   C4D13944   7.499  19.695  -0.012 -0.1887 -0.0778  0.1328
  582BOLB   NC113945  14.028  24.841  11.916 -0.0935 -0.2496  0.0147
  582BOLB   PO113946  14.075  24.994  12.328  0.2363  0.1619  0.5707
  582BOLB   GL113947  14.428  25.139  12.105 -0.1902  0.2107  0.2953
  582BOLB   GL213948  14.411  25.333  11.887 -0.0843  0.0948 -0.0100
  582BOLB   C1A13949  14.666  25.298  12.378  0.1787  0.0776 -0.2364
  582BOLB   C2A13950  15.004  25.497  12.599 -0.4059  0.0631  0.3224
  582BOLB   C3A13951  15.490  25.678  12.769  0.0285  0.0676 -0.1106
  582BOLB   C4A13952  15.645  25.982  12.920  0.1810 -0.0641 -0.2638
  582BOLB   C1B13953  14.743  25.609  11.877  0.0571  0.1150 -0.0162
  582BOLB   C2B13954  14.920  25.829  12.173  0.1554  0.0341 -0.2312
  582BOLB   C3B13955  14.969  26.206  12.385 -0.1129 -0.0392  0.1752
  582BOLB   C4B13956  14.842  26.496  12.689 -0.2304  0.2377 -0.4546
  582BOLB   NC213957  16.743  28.318  13.041 -0.1177 -0.2752 -0.1894
  582BOLB   PO213958  16.726  27.870  13.149 -0.0900 -0.0456  0.2043
  582BOLB   GL313959  16.536  27.517  12.911  0.0159  0.0244 -0.2202
  582BOLB   GL413960  16.223  27.676  12.894  0.0101  0.2033  0.1014
  582BOLB   C1C13961  16.391  27.218  13.126 -0.0096 -0.4183  0.1788
  582BOLB   C2C13962  16.210  26.976  13.074 -0.0879 -0.1712  0.2202
  582BOLB   C3C13963  16.025  26.600  13.262 -0.2159  0.0211 -0.3105
  582BOLB   C4C13964  15.843  26.174  13.186  0.0866 -0.2020  0.2294
  582BOLB   C1D13965  15.766  27.589  12.821  0.1190  0.3017  0.0529
  582BOLB   C2D13966  15.453  27.361  13.090 -0.1205  0.0739  0.0957
  582BOLB   C3D13967  15.267  26.975  13.243 -0.0143 -0.1140 -0.4443
  582BOLB   C4D13968  15.058  26.689  13.074  0.3265 -0.0269  0.3193
  583BOLB   NC113969  10.951  14.484   8.308 -0.3448 -0.3208 -0.1319
  583BOLB   PO113970  10.661  14.231   8.030 -0.4116 -0.0871  0.2045
  583BOLB   GL113971  10.984  14.139   7.913 -0.1433 -0.1534 -0.2556
  583BOLB   GL213972  11.024  13.998   7.725 -0.2570  0.1609  0.0056
  583BOLB   C1A13973  11.428  13.948   8.023 -0.1003 -0.2932 -0.1309
  583BOLB   C2A13974  11.842  13.964   7.867 -0.1089 -0.2901 -0.1270
  583BOLB   C3A13975  12.091  13.747   7.525  0.1713  0.3763 -0.2510
  583BOLB   C4A13976  12.401  13.450   7.482  0.0398 -0.1141 -0.1566
  583BOLB   C1B13977  11.210  13.733   7.590  0.3126  0.1160  0.0117
  583BOLB   C2B13978  11.650  13.500   7.689  0.6145  0.0667  0.0893
  583BOLB   C3B13979  11.969  13.213   7.347 -0.2515  0.0470 -0.1886
  583BOLB   C4B13980  12.320  13.264   7.074 -0.2761 -0.1198  0.0927
  583BOLB   NC213981  13.680  11.553   6.702 -0.2793  0.1300  0.0300
  583BOLB   PO213982  13.610  11.271   7.035  0.0578 -0.0223  0.0367
  583BOLB   GL313983  13.298  11.636   7.183  0.1965 -0.0098  0.1770
  583BOLB   GL413984  13.256  11.793   6.920 -0.1503  0.0055 -0.0873
  583BOLB   C1C13985  12.952  11.915   7.289  0.1256 -0.2785 -0.0013
  583BOLB   C2C13986  12.558  12.229   7.264  0.2462  0.1675 -0.0691
  583BOLB   C3C13987  12.485  12.642   7.420  0.0730  0.1273 -0.1663
  583BOLB   C4C13988  12.468  13.072   7.574  0.3067 -0.2310 -0.2642
  583BOLB   C1D13989  13.483  12.088   7.207  0.3615 -0.0374 -0.2678
  583BOLB   C2D13990  13.601  12.457   7.098  0.2940 -0.2068  0.1095
  583BOLB   C3D13991  13.639  12.739   6.712  0.1155 -0.2247 -0.1402
  583BOLB   C4D13992  13.641  12.759   6.360  0.0517  0.2243 -0.3812
  584BOLB   NC113993   9.248  21.899   2.598 -0.0104  0.1321 -0.3866
  584BOLB   PO113994   8.836  21.628   2.529  0.0067 -0.0126 -0.0336
  584BOLB   GL113995   8.932  21.904   2.233  0.2544 -0.0179  0.1090
  584BOLB   GL213996   8.877  22.268   2.252 -0.0250  0.0104 -0.0453
  584BOLB   C1A13997   9.020  22.034   1.796  0.0469  0.2554  0.0393
  584BOLB   C2A13998   9.217  22.123   1.415  0.2362  0.1228 -0.1980
  584BOLB   C3A13999   9.017  22.124   1.019 -0.1206 -0.2271 -0.1975
  584BOLB   C4A14000   8.974  22.291   0.646  0.1749  0.2870  0.3290
  584BOLB   C1B14001   8.882  22.569   1.882 -0.0765 -0.5132 -0.1307
  584BOLB   C2B14002   8.992  22.565   1.545 -0.3937 -0.0065  0.1075
  584BOLB   C3B14003   8.911  22.579   1.205  0.0269  0.1894 -0.1545
  584BOLB   C4B14004   9.224  22.633   0.859  0.4021  0.0861  0.5658
  584BOLB   NC214005  10.005  23.097  -1.395 -0.1299  0.1075 -0.0746
  584BOLB   PO214006   9.530  22.893  -1.412 -0.0517  0.1812  0.0721
  584BOLB   GL314007   9.342  22.982  -1.031  0.1344  0.2560 -0.4054
  584BOLB   GL414008   9.605  23.096  -0.930  0.0299  0.1881 -0.0895
  584BOLB   C1C14009   9.093  22.614  -0.867  0.1330 -0.2028  0.1600
  584BOLB   C2C14010   8.811  22.310  -0.549  0.4143 -0.1289  0.1696
  584BOLB   C3C14011   8.596  22.260  -0.215  0.1599  0.1785  0.4404
  584BOLB   C4C14012   8.705  22.262   0.301  0.2593 -0.1248  0.2133
  584BOLB   C1D14013   9.527  22.925  -0.531 -0.0427  0.1756 -0.0000
  584BOLB   C2D14014   9.512  22.988  -0.157 -0.0689 -0.0955  0.0884
  584BOLB   C3D14015   9.244  22.785   0.062  0.0469  0.0848  0.0692
  584BOLB   C4D14016   9.063  22.351  -0.034  0.3293 -0.2750 -0.0411
  585BOLB   NC114017   7.969  29.093   9.115 -0.1173  0.2594 -0.2310
  585BOLB   PO114018   7.817  29.038   9.562 -0.1139 -0.1603  0.0325
  585BOLB   GL114019   7.790  29.499   9.322 -0.3772  0.0458  0.1395
  585BOLB   GL214020   8.152  29.583   9.199 -0.2861  0.2550  0.0426
  585BOLB   C1A14021   7.759  29.982   9.231 -0.1436  0.1872 -0.1900
  585BOLB   C2A14022   7.896  30.413   9.160 -0.1098  0.0794 -0.0208
  585BOLB   C3A14023   7.818  30.864   9.267 -0.0931  0.0053  0.0772
  585BOLB   C4A14024   7.950  31.117   9.548  0.0800  0.3884  0.1105
  585BOLB   C1B14025   8.239  29.940   9.095  0.0515 -0.3230  0.2048
  585BOLB   C2B14026   8.412  30.350   9.215  0.0665  0.2462  0.0808
  585BOLB   C3B14027   8.361  30.789   9.272 -0.0174  0.1475 -0.1979
  585BOLB   C4B14028   8.617  31.089   9.541 -0.2277  0.1138 -0.3354
  585BOLB   NC214029   7.794  33.352   9.611 -0.2394  0.3072 -0.1076
  585BOLB   PO214030   7.486  33.280   9.759 -0.1576  0.2382 -0.0449
  585BOLB   GL314031   7.348  32.971  10.004 -0.0679  0.2303 -0.1473
  585BOLB   GL414032   7.156  32.857  10.302 -0.2857 -0.3243 -0.1200
  585BOLB   C1C14033   7.261  32.503   9.989  0.0043  0.2797 -0.1349
  585BOLB   C2C14034   7.273  32.041   9.897  0.1524  0.4268  0.0496
  585BOLB   C3C14035   7.463  31.621  10.005 -0.3268  0.2870 -0.0554
  585BOLB   C4C14036   7.841  31.411   9.874 -0.1344 -0.0922 -0.2487
  585BOLB   C1D14037   7.485  32.629  10.412  0.1024 -0.0015  0.2463
  585BOLB   C2D14038   7.418  32.151  10.326 -0.3113  0.0656 -0.0057
  585BOLB   C3D14039   7.432  31.728  10.483  0.1117  0.1322  0.3335
  585BOLB   C4D14040   7.399  31.562  10.880  0.1262  0.1777  0.5170
  586BOLB   NC114041   4.172  27.919  14.003 -0.2792 -0.0970 -0.0253
  586BOLB   PO114042   4.289  28.259  13.651 -0.1515  0.0436  0.0528
  586BOLB   GL114043   4.147  28.574  13.849  0.1989  0.1652 -0.0997
  586BOLB   GL214044   3.904  28.408  14.072 -0.2651 -0.0281  0.1433
  586BOLB   C1A14045   4.257  28.991  14.015  0.2595  0.2833  0.1007
  586BOLB   C2A14046   4.162  29.285  14.431  0.2312  0.1912  0.0245
  586BOLB   C3A14047   4.005  29.524  14.778 -0.2098  0.2449  0.2073
  586BOLB   C4A14048   3.821  29.586  15.181 -0.0186 -0.0411 -0.1789
  586BOLB   C1B14049   3.757  28.642  14.299  0.1076  0.4901  0.1821
  586BOLB   C2B14050   3.762  29.081  14.257  0.2438  0.1074  0.1083
  586BOLB   C3B14051   3.504  29.323  14.240  0.1898 -0.0731  0.0285
  586BOLB   C4B14052   3.574  29.601  13.948 -0.0837 -0.1483  0.3504
  586BOLB   NC214053   4.252  31.825  16.428  0.0434  0.1480  0.1178
  586BOLB   PO214054   4.301  31.441  16.428  0.0482  0.1621  0.0356
  586BOLB   GL314055   4.507  31.241  16.102  0.1547  0.1792 -0.0716
  586BOLB   GL414056   4.375  31.407  15.879 -0.1856  0.1980 -0.2781
  586BOLB   C1C14057   4.422  30.861  16.067 -0.1264  0.3474  0.2405
  586BOLB   C2C14058   4.132  30.510  15.837 -0.2671 -0.1439 -0.1020
  586BOLB   C3C14059   3.908  30.210  15.571 -0.2222  0.0557 -0.0192
  586BOLB   C4C14060   3.761  29.888  15.472  0.2101 -0.3008 -0.2065
  586BOLB   C1D14061   4.570  31.171  15.509  0.1784 -0.2098  0.1767
  586BOLB   C2D14062   4.956  30.857  15.477 -0.1020  0.1118  0.0998
  586BOLB   C3D14063   5.410  30.776  15.354 -0.1138 -0.1942  0.0137
  586BOLB   C4D14064   5.680  30.902  15.058  0.0296 -0.0817 -0.3643
  587BOLB   NC114065  14.568  17.844   8.562 -0.0014  0.0631  0.0384
  587BOLB   PO114066  14.469  18.058   8.916  0.1351  0.5521 -0.0850
  587BOLB   GL114067  14.777  17.822   9.140 -0.1161  0.2887 -0.0079
  587BOLB   GL214068  15.009  17.707   8.883  0.1302  0.1727  0.3906
  587BOLB   C1A14069  15.038  17.827   9.482 -0.4935  0.0588 -0.1234
  587BOLB   C2A14070  15.397  17.649   9.658 -0.2558  0.2626 -0.0743
  587BOLB   C3A14071  15.889  17.462   9.693  0.1546  0.0347  0.1906
  587BOLB   C4A14072  16.214  17.298   9.480  0.0111 -0.3072  0.3115
  587BOLB   C1B14073  15.265  17.261   8.832  0.1833  0.1082  0.0218
  587BOLB   C2B14074  15.684  17.141   8.773  0.0326 -0.2043  0.0855
  587BOLB   C3B14075  15.994  17.062   8.624 -0.3092 -0.2714  0.0560
  587BOLB   C4B14076  16.320  17.255   8.483 -0.1250  0.2727 -0.1557
  587BOLB   NC214077  18.288  16.685  10.639 -0.2312  0.2637  0.3343
  587BOLB   PO214078  18.402  16.669  10.222  0.2591 -0.2995  0.1889
  587BOLB   GL314079  18.025  16.788  10.132 -0.0847 -0.0495  0.0740
  587BOLB   GL414080  18.094  17.175  10.097 -0.1349 -0.0272  0.1984
  587BOLB   C1C14081  17.786  16.886   9.797  0.0860 -0.0247 -0.1150
  587BOLB   C2C14082  17.385  17.087   9.625 -0.0450  0.1519 -0.0171
  587BOLB   C3C14083  16.918  17.216   9.639 -0.0444 -0.0502  0.2968
  587BOLB   C4C14084  16.644  17.165   9.514 -0.1927 -0.1596 -0.3210
  587BOLB   C1D14085  17.710  17.281  10.090 -0.0275 -0.0239 -0.1172
  587BOLB   C2D14086  17.332  17.531   9.994  0.0581  0.0355  0.1574
  587BOLB   C3D14087  16.975  17.720   9.881 -0.1166  0.0495 -0.1454
  587BOLB   C4D14088  16.579  17.650   9.776  0.2787 -0.1167  0.4715
  588BOLB   NC114089  38.323  26.201   9.990 -0.2690 -0.0449  0.0476
  588BOLB   PO114090  38.116  25.803   9.929  0.2017 -0.0141  0.0144
  588BOLB   GL114091  37.727  25.997  10.130  0.0925  0.1662 -0.2975
  588BOLB   GL214092  37.819  26.272   9.825  0.0369 -0.1392  0.0263
  588BOLB   C1A14093  37.548  26.328  10.457  0.0993 -0.1371  0.2411
  588BOLB   C2A14094  37.326  26.677  10.626  0.2902 -0.0780  0.0788
  588BOLB   C3A14095  36.941  26.808  10.958  0.1845  0.0069 -0.2334
  588BOLB   C4A14096  36.618  26.920  11.265 -0.0285  0.0494  0.0903
  588BOLB   C1B14097  37.522  26.587   9.731  0.2723 -0.2420  0.1315
  588BOLB   C2B14098  37.273  26.922  10.014 -0.0493  0.1974 -0.5108
  588BOLB   C3B14099  37.404  27.302  10.132  0.0683  0.1332  0.0740
  588BOLB   C4B14100  37.527  27.602  10.412 -0.0293  0.1961 -0.2812
  588BOLB   NC214101  35.368  28.562  11.576  0.1901  0.0210  0.0603
  588BOLB   PO214102  35.158  28.382  11.948 -0.2438  0.0616  0.3511
  588BOLB   GL314103  35.466  28.313  12.133  0.1090  0.1230 -0.0713
  588BOLB   GL414104  35.609  28.693  12.206  0.0150  0.0610  0.1277
  588BOLB   C1C14105  35.701  27.898  12.141 -0.1187 -0.1033  0.0353
  588BOLB   C2C14106  36.046  27.729  11.988  0.2782  0.2245  0.0270
  588BOLB   C3C14107  36.391  27.487  11.912  0.1531 -0.0854 -0.0874
  588BOLB   C4C14108  36.549  27.099  11.679  0.2775  0.1252  0.0997
  588BOLB   C1D14109  35.937  28.349  12.205 -0.0269  0.0115 -0.1050
  588BOLB   C2D14110  36.411  28.139  12.098  0.2389  0.0344  0.0209
  588BOLB   C3D14111  36.702  27.790  12.107 -0.3227 -0.1032  0.1451
  588BOLB   C4D14112  36.899  27.387  12.047  0.0969 -0.1891 -0.2481
  589BOLB   NC114113  32.098  12.176   9.368  0.1072 -0.0484  0.0184
  589BOLB   PO114114  31.828  12.174   9.100  0.2235  0.0937  0.2526
  589BOLB   GL114115  31.882  12.612   9.215  0.1658  0.1217 -0.0121
  589BOLB   GL214116  32.198  12.572   9.044  0.2575  0.1146  0.0129
  589BOLB   C1A14117  32.198  13.020   9.272  0.1463 -0.1999  0.2156
  589BOLB   C2A14118  32.511  13.319   9.468 -0.4088 -0.0001  0.0560
  589BOLB   C3A14119  32.702  13.748   9.508 -0.1134  0.1277 -0.1189
  589BOLB   C4A14120  32.743  14.145   9.416  0.0299 -0.0826  0.0447
  589BOLB   C1B14121  32.453  12.775   8.922 -0.1848 -0.0609 -0.1172
  589BOLB   C2B14122  32.717  13.013   8.847 -0.0957 -0.0460 -0.3275
  589BOLB   C3B14123  33.025  13.183   8.681 -0.0176 -0.2086 -0.0807
  589BOLB   C4B14124  33.225  13.535   8.819 -0.2257 -0.0069  0.1037
  589BOLB   NC214125  32.039  13.341   7.538  0.3702 -0.0399  0.1084
  589BOLB   PO214126  31.825  13.689   7.707  0.4794  0.0976 -0.0998
  589BOLB   GL314127  32.177  13.737   7.986  0.1182  0.3994  0.3833
  589BOLB   GL414128  31.999  13.879   8.196  0.2562  0.0182  0.2248
  589BOLB   C1C14129  32.635  13.825   8.191 -0.2132 -0.0868  0.2366
  589BOLB   C2C14130  32.529  14.030   8.528  0.3597  0.1552  0.4055
  589BOLB   C3C14131  32.465  14.368   8.816 -0.2151  0.5724  0.1320
  589BOLB   C4C14132  32.691  14.499   9.161  0.0668  0.0565 -0.0928
  589BOLB   C1D14133  32.191  14.228   7.902 -0.1710  0.2541  0.0825
  589BOLB   C2D14134  32.552  14.449   7.792 -0.1024 -0.2950 -0.0881
  589BOLB   C3D14135  32.983  14.663   7.932  0.1614 -0.2284 -0.0998
  589BOLB   C4D14136  33.060  14.839   8.361 -0.1753 -0.1244 -0.1870
  590BOLB   NC114137   8.482  14.250   5.639 -0.0502  0.0620  0.0204
  590BOLB   PO114138   8.677  14.252   6.024  0.2559  0.0348  0.0284
  590BOLB   GL114139   8.620  13.815   5.835  0.2335  0.0688  0.3628
  590BOLB   GL214140   8.807  13.874   5.546 -0.1403 -0.0870 -0.1246
  590BOLB   C1A14141   8.723  13.355   5.784  0.0069 -0.1122  0.1189
  590BOLB   C2A14142   8.916  13.039   5.931 -0.0318  0.0885 -0.1167
  590BOLB   C3A14143   9.122  12.675   5.850  0.0590  0.0775  0.3758
  590BOLB   C4A14144   9.294  12.324   5.983  0.4109  0.0106  0.0035
  590BOLB   C1B14145   8.947  13.498   5.379 -0.1037 -0.1765 -0.1924
  590BOLB   C2B14146   9.027  13.066   5.401  0.2982  0.0903  0.3927
  590BOLB   C3B14147   9.213  12.697   5.278 -0.1143  0.1267 -0.0673
  590BOLB   C4B14148   9.564  12.426   5.194 -0.2638 -0.0268 -0.2078
  590BOLB   NC214149  10.655  10.663   5.045  0.0177 -0.1062  0.0902
  590BOLB   PO214150  10.588  10.357   5.370  0.0559  0.2279  0.1514
  590BOLB   GL314151  10.491  10.837   5.449  0.1855 -0.2556  0.1733
  590BOLB   GL414152  10.613  11.116   5.191  0.1720  0.0631 -0.0605
  590BOLB   C1C14153  10.291  11.196   5.664 -0.4333  0.1055 -0.0942
  590BOLB   C2C14154  10.151  11.517   5.942  0.2683 -0.0998 -0.2459
  590BOLB   C3C14155   9.935  11.756   6.265  0.4416 -0.2084 -0.1168
  590BOLB   C4C14156   9.652  12.084   6.168 -0.0586  0.0111  0.1977
  590BOLB   C1D14157  10.308  11.376   5.091  0.0829  0.2690  0.1632
  590BOLB   C2D14158  10.069  11.554   5.384  0.2587  0.0601  0.2503
  590BOLB   C3D14159   9.774  11.762   5.696  0.2513  0.0628  0.0245
  590BOLB   C4D14160   9.544  12.152   5.621 -0.1380 -0.0888 -0.0221
  591BOLB   NC114161  10.859  25.710  15.982 -0.0139  0.4427  0.1627
  591BOLB   PO114162  11.073  25.774  16.396 -0.1503  0.0414 -0.1622
  591BOLB   GL114163  11.445  25.962  16.474  0.0389  0.4961 -0.0414
  591BOLB   GL214164  11.450  26.312  16.533  0.1012  0.2447 -0.0466
  591BOLB   C1A14165  11.893  25.988  16.745 -0.2797  0.2802 -0.0703
  591BOLB   C2A14166  11.822  26.189  17.124  0.0716 -0.0496 -0.3708
  591BOLB   C3A14167  11.502  26.444  17.406 -0.1445 -0.2384 -0.0449
  591BOLB   C4A14168  11.431  26.421  17.878  0.2479 -0.2702 -0.1720
  591BOLB   C1B14169  11.664  26.561  16.698  0.6008  0.0141 -0.0341
  591BOLB   C2B14170  11.615  26.856  17.144 -0.2106  0.0281  0.0749
  591BOLB   C3B14171  11.593  27.242  17.455 -0.1115  0.0444 -0.1867
  591BOLB   C4B14172  11.711  27.296  17.865 -0.1339 -0.1309 -0.3694
  591BOLB   NC214173  12.685  28.512  19.624  0.1431 -0.0207  0.2336
  591BOLB   PO214174  12.859  28.057  19.717  0.0164 -0.0476 -0.1353
  591BOLB   GL314175  12.549  27.914  19.435  0.0137 -0.0290 -0.2219
  591BOLB   GL414176  12.328  28.074  19.407 -0.1612 -0.2636  0.0270
  591BOLB   C1C14177  12.196  27.646  19.186  0.0857 -0.1400  0.0040
  591BOLB   C2C14178  11.979  27.157  19.041 -0.0797  0.2772  0.0201
  591BOLB   C3C14179  11.879  26.845  18.704  0.0536  0.2907  0.0902
  591BOLB   C4C14180  11.614  26.620  18.308  0.2722 -0.2550  0.3060
  591BOLB   C1D14181  11.936  28.148  19.137 -0.3386  0.0154  0.1552
  591BOLB   C2D14182  11.546  28.104  18.995  0.1864 -0.1279 -0.0274
  591BOLB   C3D14183  11.224  27.785  18.806 -0.0964 -0.5176  0.0171
  591BOLB   C4D14184  11.148  27.524  18.376 -0.0408 -0.2400  0.3798
  592BOLB   NC114185   5.165  14.527   5.415  0.0120 -0.0097  0.4928
  592BOLB   PO114186   4.871  14.843   5.195 -0.0239  0.2306  0.2338
  592BOLB   GL114187   4.731  14.661   4.894  0.1960  0.0237 -0.0799
  592BOLB   GL214188   4.437  14.722   4.808 -0.2325 -0.3914 -0.3100
  592BOLB   C1A14189   4.589  14.281   4.640 -0.1329 -0.1733  0.0053
  592BOLB   C2A14190   4.597  13.933   4.512 -0.1058 -0.0338  0.0351
  592BOLB   C3A14191   4.497  13.644   4.108 -0.1653 -0.1405 -0.2905
  592BOLB   C4A14192   4.266  13.444   3.747 -0.1635  0.1100  0.0153
  592BOLB   C1B14193   4.056  14.277   4.625  0.0357 -0.0095  0.2070
  592BOLB   C2B14194   3.672  14.075   4.438 -0.0759 -0.0271  0.0576
  592BOLB   C3B14195   3.540  13.733   4.516  0.0382  0.0231  0.2223
  592BOLB   C4B14196   3.711  13.290   4.523  0.2750  0.1941 -0.0115
  592BOLB   NC214197   3.854  12.147   1.581  0.0534 -0.0329 -0.0277
  592BOLB   PO214198   4.326  11.993   1.724  0.1021 -0.0507 -0.2436
  592BOLB   GL314199   4.246  12.006   2.253 -0.0321  0.0644 -0.0123
  592BOLB   GL414200   3.944  11.877   2.414  0.3428 -0.0722  0.3041
  592BOLB   C1C14201   4.301  12.329   2.577  0.0138  0.1205 -0.0336
  592BOLB   C2C14202   4.265  12.422   3.005  0.0507 -0.2130 -0.2440
  592BOLB   C3C14203   4.256  12.868   3.117 -0.2239 -0.0824 -0.0266
  592BOLB   C4C14204   4.272  13.200   3.468 -0.0575  0.0207  0.0740
  592BOLB   C1D14205   3.796  12.343   2.430 -0.2435  0.0152 -0.1982
  592BOLB   C2D14206   3.602  12.656   2.612  0.0067 -0.0270 -0.0650
  592BOLB   C3D14207   3.489  12.992   2.460 -0.1021  0.1825 -0.0895
  592BOLB   C4D14208   3.179  13.307   2.306  0.0197  0.2193 -0.1537
  593BOLB   NC114209   6.292  16.383  15.863 -0.2086  0.0634 -0.1658
  593BOLB   PO114210   6.583  16.189  16.202 -0.3095 -0.2668 -0.0329
  593BOLB   GL114211   6.607  16.015  16.658  0.0677  0.2412  0.0186
  593BOLB   GL214212   6.460  15.903  16.690 -0.0455  0.0388  0.1468
  593BOLB   C1A14213   6.972  15.923  17.095  0.1660 -0.0540  0.1329
  593BOLB   C2A14214   7.166  15.737  17.428 -0.0846  0.0409  0.0805
  593BOLB   C3A14215   7.164  15.530  17.759 -0.0901 -0.0444 -0.0275
  593BOLB   C4A14216   7.116  15.172  18.040  0.0008  0.0309  0.2334
  593BOLB   C1B14217   6.583  15.656  17.054  0.1387 -0.1240  0.0857
  593BOLB   C2B14218   6.697  15.630  17.477  0.0895 -0.0731 -0.2110
  593BOLB   C3B14219   6.695  15.573  17.909  0.0666  0.0960  0.1789
  593BOLB   C4B14220   6.727  15.342  18.319  0.3193 -0.1972  0.0884
  593BOLB   NC214221   6.867  14.617  20.664 -0.1119 -0.1489  0.0793
  593BOLB   PO214222   6.622  14.368  20.381 -0.1602 -0.0653 -0.2396
  593BOLB   GL314223   6.786  14.747  20.042 -0.3774  0.0593 -0.2414
  593BOLB   GL414224   7.136  14.851  20.128  0.1023  0.3827 -0.2147
  593BOLB   C1C14225   6.802  14.884  19.649  0.0126  0.0562  0.3234
  593BOLB   C2C14226   7.044  14.856  19.257 -0.1275 -0.0717  0.3109
  593BOLB   C3C14227   7.064  14.963  18.751  0.2186 -0.2030 -0.2797
  593BOLB   C4C14228   7.048  14.839  18.355 -0.1368 -0.2359  0.0477
  593BOLB   C1D14229   7.185  15.317  20.160 -0.1007  0.0460 -0.0919
  593BOLB   C2D14230   7.331  15.735  19.910  0.0119 -0.1233 -0.0489
  593BOLB   C3D14231   7.264  16.117  19.706 -0.1207 -0.3112  0.1284
  593BOLB   C4D14232   6.959  16.299  19.827  0.1071 -0.0157  0.2590
  594BOLB   NC114233  11.885  25.116  15.468 -0.0757  0.0470 -0.0402
  594BOLB   PO114234  12.141  25.385  15.269 -0.2243 -0.2546  0.3333
  594BOLB   GL114235  12.368  25.632  15.507 -0.4049  0.0542 -0.0029
  594BOLB   GL214236  12.258  25.890  15.311  0.2517 -0.0771  0.0882
  594BOLB   C1A14237  12.727  25.689  15.725  0.3404 -0.0724  0.0921
  594BOLB   C2A14238  12.966  25.977  16.018 -0.4488  0.2315  0.2590
  594BOLB   C3A14239  12.940  26.274  16.368  0.0135  0.1095 -0.0834
  594BOLB   C4A14240  13.128  26.567  16.560 -0.3076 -0.0629  0.3800
  594BOLB   C1B14241  12.642  26.086  15.451 -0.1237 -0.0992 -0.4559
  594BOLB   C2B14242  12.979  26.238  15.510 -0.4222  0.0248 -0.0758
  594BOLB   C3B14243  13.355  26.509  15.523 -0.1336 -0.1345 -0.1233
  594BOLB   C4B14244  13.693  26.771  15.680 -0.0206 -0.0789  0.5964
  594BOLB   NC214245  13.769  28.927  16.826 -0.2747 -0.3364 -0.3818
  594BOLB   PO214246  14.039  28.717  16.421 -0.0111 -0.1269  0.0665
  594BOLB   GL314247  13.853  28.417  16.680 -0.0693 -0.1037  0.0551
  594BOLB   GL414248  13.515  28.419  16.738 -0.0386 -0.0009 -0.1672
  594BOLB   C1C14249  13.795  27.978  16.687  0.4420 -0.0244 -0.0540
  594BOLB   C2C14250  13.471  27.619  16.658 -0.2247  0.3460 -0.0552
  594BOLB   C3C14251  13.138  27.336  16.824  0.1880 -0.2457  0.0460
  594BOLB   C4C14252  12.983  26.954  16.741  0.2425  0.2409  0.1486
  594BOLB   C1D14253  13.385  28.012  16.456  0.0214  0.2022  0.0945
  594BOLB   C2D14254  13.387  27.979  16.001 -0.0129  0.0540 -0.1036
  594BOLB   C3D14255  13.279  27.841  15.524 -0.0340  0.0976  0.0980
  594BOLB   C4D14256  13.383  27.665  15.176  0.0587 -0.0403  0.2035
  595BOLB   NC114257  10.793  27.711   7.957 -0.0845  0.3795  0.3842
  595BOLB   PO114258  10.579  27.763   7.575 -0.1042 -0.0365 -0.2386
  595BOLB   GL114259  10.955  27.913   7.492  0.3130 -0.1632 -0.1001
  595BOLB   GL214260  11.270  27.998   7.779 -0.0433  0.1291  0.0646
  595BOLB   C1A14261  11.341  27.950   7.233 -0.1950  0.1515 -0.1811
  595BOLB   C2A14262  11.628  28.088   6.920 -0.2115  0.1314 -0.1067
  595BOLB   C3A14263  11.857  28.145   6.524 -0.0476  0.3034 -0.0052
  595BOLB   C4A14264  12.160  28.416   6.222  0.3971  0.4553 -0.1431
  595BOLB   C1B14265  11.566  28.306   7.891 -0.0124 -0.4127  0.1340
  595BOLB   C2B14266  11.746  28.671   7.802 -0.2497  0.3065 -0.2336
  595BOLB   C3B14267  11.939  28.835   7.433 -0.2496  0.1962 -0.1234
  595BOLB   C4B14268  12.407  28.998   7.305 -0.0982  0.1769 -0.2933
  595BOLB   NC214269  13.113  29.929   5.111  0.0957 -0.3695  0.2520
  595BOLB   PO214270  13.090  29.580   4.960  0.1756 -0.0617  0.1270
  595BOLB   GL314271  12.718  29.528   5.117  0.0253  0.0762 -0.0704
  595BOLB   GL414272  12.607  29.683   5.359  0.1443  0.2751  0.4085
  595BOLB   C1C14273  12.664  29.198   5.405  0.0468  0.0711  0.1132
  595BOLB   C2C14274  12.671  28.977   5.551 -0.0208 -0.0163 -0.3011
  595BOLB   C3C14275  12.409  28.664   5.586  0.2691 -0.2375 -0.0786
  595BOLB   C4C14276  12.151  28.451   5.800 -0.3474 -0.0472 -0.0192
  595BOLB   C1D14277  12.627  29.448   5.799  0.0568 -0.1660 -0.0138
  595BOLB   C2D14278  12.594  29.051   6.094 -0.1096 -0.0268 -0.1867
  595BOLB   C3D14279  12.648  28.773   6.437 -0.0938  0.0947  0.2596
  595BOLB   C4D14280  12.683  28.383   6.617  0.0164  0.0011 -0.0636
  596BOLB   NC114281   8.291  29.062  10.550  0.1456 -0.0854  0.1225
  596BOLB   PO114282   8.509  29.045  10.144 -0.3732  0.2477 -0.3168
  596BOLB   GL114283   8.795  29.304  10.271  0.2943  0.0931 -0.0385
  596BOLB   GL214284   8.613  29.486  10.032 -0.2824 -0.0670 -0.0864
  596BOLB   C1A14285   8.949  29.794  10.164 -0.0273  0.1166  0.0440
  596BOLB   C2A14286   9.233  30.128  10.096  0.1233  0.2317 -0.2523
  596BOLB   C3A14287   9.358  30.504  10.326  0.0694  0.2454  0.2952
  596BOLB   C4A14288   9.825  30.597  10.403 -0.1287 -0.3722  0.2457
  596BOLB   C1B14289   8.478  29.854  10.129 -0.1250 -0.1073 -0.1208
  596BOLB   C2B14290   8.672  30.249   9.894  0.3579  0.0903 -0.0491
  596BOLB   C3B14291   8.667  30.481   9.589  0.1519  0.1022 -0.0065
  596BOLB   C4B14292   8.859  30.739   9.345 -0.3756  0.0496  0.0473
  596BOLB   NC214293  10.019  33.233   9.447 -0.2663  0.0873 -0.3499
  596BOLB   PO214294  10.185  32.876   9.381  0.2600  0.3981  0.2625
  596BOLB   GL314295  10.283  32.360   9.347  0.1856  0.0958  0.0398
  596BOLB   GL414296  10.329  32.487   9.659 -0.0013  0.1653 -0.0747
  596BOLB   C1C14297  10.278  31.968   9.670 -0.2511  0.0011  0.3181
  596BOLB   C2C14298  10.330  31.567  10.030 -0.2693 -0.2210 -0.0861
  596BOLB   C3C14299  10.271  31.305  10.429  0.0000 -0.2122  0.3690
  596BOLB   C4C14300  10.051  31.002  10.534 -0.0140  0.3108 -0.0628
  596BOLB   C1D14301   9.886  32.338   9.660 -0.2549 -0.1124  0.0533
  596BOLB   C2D14302   9.475  32.218   9.849  0.2515 -0.3729  0.3633
  596BOLB   C3D14303   9.308  31.767   9.982 -0.3492  0.0983 -0.0277
  596BOLB   C4D14304   9.048  31.637  10.396 -0.1278  0.2958  0.1113
  597BOLB   NC114305  11.655  23.600  16.015 -0.4708  0.2339 -0.3033
  597BOLB   PO114306  11.840  23.592  16.490  0.0766  0.0854  0.3112
  597BOLB   GL114307  11.926  23.768  16.842 -0.0303 -0.1838 -0.0338
  597BOLB   GL214308  12.062  23.501  16.988 -0.2027  0.1091 -0.0240
  597BOLB   C1A14309  12.049  24.050  17.124 -0.2187  0.0404 -0.1304
  597BOLB   C2A14310  12.051  24.510  17.288 -0.1715  0.0250 -0.0039
  597BOLB   C3A14311  12.032  24.907  17.484  0.2415 -0.0954  0.2003
  597BOLB   C4A14312  12.407  25.050  17.560  0.0724 -0.0618  0.0469
  597BOLB   C1B14313  12.377  23.573  17.197  0.0874 -0.0194  0.2556
  597BOLB   C2B14314  12.813  23.438  17.184 -0.2453 -0.0843 -0.2984
  597BOLB   C3B14315  13.209  23.407  17.451 -0.2525  0.1389 -0.3082
  597BOLB   C4B14316  13.583  23.136  17.462 -0.0232  0.0215 -0.1580
  597BOLB   NC214317  13.723  26.888  18.860 -0.0156 -0.0201 -0.2107
  597BOLB   PO214318  14.096  26.694  18.836 -0.0614 -0.0137  0.1240
  597BOLB   GL314319  13.683  26.370  18.750  0.1723 -0.1824  0.3450
  597BOLB   GL414320  13.518  26.563  18.563 -0.0048  0.0384 -0.1884
  597BOLB   C1C14321  13.428  25.924  18.574  0.0720 -0.3084  0.0759
  597BOLB   C2C14322  13.259  25.806  18.159 -0.3256 -0.1258 -0.1877
  597BOLB   C3C14323  13.133  25.424  17.783 -0.2035 -0.3324 -0.3243
  597BOLB   C4C14324  12.750  25.289  17.679  0.0027  0.4168 -0.0629
  597BOLB   C1D14325  13.599  26.515  18.051  0.0921  0.1252  0.1781
  597BOLB   C2D14326  13.335  26.467  17.748 -0.1960 -0.2306  0.0415
  597BOLB   C3D14327  13.115  26.631  17.489  0.4139  0.1400  0.1044
  597BOLB   C4D14328  12.898  26.590  17.053 -0.2170  0.1095  0.1258
  598BOLB   NC114329  14.441  23.875  12.962  0.0021  0.2267 -0.0729
  598BOLB   PO114330  14.472  23.406  12.967  0.0907  0.0334 -0.0167
  598BOLB   GL114331  14.827  23.658  13.197  0.2023 -0.0645  0.0437
  598BOLB   GL214332  14.922  23.817  12.897  0.0761  0.0693 -0.1291
  598BOLB   C1A14333  15.071  23.726  13.424 -0.2002 -0.0443  0.1173
  598BOLB   C2A14334  15.436  23.814  13.448  0.1018  0.3609 -0.4157
  598BOLB   C3A14335  15.924  23.917  13.640 -0.3409 -0.1982  0.2205
  598BOLB   C4A14336  16.185  24.230  13.541 -0.2955  0.2200  0.1924
  598BOLB   C1B14337  15.184  24.164  13.171 -0.2470 -0.1979 -0.0937
  598BOLB   C2B14338  15.648  24.211  13.337  0.3005 -0.1989 -0.0982
  598BOLB   C3B14339  15.991  24.328  13.119 -0.0919  0.2502  0.2752
  598BOLB   C4B14340  16.322  24.436  13.066  0.0082  0.0041 -0.1293
  598BOLB   NC214341  17.810  25.465  14.796 -0.1540 -0.6756 -0.0967
  598BOLB   PO214342  17.398  25.607  14.751 -0.0156  0.1203  0.1189
  598BOLB   GL314343  17.309  25.335  14.491  0.3412 -0.0256 -0.2332
  598BOLB   GL414344  17.304  25.496  14.110  0.3355 -0.0544 -0.0505
  598BOLB   C1C14345  17.275  25.044  14.157  0.0528 -0.1830 -0.1512
  598BOLB   C2C14346  16.879  24.955  13.974 -0.0912  0.3578 -0.2406
  598BOLB   C3C14347  16.613  24.692  13.849  0.3354 -0.1090  0.1053
  598BOLB   C4C14348  16.414  24.522  13.561  0.1242 -0.0458 -0.1116
  598BOLB   C1D14349  17.142  25.402  13.739  0.1520  0.0112 -0.0157
  598BOLB   C2D14350  16.719  25.150  13.560  0.1255  0.0544 -0.1757
  598BOLB   C3D14351  16.268  25.064  13.698 -0.1541  0.2245  0.1310
  598BOLB   C4D14352  16.146  24.688  13.997 -0.3515  0.2695 -0.4658
  599BOLB   NC114353   9.399  28.215  11.887 -0.0308 -0.2031 -0.1948
  599BOLB   PO114354   9.292  28.558  12.276  0.1174 -0.0865 -0.0631
  599BOLB   GL114355   9.506  28.861  12.086 -0.0438 -0.3663 -0.5422
  599BOLB   GL214356   9.558  29.074  12.389  0.0279 -0.2449  0.1203
  599BOLB   C1A14357   9.624  29.216  11.794  0.3253 -0.0346 -0.2615
  599BOLB   C2A14358   9.845  29.685  11.815  0.0474 -0.1101 -0.0625
  599BOLB   C3A14359  10.206  29.737  11.650 -0.0501  0.3202 -0.1322
  599BOLB   C4A14360  10.609  29.989  11.629  0.1606 -0.1179  0.0861
  599BOLB   C1B14361   9.844  29.370  12.189 -0.0853 -0.2814  0.0515
  599BOLB   C2B14362  10.281  29.482  12.173 -0.1216 -0.1043  0.1436
  599BOLB   C3B14363  10.670  29.785  12.381 -0.1151  0.0742 -0.1817
  599BOLB   C4B14364  10.761  30.206  12.307  0.0153 -0.1092  0.0487
  599BOLB   NC214365  11.828  32.011  11.052  0.0695 -0.0634 -0.2048
  599BOLB   PO214366  11.501  32.154  11.194  0.0388  0.1293  0.2341
  599BOLB   GL314367  11.385  31.736  11.187  0.2301  0.3170  0.2054
  599BOLB   GL414368  11.240  31.644  10.877 -0.0351  0.0285 -0.0912
  599BOLB   C1C14369  11.263  31.564  11.642  0.1796 -0.1368  0.1854
  599BOLB   C2C14370  10.956  31.173  11.717  0.0075 -0.0465 -0.0324
  599BOLB   C3C14371  10.958  30.812  11.843  0.0557  0.2816 -0.0668
  599BOLB   C4C14372  10.862  30.284  11.805 -0.1534  0.2920  0.2169
  599BOLB   C1D14373  11.220  31.219  11.022  0.1360 -0.0128  0.1717
  599BOLB   C2D14374  11.069  30.866  10.838 -0.0117  0.0747  0.2770
  599BOLB   C3D14375  11.339  30.576  10.691  0.3071 -0.1107 -0.0404
  599BOLB   C4D14376  11.396  30.219  10.497 -0.1554 -0.0838 -0.1032
  600BOLB   NC114377  12.872  17.267   5.945  0.0380  0.0003  0.0562
  600BOLB   PO114378  13.187  17.020   5.757 -0.2622 -0.2084 -0.3623
  600BOLB   GL114379  13.526  16.989   5.486 -0.0168  0.0032 -0.1724
  600BOLB   GL214380  13.513  17.200   5.293  0.0343  0.0044 -0.3589
  600BOLB   C1A14381  13.626  16.673   5.536 -0.2405 -0.0490  0.0744
  600BOLB   C2A14382  13.697  16.234   5.827  0.1174  0.1595  0.2984
  600BOLB   C3A14383  13.987  15.895   5.900  0.0153 -0.3183  0.2290
  600BOLB   C4A14384  14.313  15.591   6.152  0.1612 -0.2936 -0.1049
  600BOLB   C1B14385  13.961  17.114   5.194 -0.1390 -0.0016 -0.0538
  600BOLB   C2B14386  14.152  16.727   5.244  0.0952 -0.1365  0.0846
  600BOLB   C3B14387  14.457  16.456   5.229  0.2738  0.3510  0.1482
  600BOLB   C4B14388  14.712  16.099   5.391 -0.0629 -0.0955 -0.2228
  600BOLB   NC214389  16.570  14.048   5.487  0.3531 -0.1719 -0.0265
  600BOLB   PO214390  16.293  14.345   5.759 -0.0419  0.3381  0.0191
  600BOLB   GL314391  16.250  14.657   5.953  0.0998  0.2007  0.3495
  600BOLB   GL414392  16.263  14.831   6.258 -0.2811  0.3019  0.4100
  600BOLB   C1C14393  15.877  14.991   6.008  0.2688  0.1299 -0.2516
  600BOLB   C2C14394  15.669  15.182   6.373  0.0643 -0.0854 -0.1368
  600BOLB   C3C14395  15.336  15.388   6.310 -0.2061 -0.1118 -0.2475
  600BOLB   C4C14396  14.748  15.373   6.153  0.0168  0.0420 -0.3864
  600BOLB   C1D14397  15.841  14.703   6.417 -0.2037  0.1411  0.2212
  600BOLB   C2D14398  15.427  14.719   6.405 -0.0282  0.1660  0.3429
  600BOLB   C3D14399  15.070  14.478   6.478 -0.2606 -0.0145  0.1289
  600BOLB   C4D14400  14.962  14.433   6.908 -0.0820 -0.0041  0.0696
  601BOLB   NC114401  14.977  19.494  10.088 -0.1190 -0.1872  0.1896
  601BOLB   PO114402  14.782  19.308   9.717  0.0298  0.1257  0.2757
  601BOLB   GL114403  15.323  19.472   9.705  0.4601  0.3758  0.2613
  601BOLB   GL214404  15.513  19.520   9.403  0.0987 -0.0549  0.1533
  601BOLB   C1A14405  15.679  19.663   9.882 -0.2321  0.2164  0.0583
  601BOLB   C2A14406  16.071  19.777  10.135  0.0157  0.1003  0.1330
  601BOLB   C3A14407  16.471  19.838  10.081  0.1516 -0.2251 -0.2841
  601BOLB   C4A14408  16.804  19.904   9.889 -0.0227  0.2120 -0.1823
  601BOLB   C1B14409  15.937  19.312   9.340 -0.0279 -0.0550 -0.1585
  601BOLB   C2B14410  16.071  18.982   9.596 -0.2024  0.1716  0.1289
  601BOLB   C3B14411  16.431  18.785   9.733  0.1039 -0.2809 -0.0656
  601BOLB   C4B14412  16.605  18.915  10.002  0.1585 -0.1485  0.0378
  601BOLB   NC214413  19.118  18.227  10.439  0.1111  0.5854  0.1319
  601BOLB   PO214414  18.716  18.311  10.299  0.1555 -0.3176  0.0333
  601BOLB   GL314415  18.403  18.564  10.125  0.2847 -0.2386  0.1530
  601BOLB   GL414416  18.528  18.851   9.822  0.2751 -0.3605 -0.0635
  601BOLB   C1C14417  18.188  19.010  10.250  0.0748 -0.0838  0.2850
  601BOLB   C2C14418  17.848  19.311  10.131 -0.0145 -0.2729 -0.2042
  601BOLB   C3C14419  17.536  19.409  10.043 -0.0467  0.1451  0.3095
  601BOLB   C4C14420  17.201  19.679   9.959 -0.2248  0.0491 -0.1948
  601BOLB   C1D14421  18.204  19.084   9.707 -0.0687 -0.2068  0.0513
  601BOLB   C2D14422  18.044  19.483   9.753 -0.1325  0.2252 -0.1980
  601BOLB   C3D14423  17.688  19.830   9.771 -0.0899  0.2872  0.3064
  601BOLB   C4D14424  17.260  19.981   9.542  0.0211  0.2281  0.3357
  602BOLB   NC114425   2.006  23.030  17.070  0.1863  0.1147  0.0624
  602BOLB   PO114426   2.065  23.394  16.957  0.0642 -0.2392 -0.0368
  602BOLB   GL114427   1.752  23.466  17.242  0.0164 -0.3577 -0.0427
  602BOLB   GL214428   1.549  23.152  17.339 -0.2103 -0.1400 -0.1421
  602BOLB   C1A14429   1.375  23.649  17.471 -0.1929 -0.1929  0.1376
  602BOLB   C2A14430   1.184  23.749  17.858  0.0554  0.4167  0.1471
  602BOLB   C3A14431   1.105  24.146  17.922  0.2970 -0.1505 -0.3533
  602BOLB   C4A14432   1.097  24.422  18.319  0.0408 -0.0361 -0.1360
  602BOLB   C1B14433   1.205  23.081  17.637  0.2755  0.3124 -0.1710
  602BOLB   C2B14434   1.072  23.289  18.049 -0.3338 -0.0663  0.0675
  602BOLB   C3B14435   0.764  23.422  18.375  0.0170  0.2364 -0.1337
  602BOLB   C4B14436   0.534  23.527  18.697 -0.0988  0.3281 -0.2311
  602BOLB   NC214437  -0.821  25.761  19.676  0.1536 -0.0819 -0.3156
  602BOLB   PO214438  -0.341  25.727  19.757  0.0465  0.0968  0.0755
  602BOLB   GL314439  -0.100  25.730  19.402  0.1019 -0.1739 -0.1095
  602BOLB   GL414440  -0.020  25.812  19.011  0.0307  0.0241 -0.0784
  602BOLB   C1C14441   0.133  25.406  19.337  0.0905 -0.1371 -0.0843
  602BOLB   C2C14442   0.311  25.200  18.976  0.2571 -0.0276  0.1640
  602BOLB   C3C14443   0.507  25.038  18.542  0.2173  0.0995 -0.0842
  602BOLB   C4C14444   0.852  24.763  18.360 -0.1156 -0.0067 -0.3487
  602BOLB   C1D14445   0.139  25.638  18.718 -0.2282  0.3765  0.1137
  602BOLB   C2D14446   0.615  25.554  18.540  0.1522 -0.1190 -0.1694
  602BOLB   C3D14447   0.850  25.241  18.189  0.0088  0.0415  0.1572
  602BOLB   C4D14448   1.137  24.891  18.011  0.0125  0.0791  0.2723
  603BOLB   NC114449   2.692  22.424   3.709  0.1797 -0.0040 -0.2597
  603BOLB   PO114450   2.694  22.703   3.297 -0.1502 -0.3124 -0.0608
  603BOLB   GL114451   2.412  22.859   3.139 -0.2520  0.0132 -0.0128
  603BOLB   GL214452   2.101  22.985   3.347  0.0962 -0.2705 -0.2106
  603BOLB   C1A14453   2.131  22.913   2.810  0.0411  0.1008 -0.1010
  603BOLB   C2A14454   1.843  23.011   2.595 -0.0573  0.0189  0.0656
  603BOLB   C3A14455   1.560  23.388   2.340 -0.2219 -0.0908 -0.1553
  603BOLB   C4A14456   1.371  23.571   1.954  0.2830 -0.0279 -0.0100
  603BOLB   C1B14457   1.696  23.070   3.231  0.2520 -0.1186  0.1461
  603BOLB   C2B14458   1.567  23.335   2.879 -0.2250 -0.0289 -0.1372
  603BOLB   C3B14459   1.237  23.633   2.750  0.0921  0.2600  0.1095
  603BOLB   C4B14460   1.074  23.869   2.324 -0.0847 -0.1720 -0.2989
  603BOLB   NC214461   0.700  23.625  -0.477 -0.2456 -0.0958 -0.0371
  603BOLB   PO214462   0.674  23.318  -0.173  0.1319 -0.0688  0.0541
  603BOLB   GL314463   0.826  23.184   0.289 -0.1716 -0.1008  0.3384
  603BOLB   GL414464   0.984  23.492   0.402  0.0856 -0.2526 -0.0790
  603BOLB   C1C14465   1.041  23.087   0.655  0.0105 -0.0217  0.3259
  603BOLB   C2C14466   1.101  23.358   0.984  0.1198  0.4727 -0.0730
  603BOLB   C3C14467   1.102  23.461   1.370  0.0257 -0.0593  0.1074
  603BOLB   C4C14468   1.056  23.484   1.757  0.1426 -0.1140 -0.1402
  603BOLB   C1D14469   1.053  23.813   0.705  0.3083 -0.2059 -0.2397
  603BOLB   C2D14470   1.076  23.984   1.103 -0.2627  0.1714 -0.1761
  603BOLB   C3D14471   0.882  23.979   1.543  0.0789 -0.3150  0.1177
  603BOLB   C4D14472   1.071  24.107   1.854 -0.0267 -0.2233 -0.1164
  604BOLB   NC114473   7.182  26.688   4.711 -0.0111 -0.0127  0.2280
  604BOLB   PO114474   7.576  26.501   4.581  0.0740 -0.0650  0.2943
  604BOLB   GL114475   7.676  26.645   4.163 -0.0490  0.3273  0.2334
  604BOLB   GL214476   7.871  26.384   3.996 -0.0483  0.0910 -0.0997
  604BOLB   C1A14477   7.732  27.055   3.817 -0.3183  0.0522 -0.1889
  604BOLB   C2A14478   7.932  27.476   3.769 -0.1935  0.4621 -0.1728
  604BOLB   C3A14479   7.947  27.961   3.617  0.1666  0.0152  0.1963
  604BOLB   C4A14480   8.173  28.249   3.914  0.2123  0.2812 -0.1611
  604BOLB   C1B14481   7.943  26.603   3.587  0.1342  0.1412  0.4994
  604BOLB   C2B14482   8.016  26.541   3.122  0.2769 -0.3525  0.3102
  604BOLB   C3B14483   8.210  26.827   2.801  0.3726 -0.0848  0.1162
  604BOLB   C4B14484   8.553  26.923   2.534  0.1570 -0.0355  0.1843
  604BOLB   NC214485   8.758  30.248   2.706 -0.0854  0.1053  0.0759
  604BOLB   PO214486   8.528  30.283   3.052 -0.0876 -0.0075 -0.0648
  604BOLB   GL314487   8.484  29.905   3.171  0.0446  0.2981  0.1516
  604BOLB   GL414488   8.438  29.952   3.527 -0.0678  0.2298 -0.0993
  604BOLB   C1C14489   8.621  29.539   3.381 -0.1962  0.0618  0.1120
  604BOLB   C2C14490   8.615  29.136   3.559 -0.3687  0.0560  0.1889
  604BOLB   C3C14491   8.498  28.812   3.845 -0.0204 -0.2869  0.0132
  604BOLB   C4C14492   8.319  28.524   4.044  0.0910 -0.2493 -0.5135
  604BOLB   C1D14493   8.537  29.656   3.865  0.0306 -0.3021  0.1948
  604BOLB   C2D14494   8.458  29.671   4.301  0.2971 -0.1904 -0.0349
  604BOLB   C3D14495   8.610  29.978   4.627  0.2614 -0.1419  0.0236
  604BOLB   C4D14496   8.954  30.235   4.573  0.0130 -0.4125  0.3625
  605BOLB   NC114497  37.854  25.393   9.958 -0.1297 -0.1410  0.0801
  605BOLB   PO114498  37.765  25.121  10.151  0.0609  0.1814  0.0368
  605BOLB   GL114499  37.316  25.290  10.021  0.0541  0.2826  0.1329
  605BOLB   GL214500  37.399  25.571   9.955  0.1874  0.0841 -0.0780
  605BOLB   C1A14501  36.949  25.327   9.897 -0.1569  0.2130 -0.0514
  605BOLB   C2A14502  36.632  25.611   9.704  0.1956  0.1743 -0.0660
  605BOLB   C3A14503  36.328  25.730  10.014 -0.5004  0.0133 -0.3300
  605BOLB   C4A14504  36.130  26.113  10.228  0.1888  0.4007  0.1481
  605BOLB   C1B14505  37.258  25.821  10.311  0.1362  0.1494 -0.1471
  605BOLB   C2B14506  36.889  25.981  10.589 -0.0104  0.0448 -0.2299
  605BOLB   C3B14507  36.629  25.869  11.067 -0.2804 -0.0295  0.0225
  605BOLB   C4B14508  36.620  25.964  11.508 -0.0724  0.0803  0.1769
  605BOLB   NC214509  34.861  28.221   9.861 -0.1209 -0.3737  0.0010
  605BOLB   PO214510  34.646  27.843  10.026 -0.1496 -0.3505 -0.1178
  605BOLB   GL314511  34.707  27.309   9.936  0.1087  0.1469 -0.0727
  605BOLB   GL414512  34.971  27.228   9.717 -0.1312  0.3801 -0.3644
  605BOLB   C1C14513  34.912  26.948  10.129 -0.0222  0.1100  0.0689
  605BOLB   C2C14514  35.264  26.818  10.195  0.0932 -0.1210  0.3211
  605BOLB   C3C14515  35.590  26.589  10.041  0.2857  0.2647 -0.0741
  605BOLB   C4C14516  35.910  26.253  10.204  0.2552 -0.2234 -0.4500
  605BOLB   C1D14517  35.295  26.886   9.653  0.2651 -0.0386 -0.2989
  605BOLB   C2D14518  35.257  26.418   9.732  0.2381  0.1093 -0.0066
  605BOLB   C3D14519  35.305  26.052   9.853 -0.1159  0.0806 -0.2140
  605BOLB   C4D14520  35.324  25.585   9.971  0.2561  0.2959  0.2280
  606BOLB   NC114521  14.435  21.834  20.180 -0.0867 -0.0812  0.0162
  606BOLB   PO114522  14.043  21.603  20.080  0.1836 -0.0228 -0.0900
  606BOLB   GL114523  13.906  21.289  19.830 -0.2617  0.1843  0.1011
  606BOLB   GL214524  13.616  21.509  19.771  0.1293  0.0543  0.0871
  606BOLB   C1A14525  13.595  20.992  19.655  0.1008 -0.2988  0.3911
  606BOLB   C2A14526  13.284  21.152  19.421  0.1221 -0.2487 -0.0789
  606BOLB   C3A14527  13.086  21.612  19.451  0.0948 -0.3671  0.1337
  606BOLB   C4A14528  12.674  21.820  19.257 -0.2841 -0.0463  0.0250
  606BOLB   C1B14529  13.697  21.874  19.572  0.1631  0.2422  0.1419
  606BOLB   C2B14530  13.903  21.912  19.111 -0.2803  0.0483 -0.0177
  606BOLB   C3B14531  14.164  22.010  18.748  0.0173  0.1689  0.0502
  606BOLB   C4B14532  14.104  22.233  18.330 -0.2656 -0.1785  0.2004
  606BOLB   NC214533  10.458  21.852  18.184  0.2906 -0.0746  0.2836
  606BOLB   PO214534  10.709  21.594  17.955  0.3547  0.0135  0.0502
  606BOLB   GL314535  10.853  21.424  18.234 -0.0986  0.0396 -0.3642
  606BOLB   GL414536  10.987  21.160  18.334 -0.0934 -0.1837 -0.0227
  606BOLB   C1C14537  11.293  21.468  18.539  0.1267 -0.1232  0.1634
  606BOLB   C2C14538  11.483  21.503  18.839  0.2434  0.0283 -0.1133
  606BOLB   C3C14539  11.877  21.604  18.930 -0.0867 -0.1595  0.0428
  606BOLB   C4C14540  12.269  21.805  19.144  0.1644 -0.0117  0.2085
  606BOLB   C1D14541  11.201  20.901  18.615 -0.0652  0.1866 -0.0803
  606BOLB   C2D14542  11.372  20.948  18.948  0.1594  0.0189 -0.0734
  606BOLB   C3D14543  11.736  21.203  19.162  0.0644 -0.0966 -0.1200
  606BOLB   C4D14544  11.820  21.490  19.446  0.0483 -0.1295 -0.2815
  607BOLB   NC114545  30.397  23.321  15.028 -0.0469 -0.0147 -0.2772
  607BOLB   PO114546  30.231  22.916  14.976 -0.0876 -0.1151  0.0593
  607BOLB   GL114547  30.583  22.886  14.938  0.3742  0.2578 -0.0111
  607BOLB   GL214548  30.603  23.004  14.617 -0.3036 -0.4400  0.0709
  607BOLB   C1A14549  30.861  22.590  14.736  0.1553 -0.0365  0.1209
  607BOLB   C2A14550  31.147  22.180  14.724 -0.1670 -0.2453  0.1757
  607BOLB   C3A14551  31.501  21.879  14.880  0.1167  0.0069  0.0456
  607BOLB   C4A14552  31.681  21.482  14.940  0.1391  0.4177  0.3288
  607BOLB   C1B14553  30.584  22.630  14.243  0.2372 -0.0916  0.0227
  607BOLB   C2B14554  30.717  22.329  14.025 -0.0180 -0.2085  0.2044
  607BOLB   C3B14555  30.874  22.111  13.782 -0.1217 -0.1777  0.1049
  607BOLB   C4B14556  31.195  21.945  13.546  0.1247  0.0134 -0.2530
  607BOLB   NC214557  31.115  21.618  17.401 -0.1069  0.1339  0.0560
  607BOLB   PO214558  31.368  21.321  17.344 -0.2322  0.1291  0.2845
  607BOLB   GL314559  31.549  21.305  17.009  0.0594  0.1782 -0.3175
  607BOLB   GL414560  31.828  21.129  17.107 -0.2990 -0.1850  0.2300
  607BOLB   C1C14561  31.578  21.144  16.579  0.2033 -0.0555  0.2531
  607BOLB   C2C14562  31.642  21.143  16.101 -0.0475  0.0820  0.0414
  607BOLB   C3C14563  31.750  21.260  15.670  0.2229  0.0408  0.0170
  607BOLB   C4C14564  31.692  21.283  15.274  0.1054  0.0990 -0.4277
  607BOLB   C1D14565  32.113  20.895  16.895 -0.0825 -0.1706  0.1593
  607BOLB   C2D14566  32.412  20.975  16.594 -0.0332  0.1501 -0.3251
  607BOLB   C3D14567  32.157  20.887  16.229 -0.2454  0.2284 -0.2061
  607BOLB   C4D14568  32.025  20.893  15.838  0.2654  0.3048 -0.0540
  608BOLB   NC114569   4.427  27.324   6.887  0.0813 -0.0117  0.0517
  608BOLB   PO114570   4.037  27.388   7.087 -0.0704 -0.0096 -0.0468
  608BOLB   GL114571   3.782  27.736   7.052 -0.1165 -0.0819 -0.0297
  608BOLB   GL214572   3.825  27.970   7.277 -0.1710 -0.2807 -0.0544
  608BOLB   C1A14573   3.786  28.198   6.805  0.2083  0.1142 -0.0350
  608BOLB   C2A14574   3.600  28.599   6.937  0.2677  0.0774  0.0499
  608BOLB   C3A14575   3.546  29.073   6.964  0.0493 -0.0792 -0.4558
  608BOLB   C4A14576   3.436  29.540   6.734  0.3441  0.1973  0.1131
  608BOLB   C1B14577   3.371  27.965   7.004  0.1190  0.1804  0.1042
  608BOLB   C2B14578   3.283  28.291   6.777  0.2951  0.2074 -0.2025
  608BOLB   C3B14579   3.264  28.550   6.394  0.0046  0.5816  0.0286
  608BOLB   C4B14580   3.124  28.719   6.038  0.1475  0.0477  0.3926
  608BOLB   NC214581   2.786  31.178   5.065  0.2263 -0.0917  0.1079
  608BOLB   PO214582   2.448  31.102   5.180 -0.1074 -0.0496 -0.0786
  608BOLB   GL314583   2.578  30.844   5.479 -0.0691 -0.3304  0.0238
  608BOLB   GL414584   2.735  30.490   5.261 -0.0969 -0.4967 -0.7160
  608BOLB   C1C14585   2.694  30.597   5.782  0.2231 -0.0776 -0.0366
  608BOLB   C2C14586   2.799  30.268   5.898  0.3090  0.0466 -0.2827
  608BOLB   C3C14587   2.947  29.788   6.001 -0.0490  0.0631 -0.2670
  608BOLB   C4C14588   3.298  29.652   6.279  0.0864 -0.2887  0.2264
  608BOLB   C1D14589   3.041  30.354   5.245  0.0088 -0.5465 -0.1758
  608BOLB   C2D14590   3.347  30.016   5.048  0.0408 -0.1065 -0.0063
  608BOLB   C3D14591   3.496  29.614   5.335  0.0592 -0.2091  0.0794
  608BOLB   C4D14592   3.282  29.497   5.752 -0.2498  0.0812  0.0676
  609BOLB   NC114593   8.136  21.029  18.499  0.2108 -0.3303  0.1637
  609BOLB   PO114594   7.872  21.372  18.517  0.2852 -0.3495  0.0328
  609BOLB   GL114595   8.001  21.281  18.979  0.0497 -0.0134 -0.0511
  609BOLB   GL214596   7.723  21.230  19.213  0.1740 -0.0948  0.4256
  609BOLB   C1A14597   8.163  21.228  19.409  0.2291  0.1114 -0.1722
  609BOLB   C2A14598   8.375  21.221  19.766 -0.0688  0.1927 -0.3973
  609BOLB   C3A14599   8.301  20.967  20.283 -0.3148  0.0912  0.2731
  609BOLB   C4A14600   8.126  20.990  20.650 -0.1704  0.0748 -0.2667
  609BOLB   C1B14601   7.606  21.141  19.654 -0.3942 -0.3345 -0.0232
  609BOLB   C2B14602   7.516  21.414  19.942 -0.2689  0.1014 -0.0675
  609BOLB   C3B14603   7.576  21.528  20.352 -0.2395 -0.2598  0.0533
  609BOLB   C4B14604   8.022  21.475  20.563  0.1444  0.0834 -0.0809
  609BOLB   NC214605   9.030  21.462  22.272 -0.2090 -0.0336 -0.0482
  609BOLB   PO214606   9.535  21.221  22.292 -0.0736  0.0831  0.0119
  609BOLB   GL314607   9.390  21.203  21.940 -0.0663 -0.2062  0.3783
  609BOLB   GL414608   9.431  20.931  21.814 -0.0489  0.3829 -0.0255
  609BOLB   C1C14609   9.025  21.162  21.710 -0.1872 -0.0019 -0.0343
  609BOLB   C2C14610   8.561  20.970  21.646 -0.2779  0.0517  0.2812
  609BOLB   C3C14611   8.298  20.919  21.397 -0.1322 -0.1198 -0.0758
  609BOLB   C4C14612   8.030  20.881  21.015 -0.1330  0.2297  0.0815
  609BOLB   C1D14613   9.590  20.904  21.442 -0.2341 -0.0574  0.3051
  609BOLB   C2D14614   9.432  20.945  20.998 -0.1767 -0.2988  0.1631
  609BOLB   C3D14615   9.368  20.568  20.593  0.5563 -0.0145 -0.2743
  609BOLB   C4D14616   9.352  20.492  20.164  0.0115  0.2462  0.1546
  610BOLB   NC114617   7.984  16.717  16.932 -0.0323  0.2328  0.2759
  610BOLB   PO114618   7.553  16.835  17.038  0.0829 -0.3021  0.1292
  610BOLB   GL114619   7.535  16.469  17.222 -0.1024 -0.1391 -0.1726
  610BOLB   GL214620   7.325  16.339  17.277  0.0653  0.0030  0.0618
  610BOLB   C1A14621   7.944  16.215  17.379  0.1326 -0.1220 -0.1088
  610BOLB   C2A14622   7.977  16.062  17.806  0.0383  0.0134 -0.3667
  610BOLB   C3A14623   7.973  15.676  17.957  0.3635  0.0327 -0.0466
  610BOLB   C4A14624   8.039  15.273  18.126 -0.0642 -0.0398  0.0790
  610BOLB   C1B14625   7.499  16.152  17.612  0.1260  0.0750  0.5011
  610BOLB   C2B14626   7.412  15.933  17.951 -0.0462  0.2400  0.0245
  610BOLB   C3B14627   7.468  15.541  18.171  0.4223  0.1979  0.0084
  610BOLB   C4B14628   7.817  15.528  18.458 -0.2904 -0.0527 -0.1192
  610BOLB   NC214629   7.847  12.705  19.176  0.0983 -0.1634  0.0321
  610BOLB   PO214630   7.730  13.118  19.301  0.3548  0.2207 -0.4164
  610BOLB   GL314631   7.678  13.548  19.098 -0.0713 -0.0125 -0.1146
  610BOLB   GL414632   7.828  13.877  19.205  0.0551 -0.2924  0.0373
  610BOLB   C1C14633   7.605  13.922  18.769 -0.2400  0.0039  0.0933
  610BOLB   C2C14634   7.653  14.177  18.369 -0.0091 -0.1419 -0.3108
  610BOLB   C3C14635   7.914  14.431  18.126 -0.2394  0.3511 -0.0331
  610BOLB   C4C14636   8.169  14.785  18.003 -0.1130  0.1103  0.1716
  610BOLB   C1D14637   7.834  14.373  19.121 -0.0082 -0.0185 -0.1596
  610BOLB   C2D14638   7.932  14.761  18.999  0.1159  0.1753  0.0895
  610BOLB   C3D14639   7.876  15.155  18.738  0.0714  0.2360  0.1764
  610BOLB   C4D14640   8.239  15.333  18.640  0.0919 -0.0024  0.1118
  611BOLB   NC114641   8.550  26.281   4.742  0.2056  0.2459 -0.3730
  611BOLB   PO114642   8.379  26.547   4.995 -0.1575  0.1185  0.1970
  611BOLB   GL114643   8.487  26.936   4.639 -0.2436 -0.0541  0.0325
  611BOLB   GL214644   8.371  27.205   4.777 -0.1008  0.0685 -0.1245
  611BOLB   C1A14645   8.733  27.166   4.384 -0.1375 -0.0227  0.1869
  611BOLB   C2A14646   8.900  27.569   4.310 -0.1872  0.6216  0.1943
  611BOLB   C3A14647   9.148  28.004   4.388 -0.0875  0.2834 -0.0611
  611BOLB   C4A14648   9.270  28.326   4.148  0.0972 -0.0660  0.2386
  611BOLB   C1B14649   8.716  27.415   4.826 -0.0733 -0.1959 -0.0621
  611BOLB   C2B14650   9.076  27.459   4.988 -0.1660  0.1333  0.2346
  611BOLB   C3B14651   9.492  27.675   4.883  0.0534 -0.3871 -0.3974
  611BOLB   C4B14652   9.635  28.050   4.686  0.2110  0.1500 -0.1745
  611BOLB   NC214653  11.344  30.047   3.713 -0.2416 -0.0250  0.0115
  611BOLB   PO214654  11.000  29.880   3.671 -0.2090  0.2580  0.1583
  611BOLB   GL314655  10.749  29.505   3.512  0.1299 -0.0856 -0.1761
  611BOLB   GL414656  11.047  29.410   3.528  0.0730 -0.3497  0.0461
  611BOLB   C1C14657  10.419  29.159   3.583  0.0728 -0.0542 -0.0704
  611BOLB   C2C14658  10.138  28.926   3.778 -0.1735 -0.0932 -0.3995
  611BOLB   C3C14659   9.693  28.932   3.924  0.1419  0.0475  0.0054
  611BOLB   C4C14660   9.453  28.640   3.908 -0.3511  0.5433 -0.1715
  611BOLB   C1D14661  11.202  29.266   3.873 -0.0730 -0.3587 -0.0983
  611BOLB   C2D14662  11.028  29.270   4.293  0.0917  0.5460 -0.1449
  611BOLB   C3D14663  11.013  29.014   4.602  0.0476 -0.1672 -0.0150
  611BOLB   C4D14664  10.785  28.903   4.995 -0.1757  0.1031 -0.0267
  612BOLB   NC114665  37.730  22.135  13.633 -0.3324  0.0351  0.0483
  612BOLB   PO114666  37.473  22.279  13.952 -0.0294 -0.0673 -0.0512
  612BOLB   GL114667  37.214  22.536  14.343 -0.1174  0.0716 -0.0645
  612BOLB   GL214668  37.405  22.347  14.557  0.0120 -0.0275 -0.1694
  612BOLB   C1A14669  36.827  22.682  14.530  0.1147  0.0198  0.1802
  612BOLB   C2A14670  36.560  22.945  14.729  0.0212  0.2267 -0.0312
  612BOLB   C3A14671  36.729  23.012  15.151  0.0757 -0.0029  0.0496
  612BOLB   C4A14672  36.512  23.394  15.337  0.1100  0.0846 -0.0554
  612BOLB   C1B14673  37.396  21.912  14.737 -0.0600 -0.2512  0.2484
  612BOLB   C2B14674  37.163  21.633  15.061  0.0989 -0.1528 -0.1526
  612BOLB   C3B14675  36.972  21.772  15.435 -0.0896  0.0635  0.0224
  612BOLB   C4B14676  36.869  22.198  15.626 -0.0835 -0.0571 -0.0441
  612BOLB   NC214677  34.224  24.268  16.783  0.1240 -0.0332 -0.1204
  612BOLB   PO214678  34.636  24.578  16.920  0.1552 -0.1984  0.1019
  612BOLB   GL314679  34.977  24.455  16.687 -0.1294 -0.2129 -0.1152
  612BOLB   GL414680  35.300  24.578  16.846 -0.1359  0.0184 -0.2778
  612BOLB   C1C14681  35.348  24.519  16.392  0.0709  0.0970  0.3333
  612BOLB   C2C14682  35.624  24.291  16.014 -0.1017 -0.1970 -0.3000
  612BOLB   C3C14683  35.877  24.003  15.639 -0.0412 -0.1105  0.0704
  612BOLB   C4C14684  36.230  23.702  15.487 -0.0529 -0.0930 -0.1133
  612BOLB   C1D14685  35.663  24.448  17.071 -0.1903  0.0533 -0.0272
  612BOLB   C2D14686  36.038  24.229  17.046 -0.0112 -0.0795  0.0331
  612BOLB   C3D14687  36.446  24.135  17.212 -0.2044  0.0071  0.0199
  612BOLB   C4D14688  36.850  24.040  17.248  0.1118 -0.4646  0.3228
  613BOLB   NC114689   9.320  16.285   3.916 -0.0823  0.2047  0.1421
  613BOLB   PO114690   9.683  16.439   3.547 -0.4660 -0.0005 -0.1151
  613BOLB   GL114691   9.586  16.045   3.550  0.1268 -0.0886 -0.1780
  613BOLB   GL214692   9.775  15.934   3.853  0.0446  0.0854  0.0185
  613BOLB   C1A14693   9.516  15.817   3.129 -0.0557  0.2312 -0.0531
  613BOLB   C2A14694   9.541  15.587   2.714  0.1831 -0.0481  0.0059
  613BOLB   C3A14695   9.555  15.560   2.327 -0.1722 -0.1016  0.0812
  613BOLB   C4A14696   9.853  15.233   2.145  0.1569 -0.0758 -0.2332
  613BOLB   C1B14697  10.032  15.827   3.468 -0.2968  0.2836 -0.3481
  613BOLB   C2B14698  10.294  15.698   3.198  0.0922 -0.3093 -0.1468
  613BOLB   C3B14699  10.592  15.413   3.166  0.1717  0.0006 -0.1657
  613BOLB   C4B14700  10.749  14.946   3.210  0.2282  0.0961 -0.1396
  613BOLB   NC214701  10.257  14.002  -0.043 -0.0211 -0.3427 -0.1320
  613BOLB   PO214702  10.335  13.927   0.433 -0.2853  0.0017  0.2493
  613BOLB   GL314703  10.046  14.003   0.768  0.0296 -0.0415  0.0818
  613BOLB   GL414704   9.866  13.862   0.773  0.1278 -0.1920  0.3296
  613BOLB   C1C14705  10.032  14.336   0.996 -0.1228  0.2458 -0.0996
  613BOLB   C2C14706   9.904  14.651   1.248 -0.2752  0.2745  0.0179
  613BOLB   C3C14707   9.666  14.795   1.430 -0.3073  0.0438  0.0800
  613BOLB   C4C14708   9.836  15.036   1.766  0.3084  0.1864 -0.1893
  613BOLB   C1D14709   9.620  14.270   0.726 -0.0575 -0.0009  0.0791
  613BOLB   C2D14710   9.216  14.340   0.934 -0.1419  0.0343  0.3904
  613BOLB   C3D14711   8.920  14.153   1.299  0.0426 -0.4592  0.0775
  613BOLB   C4D14712   8.665  13.767   1.430 -0.1205 -0.1820  0.3611
  614BOLB   NC114713  33.487  24.425   2.519 -0.1135  0.1270 -0.1768
  614BOLB   PO114714  33.769  24.325   2.721 -0.1743  0.1070  0.1501
  614BOLB   GL114715  33.890  24.206   3.010 -0.3315  0.0852  0.3901
  614BOLB   GL214716  34.103  24.389   3.143 -0.0272  0.1038 -0.2788
  614BOLB   C1A14717  34.018  24.033   3.488 -0.0580 -0.1224  0.0467
  614BOLB   C2A14718  34.286  23.767   3.844 -0.2545 -0.0153  0.1061
  614BOLB   C3A14719  34.452  23.582   4.281  0.1249  0.0740  0.1241
  614BOLB   C4A14720  34.637  23.748   4.626  0.2829 -0.2603  0.0037
  614BOLB   C1B14721  34.453  24.211   3.301 -0.1969  0.3970  0.2443
  614BOLB   C2B14722  34.673  23.975   3.623 -0.0364 -0.0287 -0.2212
  614BOLB   C3B14723  34.758  23.896   4.093  0.0938  0.1463  0.1708
  614BOLB   C4B14724  35.104  23.689   4.449  0.0887  0.0227  0.1183
  614BOLB   NC214725  33.186  25.714   4.066 -0.0210  0.0989  0.1597
  614BOLB   PO214726  33.460  25.371   3.972  0.0038 -0.0125 -0.1012
  614BOLB   GL314727  33.621  25.201   4.275  0.1858  0.1542  0.3872
  614BOLB   GL414728  33.930  25.219   4.206  0.0236  0.1071 -0.0428
  614BOLB   C1C14729  33.687  25.014   4.594 -0.1325 -0.2657 -0.0605
  614BOLB   C2C14730  34.069  24.806   4.741  0.1448  0.3819  0.0513
  614BOLB   C3C14731  34.336  24.403   4.777  0.0387 -0.0946  0.2870
  614BOLB   C4C14732  34.751  24.151   4.696 -0.4456 -0.3853 -0.1561
  614BOLB   C1D14733  34.193  25.319   4.573 -0.0401  0.0312 -0.1938
  614BOLB   C2D14734  33.931  25.326   4.977  0.5467  0.1177 -0.0012
  614BOLB   C3D14735  33.822  25.418   5.387 -0.1407 -0.0586  0.0359
  614BOLB   C4D14736  33.496  25.614   5.729  0.1047 -0.2724 -0.2264
  615BOLB   NC114737  12.394  22.356   3.699 -0.1074 -0.0119 -0.0710
  615BOLB   PO114738  12.504  22.157   4.131  0.0189  0.2720 -0.0007
  615BOLB   GL114739  12.873  22.365   3.970  0.1497  0.0855 -0.2179
  615BOLB   GL214740  12.949  22.338   3.722  0.2266  0.0029 -0.2786
  615BOLB   C1A14741  13.340  22.508   4.028  0.1803 -0.1157  0.2409
  615BOLB   C2A14742  13.751  22.624   3.842 -0.3684  0.0921 -0.0196
  615BOLB   C3A14743  14.107  22.835   3.629  0.0104  0.3054  0.0357
  615BOLB   C4A14744  14.405  22.746   3.404  0.1571 -0.2786 -0.1064
  615BOLB   C1B14745  13.294  22.457   3.494 -0.0649 -0.0660 -0.1668
  615BOLB   C2B14746  13.673  22.619   3.241 -0.2790  0.0647 -0.0317
  615BOLB   C3B14747  14.012  22.913   3.130  0.3621  0.0542  0.1652
  615BOLB   C4B14748  14.242  23.306   3.321 -0.2555  0.1222  0.0491
  615BOLB   NC214749  16.078  22.626   1.843 -0.1696  0.0492  0.0669
  615BOLB   PO214750  16.098  22.490   1.537 -0.0710 -0.3231  0.1907
  615BOLB   GL314751  15.687  22.398   1.695  0.0308 -0.0580  0.0016
  615BOLB   GL414752  15.684  22.336   2.042  0.0345  0.0468  0.2815
  615BOLB   C1C14753  15.247  22.580   1.954 -0.1871  0.0605 -0.1273
  615BOLB   C2C14754  15.089  22.772   2.342  0.1370  0.1590 -0.1402
  615BOLB   C3C14755  14.709  22.834   2.632  0.0680 -0.1979 -0.0359
  615BOLB   C4C14756  14.564  22.854   3.008  0.1777  0.2675  0.2217
  615BOLB   C1D14757  15.541  22.504   2.433 -0.1362 -0.2314  0.1823
  615BOLB   C2D14758  15.307  22.466   2.763 -0.3440 -0.2033 -0.2429
  615BOLB   C3D14759  15.080  22.696   3.087 -0.0226  0.1088  0.1384
  615BOLB   C4D14760  14.965  22.583   3.518  0.4246 -0.2959 -0.1350
  616BOLB   NC114761   7.326  29.174   9.820 -0.0042 -0.1078  0.0959
  616BOLB   PO114762   7.396  29.633  10.093  0.0393 -0.1166  0.0655
  616BOLB   GL114763   7.438  30.000  10.010 -0.0548 -0.0787  0.2162
  616BOLB   GL214764   7.578  29.880   9.685 -0.1586  0.0250  0.1219
  616BOLB   C1A14765   7.519  30.426  10.110 -0.0466 -0.0484  0.2147
  616BOLB   C2A14766   7.862  30.608  10.231 -0.1170 -0.2668  0.1982
  616BOLB   C3A14767   8.275  30.762  10.354 -0.1563  0.1084 -0.1708
  616BOLB   C4A14768   8.578  31.029  10.373 -0.0120 -0.1503  0.2383
  616BOLB   C1B14769   7.527  30.353   9.566 -0.1925  0.2691  0.2114
  616BOLB   C2B14770   7.596  30.815   9.711 -0.2005  0.1244  0.0136
  616BOLB   C3B14771   7.458  31.245   9.537  0.3340  0.1936 -0.4094
  616BOLB   C4B14772   7.338  31.697   9.480 -0.2884  0.6302 -0.1366
  616BOLB   NC214773   7.773  33.371  11.036 -0.0185  0.5856  0.2743
  616BOLB   PO214774   8.191  33.365  11.207  0.0802 -0.0029  0.0709
  616BOLB   GL314775   8.089  32.951  11.057 -0.1561  0.2225 -0.0616
  616BOLB   GL414776   8.110  32.698  11.382  0.1473 -0.0301  0.2374
  616BOLB   C1C14777   7.995  32.444  10.988  0.2033 -0.0357 -0.1831
  616BOLB   C2C14778   8.199  32.045  11.017 -0.1288  0.1933 -0.1593
  616BOLB   C3C14779   8.464  31.797  10.760 -0.0433  0.2692  0.1156
  616BOLB   C4C14780   8.616  31.400  10.603 -0.0010  0.0084 -0.0365
  616BOLB   C1D14781   8.152  32.331  11.661  0.0037  0.1331  0.0446
  616BOLB   C2D14782   8.463  32.064  11.867 -0.1354  0.1528  0.2036
  616BOLB   C3D14783   8.737  31.706  11.721 -0.3990  0.1560 -0.0276
  616BOLB   C4D14784   8.835  31.433  11.279 -0.0618 -0.0785 -0.0594
  617BOLB   NC114785  38.340  22.970   9.767  0.1778 -0.3466  0.1240
  617BOLB   PO114786  38.509  22.631   9.683 -0.0013  0.3671 -0.5368
  617BOLB   GL114787  38.282  22.323   9.403  0.0633 -0.1170  0.5092
  617BOLB   GL214788  38.087  22.235   9.635 -0.2679 -0.0459 -0.4699
  617BOLB   C1A14789  37.877  22.323   9.208 -0.1368 -0.2470  0.1413
  617BOLB   C2A14790  37.597  22.677   9.218 -0.2873  0.1774 -0.3173
  617BOLB   C3A14791  37.248  22.728   9.166 -0.3218 -0.1339 -0.0008
  617BOLB   C4A14792  36.850  22.699   9.154 -0.1628  0.2031  0.3513
  617BOLB   C1B14793  37.692  22.060   9.575  0.0120  0.2035 -0.1941
  617BOLB   C2B14794  37.277  21.764   9.492  0.0285 -0.1661  0.1469
  617BOLB   C3B14795  36.811  21.708   9.519 -0.1098 -0.1095  0.4245
  617BOLB   C4B14796  36.744  21.392   9.374  0.1045  0.1604 -0.0767
  617BOLB   NC214797  38.773  22.433  10.265 -0.1118 -0.2941 -0.3212
  617BOLB   PO214798  38.436  22.189  10.323  0.0699 -0.1221 -0.0163
  617BOLB   GL314799  38.069  22.023  10.092  0.0667  0.0342 -0.0465
  617BOLB   GL414800  38.091  21.768   9.879  0.4617  0.2070 -0.0806
  617BOLB   C1C14801  37.590  22.041  10.012 -0.1892 -0.0055  0.1789
  617BOLB   C2C14802  37.202  22.114   9.903 -0.0794  0.1100 -0.0147
  617BOLB   C3C14803  36.785  22.177   9.719 -0.1465  0.0895  0.2413
  617BOLB   C4C14804  36.562  22.486   9.364  0.0340  0.1671  0.1216
  617BOLB   C1D14805  37.766  21.536   9.811 -0.2483 -0.0323  0.3792
  617BOLB   C2D14806  37.439  21.378  10.015 -0.0231  0.0443  0.2057
  617BOLB   C3D14807  37.110  21.632   9.967 -0.2736  0.0117  0.3846
  617BOLB   C4D14808  36.771  21.735  10.047  0.0510 -0.2315 -0.0226
  618BOLB   NC114809  18.287  16.914   7.783  0.0271 -0.0444 -0.1594
  618BOLB   PO114810  18.041  16.647   8.173  0.0477 -0.1643  0.1268
  618BOLB   GL114811  17.514  16.653   8.294 -0.1224 -0.1217  0.2793
  618BOLB   GL214812  17.317  16.892   8.137  0.0710  0.0090 -0.4479
  618BOLB   C1A14813  17.114  16.460   8.126 -0.0407 -0.0568  0.0300
  618BOLB   C2A14814  16.804  16.656   7.887  0.3268  0.0966 -0.0713
  618BOLB   C3A14815  16.359  16.611   7.699 -0.4562 -0.0968 -0.0365
  618BOLB   C4A14816  15.925  16.586   7.891  0.0021  0.1573  0.0386
  618BOLB   C1B14817  17.233  17.252   8.380  0.1991 -0.1631 -0.3807
  618BOLB   C2B14818  16.917  17.585   8.433 -0.0416 -0.4326  0.1742
  618BOLB   C3B14819  16.850  17.951   8.178  0.1527  0.0905  0.0242
  618BOLB   C4B14820  16.754  18.305   8.138  0.1291 -0.3168  0.3052
  618BOLB   NC214821  17.673  15.060   8.976 -0.1115 -0.2423  0.0535
  618BOLB   PO214822  17.178  15.045   8.931 -0.0177 -0.2261  0.1421
  618BOLB   GL314823  16.913  15.388   8.960  0.3962 -0.2645  0.1347
  618BOLB   GL414824  16.958  15.503   9.217 -0.2025 -0.1777 -0.2673
  618BOLB   C1C14825  16.564  15.689   8.840  0.1111 -0.2756  0.3853
  618BOLB   C2C14826  16.343  15.926   8.565 -0.0948  0.0540  0.1178
  618BOLB   C3C14827  16.150  16.250   8.519  0.2356  0.0396 -0.1304
  618BOLB   C4C14828  15.886  16.499   8.310  0.3280  0.0708  0.1535
  618BOLB   C1D14829  16.946  15.914   9.081 -0.2197 -0.2128 -0.3992
  618BOLB   C2D14830  16.629  16.158   9.108  0.2183  0.1363  0.3318
  618BOLB   C3D14831  16.246  16.257   8.990  0.0295  0.4597  0.2531
  618BOLB   C4D14832  15.956  16.597   8.912 -0.1389  0.0781 -0.0235
  619BOLB   NC114833  14.555  21.567   7.461 -0.0894  0.1077  0.0820
  619BOLB   PO114834  14.894  21.713   7.217  0.3154 -0.0644 -0.1939
  619BOLB   GL114835  15.405  21.833   7.216 -0.4391 -0.1925 -0.2005
  619BOLB   GL214836  15.426  21.991   6.949 -0.0386 -0.3426  0.0115
  619BOLB   C1A14837  15.882  21.666   7.275  0.0340 -0.4028 -0.2124
  619BOLB   C2A14838  16.355  21.819   7.144  0.2608 -0.0230 -0.0252
  619BOLB   C3A14839  16.606  21.753   6.950  0.0569 -0.0836  0.0275
  619BOLB   C4A14840  16.951  21.616   6.755  0.4052  0.1335  0.0146
  619BOLB   C1B14841  15.866  22.078   6.983 -0.0119  0.1025 -0.3984
  619BOLB   C2B14842  16.271  22.354   6.976 -0.0384 -0.1416  0.1982
  619BOLB   C3B14843  16.596  22.317   6.840 -0.0152 -0.0030  0.0995
  619BOLB   C4B14844  16.960  22.116   6.901 -0.2195 -0.2586  0.0092
  619BOLB   NC214845  19.849  21.486   6.222  0.1336 -0.2110 -0.0835
  619BOLB   PO214846  19.420  21.417   6.545  0.0701 -0.1289 -0.0015
  619BOLB   GL314847  18.959  21.465   6.433 -0.2102 -0.1087  0.2620
  619BOLB   GL414848  18.685  21.256   6.355 -0.2565  0.2824  0.3947
  619BOLB   C1C14849  18.548  21.594   6.683 -0.5198  0.1458  0.0488
  619BOLB   C2C14850  18.193  21.895   6.569  0.3259  0.0800  0.0109
  619BOLB   C3C14851  17.843  21.840   6.443  0.4355 -0.1722 -0.3533
  619BOLB   C4C14852  17.391  21.669   6.635 -0.2205 -0.0196  0.2952
  619BOLB   C1D14853  18.179  21.434   6.395  0.0264  0.3424  0.0495
  619BOLB   C2D14854  17.821  21.381   6.218 -0.0509 -0.2357 -0.1778
  619BOLB   C3D14855  17.415  21.294   6.245 -0.5879  0.0824  0.0628
  619BOLB   C4D14856  17.003  21.456   6.201  0.0482 -0.0840  0.0862
  620BOLB   NC114857   6.190  20.031   2.302 -0.3131 -0.0771 -0.0952
  620BOLB   PO114858   6.293  20.127   1.913 -0.2439 -0.0647 -0.0789
  620BOLB   GL114859   6.487  19.815   1.684  0.1122  0.0677  0.1223
  620BOLB   GL214860   6.273  19.753   1.540  0.2221 -0.0293  0.1769
  620BOLB   C1A14861   6.627  19.451   1.372 -0.0955 -0.0657  0.1686
  620BOLB   C2A14862   6.559  19.149   1.125 -0.0155  0.1928 -0.1624
  620BOLB   C3A14863   6.471  18.966   0.746  0.1579  0.0995  0.0072
  620BOLB   C4A14864   6.554  18.905   0.356 -0.3445 -0.1536  0.0415
  620BOLB   C1B14865   6.613  19.927   1.240  0.1281 -0.3842 -0.0444
  620BOLB   C2B14866   6.880  19.747   0.922  0.2083 -0.0053 -0.2709
  620BOLB   C3B14867   6.946  19.356   0.670 -0.1596  0.0431  0.0337
  620BOLB   C4B14868   7.064  19.064   0.388  0.1666  0.0333  0.4406
  620BOLB   NC214869   6.383  17.695  -1.838 -0.4272  0.0550  0.0859
  620BOLB   PO214870   6.333  18.084  -1.853  0.2745  0.4869 -0.1838
  620BOLB   GL314871   6.401  18.182  -1.471 -0.5086  0.1708  0.0515
  620BOLB   GL414872   6.155  18.429  -1.424  0.3626  0.2311 -0.1130
  620BOLB   C1C14873   6.451  17.899  -1.097  0.1951  0.4853 -0.0089
  620BOLB   C2C14874   6.355  18.092  -0.712  0.0305  0.0326  0.0108
  620BOLB   C3C14875   6.520  18.354  -0.283 -0.2126 -0.1169  0.1070
  620BOLB   C4C14876   6.362  18.733  -0.001  0.1137  0.5128  0.1257
  620BOLB   C1D14877   6.384  18.504  -1.088  0.2910 -0.0799 -0.0575
  620BOLB   C2D14878   6.436  18.615  -0.758 -0.1754 -0.1927  0.1851
  620BOLB   C3D14879   6.837  18.722  -0.512  0.2530  0.2554 -0.2802
  620BOLB   C4D14880   6.850  18.749  -0.049  0.3371 -0.0857 -0.2381
  621BOLB   NC114881   9.109  22.923  17.549 -0.2493 -0.1175 -0.0786
  621BOLB   PO114882   9.226  22.780  18.031 -0.0625  0.0488  0.0240
  621BOLB   GL114883   9.297  22.736  18.467  0.2915  0.2363  0.1006
  621BOLB   GL214884   9.385  22.489  18.569  0.0889  0.0951 -0.0912
  621BOLB   C1A14885   9.331  22.876  18.986  0.0342 -0.1675 -0.0692
  621BOLB   C2A14886   9.385  23.041  19.444  0.2012  0.0674  0.2929
  621BOLB   C3A14887   9.570  23.111  19.879  0.2151 -0.0809  0.2437
  621BOLB   C4A14888   9.733  23.325  20.261  0.0364  0.1600 -0.1882
  621BOLB   C1B14889   9.521  22.377  19.010  0.1658  0.2962  0.1605
  621BOLB   C2B14890   9.531  22.381  19.581  0.2047  0.2696  0.0805
  621BOLB   C3B14891   9.265  22.662  19.831  0.3097 -0.1598 -0.0115
  621BOLB   C4B14892   9.082  23.006  20.018 -0.1880 -0.1201  0.1966
  621BOLB   NC214893  10.352  24.709  22.609  0.3160  0.1747  0.3488
  621BOLB   PO214894  10.395  24.477  22.191  0.1117 -0.0808  0.2308
  621BOLB   GL314895  10.338  24.290  21.822 -0.1351  0.1125 -0.2003
  621BOLB   GL414896  10.451  24.532  21.651  0.1114  0.1302 -0.1376
  621BOLB   C1C14897  10.326  24.179  21.322 -0.3683 -0.0506  0.2309
  621BOLB   C2C14898  10.294  23.966  20.954  0.3496 -0.1942 -0.3600
  621BOLB   C3C14899  10.175  23.889  20.571 -0.0243 -0.0773  0.0428
  621BOLB   C4C14900   9.831  23.636  20.528  0.0050 -0.0984  0.1856
  621BOLB   C1D14901  10.011  24.609  21.677 -0.0897  0.1314  0.0597
  621BOLB   C2D14902   9.586  24.584  21.449  0.1497  0.1965 -0.2249
  621BOLB   C3D14903   9.182  24.717  21.450  0.1571  0.0024  0.1268
  621BOLB   C4D14904   8.941  25.013  21.224  0.3158  0.0380  0.0375
  622BOLB   NC114905   8.889  13.412   9.569 -0.0504 -0.1051 -0.0513
  622BOLB   PO114906   8.534  13.121   9.710 -0.1467 -0.1227 -0.0706
  622BOLB   GL114907   8.742  12.763   9.861  0.1380  0.0312  0.0107
  622BOLB   GL214908   8.922  12.727   9.637  0.0076 -0.1201  0.0439
  622BOLB   C1A14909   8.942  12.385  10.058 -0.1368 -0.3289  0.1183
  622BOLB   C2A14910   9.356  12.276  10.148 -0.0175 -0.2788  0.0693
  622BOLB   C3A14911   9.496  11.967  10.205  0.1586  0.4236  0.3433
  622BOLB   C4A14912   9.527  11.506  10.275 -0.1051  0.3204 -0.3590
  622BOLB   C1B14913   9.138  12.322   9.569 -0.0611 -0.4084  0.4830
  622BOLB   C2B14914   9.113  11.940   9.894  0.0677 -0.0069  0.0570
  622BOLB   C3B14915   9.027  11.626  10.173  0.4223 -0.1444  0.0183
  622BOLB   C4B14916   9.055  11.172  10.019 -0.1227 -0.3505  0.0677
  622BOLB   NC214917   9.690   8.770   9.410 -0.2535  0.0408 -0.0667
  622BOLB   PO214918   9.288   9.249   9.382  0.0262  0.2462  0.2784
  622BOLB   GL314919   9.197   9.719   9.488 -0.0295  0.3710  0.2362
  622BOLB   GL414920   9.451   9.833   9.300 -0.1441  0.3159 -0.2854
  622BOLB   C1C14921   9.173  10.117   9.698 -0.1285  0.0945 -0.0689
  622BOLB   C2C14922   9.242  10.353  10.061  0.0071  0.1848  0.0202
  622BOLB   C3C14923   9.277  10.745  10.172 -0.0780 -0.0241 -0.3631
  622BOLB   C4C14924   9.556  11.055  10.161  0.3131 -0.3202 -0.1714
  622BOLB   C1D14925   9.419  10.254   9.342 -0.0357  0.1930  0.0910
  622BOLB   C2D14926   9.726  10.628   9.161 -0.0879 -0.0782 -0.2380
  622BOLB   C3D14927   9.692  11.065   9.061  0.2914  0.1335 -0.1586
  622BOLB   C4D14928   9.379  11.303   9.114  0.1163  0.1936  0.2681
  623BOLB   NC114929   7.833  16.070   3.297  0.1385  0.0660 -0.0409
  623BOLB   PO114930   8.074  16.335   3.039 -0.0213  0.0782 -0.0363
  623BOLB   GL114931   7.934  16.154   2.753  0.0635  0.2126 -0.0706
  623BOLB   GL214932   7.635  16.030   2.801  0.0292 -0.2177 -0.3312
  623BOLB   C1A14933   7.806  16.250   2.366 -0.0824  0.0131 -0.0962
  623BOLB   C2A14934   7.644  15.986   2.048  0.1335 -0.1640 -0.0715
  623BOLB   C3A14935   7.504  16.138   1.681  0.3340  0.1110 -0.0519
  623BOLB   C4A14936   7.478  15.954   1.254  0.0477  0.0229 -0.1094
  623BOLB   C1B14937   7.315  16.101   2.542 -0.4089 -0.0185 -0.1147
  623BOLB   C2B14938   7.114  15.791   2.210  0.0168 -0.0245  0.1039
  623BOLB   C3B14939   6.759  15.598   2.192  0.0219 -0.1545  0.0132
  623BOLB   C4B14940   6.700  15.444   1.796  0.2378 -0.0296 -0.0938
  623BOLB   NC214941   7.124  15.774  -1.067  0.1629 -0.0016 -0.1780
  623BOLB   PO214942   6.782  15.463  -0.882 -0.2406  0.0042  0.1762
  623BOLB   GL314943   6.957  15.259  -0.418 -0.0001 -0.1172 -0.1048
  623BOLB   GL414944   6.829  14.923  -0.465  0.0809  0.2855  0.0736
  623BOLB   C1C14945   7.047  15.222  -0.024 -0.3107  0.3148 -0.2816
  623BOLB   C2C14946   6.992  15.432   0.301 -0.3634 -0.1519  0.1172
  623BOLB   C3C14947   7.148  15.556   0.651 -0.1270  0.4468 -0.0428
  623BOLB   C4C14948   7.272  15.701   0.994  0.4009  0.0961 -0.0735
  623BOLB   C1D14949   6.536  15.079  -0.121  0.0812  0.1470  0.1329
  623BOLB   C2D14950   6.492  15.089   0.284 -0.1635  0.1338 -0.1723
  623BOLB   C3D14951   6.648  15.204   0.745  0.0726  0.2053  0.1907
  623BOLB   C4D14952   6.906  15.380   1.134  0.2621 -0.2165 -0.1581
  624BOLB   NC114953  12.536  22.478   5.018  0.0268 -0.0759  0.0712
  624BOLB   PO114954  12.911  22.665   4.822  0.2856 -0.1452  0.1823
  624BOLB   GL114955  13.235  22.774   4.552 -0.1953 -0.0187 -0.2202
  624BOLB   GL214956  13.087  22.884   4.270  0.0133  0.0340 -0.1675
  624BOLB   C1A14957  13.590  22.883   4.279  0.0082 -0.1540  0.0556
  624BOLB   C2A14958  13.842  23.171   3.991 -0.2200  0.1546 -0.0663
  624BOLB   C3A14959  14.239  23.305   3.970 -0.3007 -0.1530 -0.0881
  624BOLB   C4A14960  14.547  23.215   3.731  0.2319 -0.2382 -0.2254
  624BOLB   C1B14961  13.180  23.273   4.087  0.2113  0.3309  0.2060
  624BOLB   C2B14962  13.424  23.592   3.918 -0.2285  0.1564  0.2387
  624BOLB   C3B14963  13.402  23.987   3.719 -0.1007  0.0257 -0.0026
  624BOLB   C4B14964  13.559  24.307   3.534 -0.1390 -0.0480  0.0460
  624BOLB   NC214965  16.755  23.638   2.476  0.0392  0.0877 -0.0555
  624BOLB   PO214966  16.492  23.354   2.174 -0.3171  0.0696  0.4982
  624BOLB   GL314967  16.163  23.472   2.462 -0.0094 -0.1904 -0.0664
  624BOLB   GL414968  15.970  23.581   2.218  0.0545 -0.3698 -0.5559
  624BOLB   C1C14969  15.903  23.304   2.924 -0.1213 -0.3872 -0.2286
  624BOLB   C2C14970  15.613  23.208   3.180  0.1634 -0.2233  0.1798
  624BOLB   C3C14971  15.177  23.131   3.309 -0.2210  0.0188  0.2698
  624BOLB   C4C14972  14.981  23.197   3.593  0.0958 -0.0530 -0.2060
  624BOLB   C1D14973  15.718  23.643   2.599 -0.1124  0.1795 -0.1061
  624BOLB   C2D14974  15.427  23.539   2.927 -0.1870 -0.3608  0.0993
  624BOLB   C3D14975  15.229  23.656   3.361 -0.1885 -0.2589 -0.0545
  624BOLB   C4D14976  14.827  23.656   3.513  0.2976  0.1445  0.2169
  625BOLB   NC114977   5.935  14.605   4.384  0.0796  0.2271  0.1443
  625BOLB   PO114978   6.414  14.584   4.163 -0.1948 -0.1216 -0.0051
  625BOLB   GL114979   6.582  14.362   3.910  0.3122  0.0329 -0.0861
  625BOLB   GL214980   6.882  14.244   4.161  0.0591  0.3301 -0.3175
  625BOLB   C1A14981   6.497  13.991   3.884 -0.1237 -0.2857 -0.3858
  625BOLB   C2A14982   6.396  13.420   3.789  0.0066 -0.1488 -0.0748
  625BOLB   C3A14983   6.173  12.997   3.755  0.2020 -0.0527 -0.0580
  625BOLB   C4A14984   6.182  12.687   3.477 -0.0237  0.0684 -0.0611
  625BOLB   C1B14985   7.042  14.130   3.779 -0.0508 -0.3657  0.0330
  625BOLB   C2B14986   7.360  13.941   3.499  0.1699  0.0533 -0.0738
  625BOLB   C3B14987   7.327  13.454   3.559  0.2972  0.0190 -0.2898
  625BOLB   C4B14988   7.552  13.190   3.886 -0.3593  0.0473  0.3207
  625BOLB   NC214989   5.623  11.633   1.953  0.2090  0.2337  0.1447
  625BOLB   PO214990   5.716  11.242   2.187 -0.5505 -0.1468 -0.1723
  625BOLB   GL314991   5.961  11.663   2.318  0.2170 -0.0424 -0.1578
  625BOLB   GL414992   5.854  12.001   2.222 -0.1497 -0.1263  0.1700
  625BOLB   C1C14993   6.357  11.933   2.542  0.0898  0.1013 -0.1609
  625BOLB   C2C14994   6.628  12.107   2.702  0.0967  0.1952 -0.0895
  625BOLB   C3C14995   6.810  12.326   3.039 -0.0775  0.1300 -0.1122
  625BOLB   C4C14996   6.554  12.433   3.363 -0.0524 -0.2660  0.3716
  625BOLB   C1D14997   5.890  12.070   2.635 -0.1535  0.3232  0.0845
  625BOLB   C2D14998   6.235  12.198   2.977 -0.0642  0.4656  0.1333
  625BOLB   C3D14999   6.048  12.147   3.425  0.0633  0.0484  0.3928
  625BOLB   C4D15000   6.023  12.332   3.845  0.0905  0.1032 -0.0404
  626BOLB   NC115001   8.557  24.395   3.743 -0.0034 -0.2287 -0.1335
  626BOLB   PO115002   8.894  24.325   3.658 -0.0585  0.2310 -0.2127
  626BOLB   GL115003   9.009  24.551   3.459  0.0196  0.3462  0.0342
  626BOLB   GL215004   8.692  24.560   3.231  0.1488 -0.3757  0.0364
  626BOLB   C1A15005   9.236  24.744   2.989 -0.1405 -0.0533  0.3021
  626BOLB   C2A15006   9.208  24.839   2.579 -0.0561  0.0420  0.2565
  626BOLB   C3A15007   9.478  24.943   2.251 -0.2889 -0.0637 -0.0668
  626BOLB   C4A15008   9.839  25.144   2.154  0.2375 -0.0358  0.0002
  626BOLB   C1B15009   8.782  24.564   2.767  0.3901  0.1831 -0.2907
  626BOLB   C2B15010   8.843  24.559   2.358  0.0639 -0.1447  0.1598
  626BOLB   C3B15011   9.152  24.707   2.019  0.0495  0.0346 -0.2942
  626BOLB   C4B15012   9.518  24.812   1.738  0.5141  0.0261 -0.1016
  626BOLB   NC215013  10.257  25.905  -0.512 -0.2758 -0.3566 -0.2355
  626BOLB   PO215014  10.132  26.070  -0.151 -0.0806  0.3345  0.0050
  626BOLB   GL315015  10.148  25.768   0.084  0.0745 -0.1953  0.3002
  626BOLB   GL415016  10.491  25.828   0.260  0.1567 -0.2126 -0.0993
  626BOLB   C1C15017  10.061  25.698   0.538  0.0095  0.3181  0.0241
  626BOLB   C2C15018  10.031  25.374   0.894 -0.1396  0.3245  0.0179
  626BOLB   C3C15019  10.273  25.295   1.289 -0.2125  0.0839  0.3106
  626BOLB   C4C15020  10.150  25.224   1.730 -0.1780  0.0064 -0.1886
  626BOLB   C1D15021  10.498  25.719   0.765 -0.0626 -0.0536 -0.0484
  626BOLB   C2D15022  10.247  25.839   1.075  0.2623 -0.0276 -0.2654
  626BOLB   C3D15023   9.996  25.709   1.447 -0.1204 -0.0085 -0.1102
  626BOLB   C4D15024   9.986  25.673   1.916 -0.1281  0.0263  0.0170
  627BOLB   NC115025   4.847  21.717   2.790 -0.0352 -0.1610  0.0184
  627BOLB   PO115026   4.935  21.589   2.450  0.2413  0.0879  0.1506
  627BOLB   GL115027   4.671  21.562   2.211  0.0034  0.0675  0.3082
  627BOLB   GL215028   4.563  21.850   2.101 -0.2226 -0.0861  0.0102
  627BOLB   C1A15029   4.499  21.425   1.778 -0.1901  0.1586  0.0192
  627BOLB   C2A15030   4.304  21.485   1.400 -0.1742 -0.0794 -0.1708
  627BOLB   C3A15031   4.169  21.599   1.018  0.1763 -0.0809 -0.2798
  627BOLB   C4A15032   3.992  21.544   0.573 -0.1629  0.3021 -0.1400
  627BOLB   C1B15033   4.558  21.908   1.708 -0.0377  0.0665  0.1615
  627BOLB   C2B15034   4.402  21.944   1.376 -0.2193 -0.2202  0.1998
  627BOLB   C3B15035   4.417  21.986   0.869  0.2767 -0.1271  0.0449
  627BOLB   C4B15036   4.239  21.986   0.473 -0.1610  0.2773 -0.1531
  627BOLB   NC215037   3.479  20.569  -2.001  0.2166  0.1284  0.3291
  627BOLB   PO215038   3.274  20.786  -1.655  0.0332  0.1296  0.2962
  627BOLB   GL315039   3.531  20.846  -1.287 -0.0511  0.0620 -0.0268
  627BOLB   GL415040   3.532  20.641  -1.072  0.1615  0.1228 -0.0813
  627BOLB   C1C15041   3.696  21.142  -0.961 -0.1150  0.2474  0.1434
  627BOLB   C2C15042   3.749  21.414  -0.571  0.3048  0.2787  0.1693
  627BOLB   C3C15043   3.946  21.559  -0.267  0.2577 -0.3145  0.0570
  627BOLB   C4C15044   4.090  21.352   0.147 -0.0809 -0.2635 -0.1534
  627BOLB   C1D15045   3.654  20.680  -0.699  0.2373 -0.3953 -0.1369
  627BOLB   C2D15046   3.824  20.876  -0.387  0.2070 -0.2588 -0.0186
  627BOLB   C3D15047   3.879  20.915   0.064  0.1312 -0.0645  0.0998
  627BOLB   C4D15048   3.883  20.956   0.561 -0.1520 -0.1285  0.1390
  628BOLB   NC115049   7.533  28.855   7.795 -0.2518  0.1377 -0.0030
  628BOLB   PO115050   7.432  28.874   8.238 -0.1155  0.0352 -0.2445
  628BOLB   GL115051   7.600  29.293   8.033  0.4086  0.1120  0.0043
  628BOLB   GL215052   7.387  29.530   8.007  0.0095 -0.3329 -0.1641
  628BOLB   C1A15053   7.807  29.693   8.188 -0.2195 -0.0708  0.1608
  628BOLB   C2A15054   7.778  30.201   8.188 -0.3086  0.0028 -0.0755
  628BOLB   C3A15055   8.067  30.533   8.194  0.1425 -0.1463 -0.1951
  628BOLB   C4A15056   8.289  30.798   7.996 -0.2750  0.3276  0.1682
  628BOLB   C1B15057   7.462  29.772   7.662  0.1852  0.0600 -0.0247
  628BOLB   C2B15058   7.679  29.939   7.237  0.1151  0.1313  0.1171
  628BOLB   C3B15059   7.721  30.478   7.002  0.0877  0.1168 -0.0109
  628BOLB   C4B15060   7.605  30.547   6.563  0.0533  0.2659 -0.3404
  628BOLB   NC215061   9.143  33.034   7.510 -0.1441  0.1955 -0.2563
  628BOLB   PO215062   8.959  32.907   7.143  0.2098  0.0327 -0.1180
  628BOLB   GL315063   8.924  32.432   7.083 -0.1552 -0.3284 -0.1746
  628BOLB   GL415064   9.230  32.350   6.928 -0.1218 -0.1201  0.2084
  628BOLB   C1C15065   9.054  32.117   7.355  0.1785  0.2507 -0.2712
  628BOLB   C2C15066   8.908  31.873   7.714  0.1659  0.0041 -0.1135
  628BOLB   C3C15067   9.045  31.504   7.848  0.1647  0.1322  0.1852
  628BOLB   C4C15068   8.748  31.063   7.826  0.0125  0.0982  0.1717
  628BOLB   C1D15069   9.412  32.026   6.988 -0.0313  0.0255 -0.1688
  628BOLB   C2D15070   9.558  31.959   7.349 -0.2217 -0.1283  0.1037
  628BOLB   C3D15071   9.848  31.706   7.649  0.2022 -0.1336  0.0442
  628BOLB   C4D15072   9.958  31.389   7.601 -0.0638 -0.0718  0.0446
  629BOLB   NC115073   8.427  26.254  16.832  0.5472 -0.0527 -0.0830
  629BOLB   PO115074   8.225  26.230  17.203  0.0261 -0.1539 -0.1345
  629BOLB   GL115075   8.192  26.413  17.617  0.4990 -0.1270 -0.1036
  629BOLB   GL215076   8.410  26.317  17.772 -0.2259 -0.0787 -0.4984
  629BOLB   C1A15077   8.003  26.622  17.932  0.0010  0.1678  0.0093
  629BOLB   C2A15078   8.036  26.766  18.426  0.1501  0.3180 -0.0801
  629BOLB   C3A15079   8.158  26.462  18.813  0.1914 -0.0066  0.0967
  629BOLB   C4A15080   8.283  26.535  19.129  0.0780 -0.0531 -0.3277
  629BOLB   C1B15081   8.665  26.593  17.999  0.1821 -0.3114  0.1478
  629BOLB   C2B15082   8.841  27.043  18.071 -0.4957  0.1808 -0.2147
  629BOLB   C3B15083   9.156  27.402  17.993 -0.2401 -0.0284  0.1344
  629BOLB   C4B15084   9.515  27.611  18.166 -0.2599 -0.1204 -0.0057
  629BOLB   NC215085   8.332  28.263  20.697  0.0421  0.1249 -0.0100
  629BOLB   PO215086   8.697  27.994  20.959  0.1951 -0.0581 -0.0641
  629BOLB   GL315087   8.519  27.781  20.603 -0.2362 -0.0742 -0.2627
  629BOLB   GL415088   8.519  27.465  20.640  0.2208  0.0321 -0.2820
  629BOLB   C1C15089   8.522  27.803  20.153 -0.1236 -0.3219 -0.2289
  629BOLB   C2C15090   8.616  27.445  19.850  0.0206 -0.2283 -0.1095
  629BOLB   C3C15091   8.602  27.095  19.584  0.2334 -0.3775  0.0425
  629BOLB   C4C15092   8.524  26.714  19.336  0.1274 -0.1601 -0.1847
  629BOLB   C1D15093   8.489  27.315  20.326  0.1307  0.4526 -0.0005
  629BOLB   C2D15094   8.370  26.982  20.120  0.1391  0.0862  0.1245
  629BOLB   C3D15095   8.478  26.634  19.965 -0.1204 -0.1320  0.3630
  629BOLB   C4D15096   8.444  26.386  19.702 -0.1889  0.2368  0.2477
  630BOLB   NC115097   8.354  24.006  18.131  0.0534 -0.0608  0.0123
  630BOLB   PO115098   8.405  23.874  18.443  0.1429 -0.0552  0.1043
  630BOLB   GL115099   8.533  23.796  18.809  0.0955 -0.2206  0.3101
  630BOLB   GL215100   8.883  23.932  18.984  0.3324  0.0367  0.0499
  630BOLB   C1A15101   8.392  24.126  19.124 -0.0178  0.1252 -0.2932
  630BOLB   C2A15102   8.451  24.443  19.320  0.0932  0.0799 -0.0965
  630BOLB   C3A15103   8.618  24.493  19.762 -0.1013  0.2892 -0.0896
  630BOLB   C4A15104   8.894  24.289  20.090 -0.3056  0.1496 -0.0735
  630BOLB   C1B15105   9.125  24.210  19.147  0.0701 -0.1569  0.0489
  630BOLB   C2B15106   9.383  24.097  19.466 -0.1663 -0.0579  0.0534
  630BOLB   C3B15107   9.295  23.977  19.929 -0.1625 -0.0314 -0.2054
  630BOLB   C4B15108   9.272  23.579  20.163  0.2012  0.0704 -0.1314
  630BOLB   NC215109   9.165  24.073  22.582 -0.0359 -0.0838 -0.2864
  630BOLB   PO215110   9.177  24.429  22.273  0.1672  0.1364  0.1585
  630BOLB   GL315111   9.143  24.103  21.848 -0.0185 -0.1545 -0.0691
  630BOLB   GL415112   9.210  24.254  21.687 -0.1179 -0.3003  0.2304
  630BOLB   C1C15113   9.298  23.818  21.489  0.2646 -0.0088  0.1283
  630BOLB   C2C15114   9.356  23.769  21.051  0.3096  0.1874 -0.0775
  630BOLB   C3C15115   9.331  23.775  20.612  0.0858  0.2453  0.0095
  630BOLB   C4C15116   9.058  24.053  20.412 -0.0924  0.1520 -0.0933
  630BOLB   C1D15117   9.151  24.291  21.221  0.1087  0.6431  0.0598
  630BOLB   C2D15118   9.313  24.274  20.810  0.0761 -0.1304  0.0773
  630BOLB   C3D15119   9.264  24.475  20.345  0.3671  0.2348  0.0960
  630BOLB   C4D15120   9.428  24.818  19.975  0.0836  0.1743 -0.2356
  631BOLB   NC115121   9.588  25.378  16.774  0.1299 -0.0840  0.2172
  631BOLB   PO115122   9.488  25.406  17.242  0.0234  0.0107 -0.0474
  631BOLB   GL115123   9.634  25.579  17.577 -0.1562  0.0447 -0.0861
  631BOLB   GL215124   9.768  25.562  17.929  0.2801 -0.1812  0.3935
  631BOLB   C1A15125   9.480  25.961  17.837  0.0054 -0.1248 -0.1475
  631BOLB   C2A15126   9.609  26.458  17.990  0.0531  0.0344 -0.0798
  631BOLB   C3A15127   9.968  26.759  18.136  0.0722  0.1722  0.0602
  631BOLB   C4A15128  10.214  26.994  18.449 -0.0856 -0.2000  0.1762
  631BOLB   C1B15129  10.194  25.642  18.085 -0.0686 -0.0939  0.1432
  631BOLB   C2B15130  10.293  25.840  18.561 -0.0507  0.3876 -0.1070
  631BOLB   C3B15131  10.199  26.225  18.722  0.1429 -0.1572 -0.1001
  631BOLB   C4B15132  10.022  26.592  18.563  0.1401 -0.1312  0.2648
  631BOLB   NC215133  11.369  28.323  20.407 -0.0665 -0.1725  0.0488
  631BOLB   PO215134  10.973  28.484  20.176  0.0287  0.0408  0.2794
  631BOLB   GL315135  10.873  28.255  19.777  0.1778 -0.1043 -0.0808
  631BOLB   GL415136  10.515  28.366  19.821  0.0538 -0.2310 -0.2556
  631BOLB   C1C15137  10.654  28.000  19.492  0.1604  0.1483  0.0186
  631BOLB   C2C15138  10.583  27.923  19.116  0.1281  0.2748 -0.3559
  631BOLB   C3C15139  10.419  27.663  18.964  0.0297  0.0089 -0.1798
  631BOLB   C4C15140  10.385  27.239  18.792 -0.1146 -0.1019 -0.2514
  631BOLB   C1D15141  10.126  28.198  19.649 -0.1504  0.1046 -0.3038
  631BOLB   C2D15142   9.900  27.774  19.696  0.0039 -0.2006 -0.0439
  631BOLB   C3D15143   9.659  27.626  19.298 -0.1446 -0.1195 -0.0896
  631BOLB   C4D15144   9.408  27.873  19.070 -0.2535 -0.0337  0.3433
  632BOLB   NC115145   2.875  20.570   2.950 -0.0466 -0.1846 -0.3449
  632BOLB   PO115146   3.378  20.519   2.822 -0.2509  0.0917 -0.0276
  632BOLB   GL115147   3.145  20.659   2.451  0.0693 -0.0015  0.2936
  632BOLB   GL215148   2.849  20.714   2.479 -0.5547  0.0588  0.0278
  632BOLB   C1A15149   3.116  20.884   2.079 -0.1391  0.0890 -0.3403
  632BOLB   C2A15150   2.860  21.135   1.673 -0.1073 -0.0163 -0.1540
  632BOLB   C3A15151   2.705  21.189   1.337  0.0796 -0.1887 -0.2858
  632BOLB   C4A15152   2.579  21.443   1.041 -0.2930 -0.0185  0.2262
  632BOLB   C1B15153   2.688  20.606   2.055 -0.2132  0.0297  0.0681
  632BOLB   C2B15154   2.813  20.583   1.610 -0.1300  0.0621 -0.2565
  632BOLB   C3B15155   3.092  20.817   1.339 -0.1243  0.0384  0.0435
  632BOLB   C4B15156   3.307  21.123   1.368 -0.1605  0.0820 -0.1731
  632BOLB   NC215157   0.644  21.267  -0.282  0.0604 -0.1940  0.2805
  632BOLB   PO215158   1.099  21.433  -0.477 -0.1240  0.1452  0.0762
  632BOLB   GL315159   1.273  21.651  -0.166  0.0905  0.1441 -0.0134
  632BOLB   GL415160   1.386  21.431   0.011  0.2840 -0.2162 -0.3248
  632BOLB   C1C15161   1.381  21.945   0.137  0.0417  0.0017  0.0960
  632BOLB   C2C15162   1.744  22.046   0.211  0.2602  0.2278  0.1307
  632BOLB   C3C15163   1.950  21.869   0.536 -0.1674 -0.0255  0.0715
  632BOLB   C4C15164   2.121  21.643   0.890 -0.2790  0.0569 -0.0097
  632BOLB   C1D15165   1.670  21.508   0.316  0.0058  0.1017 -0.1228
  632BOLB   C2D15166   1.999  21.315   0.553 -0.1552  0.0829  0.1035
  632BOLB   C3D15167   2.187  21.151   0.940  0.1583  0.0462 -0.0789
  632BOLB   C4D15168   2.133  21.329   1.288 -0.1945  0.4091 -0.1924
  633BOLB   NC115169   2.317  27.692   8.976 -0.0163  0.0090  0.1345
  633BOLB   PO115170   2.065  27.672   9.356 -0.1366 -0.2069  0.0414
  633BOLB   GL115171   2.054  28.076   9.162 -0.3747  0.0392  0.0607
  633BOLB   GL215172   1.758  28.250   9.227  0.0981 -0.1313  0.2244
  633BOLB   C1A15173   2.228  28.351   8.875 -0.0402 -0.1084 -0.3415
  633BOLB   C2A15174   2.231  28.702   8.656 -0.3580 -0.0360  0.1410
  633BOLB   C3A15175   2.259  29.052   8.377 -0.0065 -0.0482 -0.2294
  633BOLB   C4A15176   1.938  29.375   8.514  0.2657  0.0758 -0.0093
  633BOLB   C1B15177   1.450  28.601   9.281 -0.0557 -0.1226  0.1580
  633BOLB   C2B15178   0.921  28.506   9.408 -0.1190  0.0346 -0.1046
  633BOLB   C3B15179   0.446  28.578   9.262  0.0902  0.1305 -0.2385
  633BOLB   C4B15180   0.203  28.716   8.895 -0.1721  0.3496 -0.3794
  633BOLB   NC215181   0.493  31.469   8.753  0.1101 -0.2584 -0.0584
  633BOLB   PO215182   0.482  31.316   8.331 -0.1934  0.2341  0.0897
  633BOLB   GL315183   0.708  30.940   8.399 -0.1671 -0.0403 -0.3325
  633BOLB   GL415184   0.598  30.644   8.438  0.2577  0.1183  0.0358
  633BOLB   C1C15185   1.126  30.702   8.381  0.0180 -0.1592 -0.0823
  633BOLB   C2C15186   1.600  30.566   8.513 -0.1506  0.3121  0.4223
  633BOLB   C3C15187   1.685  30.163   8.639  0.1260  0.3458  0.2166
  633BOLB   C4C15188   1.800  29.688   8.533 -0.1180 -0.1570 -0.1648
  633BOLB   C1D15189   0.822  30.248   8.281  0.1928  0.0424 -0.0814
  633BOLB   C2D15190   0.912  29.847   8.113  0.0227  0.2265  0.1836
  633BOLB   C3D15191   1.225  29.761   7.789  0.0642 -0.0175 -0.1159
  633BOLB   C4D15192   1.333  29.458   7.557 -0.0184  0.2276 -0.0665
  634BOLB   NC115193   2.289  16.738  11.514  0.2662 -0.1000 -0.2624
  634BOLB   PO115194   1.983  16.983  11.705 -0.3901 -0.0511 -0.0355
  634BOLB   GL115195   1.620  16.710  11.853  0.1535  0.0942  0.2765
  634BOLB   GL215196   1.381  16.712  11.605 -0.0493  0.0158  0.0603
  634BOLB   C1A15197   1.463  16.394  12.104  0.4395 -0.0293 -0.1288
  634BOLB   C2A15198   1.294  15.974  12.309  0.4070 -0.0122 -0.2583
  634BOLB   C3A15199   0.870  15.831  12.295 -0.0107 -0.4156  0.0839
  634BOLB   C4A15200   0.629  15.576  11.963 -0.1946 -0.2196 -0.1596
  634BOLB   C1B15201   1.092  16.376  11.680 -0.1397 -0.4318  0.2020
  634BOLB   C2B15202   0.897  15.983  11.691  0.2766 -0.2934  0.2905
  634BOLB   C3B15203   0.725  15.701  11.386  0.4319  0.0660  0.3245
  634BOLB   C4B15204   0.557  15.255  11.212 -0.1128 -0.0082  0.5054
  634BOLB   NC215205   1.703  17.790  11.404 -0.1599  0.1072  0.0385
  634BOLB   PO215206   1.420  17.543  11.415  0.0937 -0.0563 -0.1866
  634BOLB   GL315207   1.316  17.061  11.293 -0.0771 -0.1942  0.0302
  634BOLB   GL415208   1.006  17.140  11.447 -0.0157  0.0316  0.1324
  634BOLB   C1C15209   1.002  16.682  11.278  0.1906  0.0368 -0.5223
  634BOLB   C2C15210   0.649  16.372  11.480 -0.0679 -0.1046 -0.2621
  634BOLB   C3C15211   0.340  16.076  11.597  0.1705 -0.1675 -0.0164
  634BOLB   C4C15212   0.384  15.739  11.760 -0.1676  0.0491  0.2890
  634BOLB   C1D15213   0.564  16.919  11.409 -0.2346  0.1451 -0.1107
  634BOLB   C2D15214   0.272  16.706  11.177  0.0950  0.2292 -0.3567
  634BOLB   C3D15215  -0.046  16.535  10.967  0.0183  0.1379  0.4588
  634BOLB   C4D15216  -0.184  16.366  10.540  0.3267  0.0920 -0.3249
  635BOLB   NC115217  14.397  20.040  12.621  0.0722  0.0213 -0.1380
  635BOLB   PO115218  14.497  20.210  12.240  0.1413 -0.0800 -0.0082
  635BOLB   GL115219  14.872  20.302  12.560  0.2791 -0.1328  0.0224
  635BOLB   GL215220  15.204  20.358  12.456 -0.5990 -0.2271 -0.3015
  635BOLB   C1A15221  15.168  20.381  12.973 -0.2446 -0.2486 -0.0989
  635BOLB   C2A15222  15.511  20.187  13.153  0.0771 -0.1459 -0.1227
  635BOLB   C3A15223  15.775  19.855  13.168  0.1834 -0.0554  0.0573
  635BOLB   C4A15224  15.986  19.570  13.330  0.0601  0.0300  0.1646
  635BOLB   C1B15225  15.529  20.153  12.648 -0.0140  0.4204 -0.3101
  635BOLB   C2B15226  15.850  19.980  12.678 -0.4361 -0.0945 -0.0578
  635BOLB   C3B15227  16.257  20.151  12.868 -0.0134  0.1152  0.1737
  635BOLB   C4B15228  16.341  20.559  12.929  0.2435  0.0876 -0.3343
  635BOLB   NC215229  18.247  19.273  14.581  0.1954 -0.0518 -0.2400
  635BOLB   PO215230  18.236  19.126  14.230  0.0836 -0.0986  0.2121
  635BOLB   GL315231  17.925  19.453  14.255  0.2015  0.2030  0.2809
  635BOLB   GL415232  17.913  19.653  14.071  0.1429 -0.0489  0.0189
  635BOLB   C1C15233  17.521  19.607  14.391 -0.0624 -0.1852  0.4831
  635BOLB   C2C15234  17.044  19.570  14.255  0.0510 -0.1481  0.0191
  635BOLB   C3C15235  16.653  19.525  14.031 -0.0767 -0.1671  0.0503
  635BOLB   C4C15236  16.391  19.607  13.621  0.2518 -0.0399  0.0622
  635BOLB   C1D15237  17.725  20.004  14.117  0.0113  0.1333 -0.2127
  635BOLB   C2D15238  17.227  20.089  14.300 -0.1535 -0.5833  0.3013
  635BOLB   C3D15239  16.935  20.361  14.125  0.0678  0.1762 -0.1180
  635BOLB   C4D15240  16.634  20.594  14.002 -0.0898 -0.0131  0.0749
  636BOLB   NC115241   7.565  26.776   5.040  0.1169  0.0645 -0.4270
  636BOLB   PO115242   7.351  27.117   5.034 -0.1510 -0.3724 -0.1467
  636BOLB   GL115243   7.284  27.427   4.822  0.0997 -0.1341  0.0344
  636BOLB   GL215244   6.937  27.543   4.946  0.0627 -0.1312 -0.1830
  636BOLB   C1A15245   7.365  27.764   4.547  0.0286  0.1073 -0.0231
  636BOLB   C2A15246   7.352  28.233   4.709  0.3480 -0.3124 -0.1614
  636BOLB   C3A15247   7.501  28.671   4.643 -0.1618 -0.1327  0.2640
  636BOLB   C4A15248   7.858  28.856   4.603  0.0614 -0.0819  0.3274
  636BOLB   C1B15249   6.932  27.893   4.763 -0.0056  0.2076  0.0314
  636BOLB   C2B15250   6.704  28.235   4.559  0.2204 -0.5376  0.2118
  636BOLB   C3B15251   6.739  28.504   4.215 -0.0576 -0.0638  0.1096
  636BOLB   C4B15252   7.160  28.582   4.127  0.0963 -0.1080 -0.1092
  636BOLB   NC215253   8.322  30.692   3.275  0.2045 -0.0548  0.0750
  636BOLB   PO215254   7.962  30.461   3.131 -0.2872 -0.0451 -0.1759
  636BOLB   GL315255   7.902  30.035   3.295 -0.3579  0.0149  0.0685
  636BOLB   GL415256   7.509  30.016   3.372  0.0459 -0.2761  0.2786
  636BOLB   C1C15257   7.868  29.714   3.592 -0.0433 -0.1240  0.0112
  636BOLB   C2C15258   8.137  29.443   3.688  0.0641  0.5244  0.0583
  636BOLB   C3C15259   8.297  29.208   4.042  0.0364 -0.0349  0.0776
  636BOLB   C4C15260   7.942  29.280   4.441  0.0037 -0.0149  0.3729
  636BOLB   C1D15261   7.203  29.750   3.617 -0.1563  0.1844 -0.3050
  636BOLB   C2D15262   7.060  29.459   3.926 -0.0710 -0.2173  0.0331
  636BOLB   C3D15263   7.095  29.514   4.401  0.3758 -0.0864  0.1673
  636BOLB   C4D15264   7.258  29.510   4.771  0.1007 -0.2429  0.0250
  637BOLB   NC115265   3.419  17.497  17.122 -0.0610 -0.0693  0.3724
  637BOLB   PO115266   3.039  17.305  16.858  0.2262 -0.0281  0.0368
  637BOLB   GL115267   3.017  17.285  17.274  0.1523  0.2137  0.3558
  637BOLB   GL215268   3.078  17.452  17.517  0.0220 -0.1822 -0.1734
  637BOLB   C1A15269   2.818  17.003  17.405  0.0619  0.0913 -0.0345
  637BOLB   C2A15270   2.433  16.728  17.561 -0.3393 -0.3045 -0.1561
  637BOLB   C3A15271   2.292  16.547  17.970 -0.1821 -0.1075  0.4515
  637BOLB   C4A15272   2.110  16.370  18.456 -0.0886 -0.1099 -0.1382
  637BOLB   C1B15273   3.064  17.127  17.804 -0.3371  0.0518 -0.2215
  637BOLB   C2B15274   2.946  16.677  17.894  0.2781 -0.0976 -0.2552
  637BOLB   C3B15275   2.731  16.299  18.060 -0.2696 -0.1425  0.2539
  637BOLB   C4B15276   2.715  15.895  18.204  0.1724 -0.2630  0.1177
  637BOLB   NC215277   2.277  14.167  20.357  0.1401 -0.2381  0.1280
  637BOLB   PO215278   2.482  14.400  20.012 -0.2526  0.1738  0.1935
  637BOLB   GL315279   2.312  14.686  19.832  0.2633  0.2323  0.0444
  637BOLB   GL415280   2.021  14.837  19.938 -0.2005  0.0666 -0.0803
  637BOLB   C1C15281   2.344  15.079  19.547  0.0551 -0.0786  0.0022
  637BOLB   C2C15282   2.369  15.190  19.099  0.2150 -0.0256 -0.1541
  637BOLB   C3C15283   2.358  15.594  18.856  0.2015 -0.3091  0.0079
  637BOLB   C4C15284   2.334  15.976  18.580  0.1714 -0.0648  0.2166
  637BOLB   C1D15285   1.846  15.148  19.742  0.2736 -0.0260 -0.0599
  637BOLB   C2D15286   2.056  15.433  19.339  0.3398 -0.2230 -0.0234
  637BOLB   C3D15287   2.225  15.910  19.265  0.1754  0.2734  0.1550
  637BOLB   C4D15288   2.296  16.253  18.998 -0.0343 -0.0255  0.1139
  638BOLB   NC115289   6.078  26.961   5.807  0.1964 -0.0949  0.1869
  638BOLB   PO115290   5.793  27.220   5.750  0.0399 -0.1910  0.0477
  638BOLB   GL115291   5.642  27.531   5.367 -0.0164 -0.1584 -0.0170
  638BOLB   GL215292   5.665  27.569   5.070 -0.1619  0.1308 -0.2664
  638BOLB   C1A15293   5.918  27.969   5.155  0.3021  0.0430  0.0271
  638BOLB   C2A15294   5.903  28.432   5.092  0.0308  0.1383 -0.1641
  638BOLB   C3A15295   5.889  28.727   4.636  0.2386 -0.0876  0.0584
  638BOLB   C4A15296   5.640  28.672   4.251 -0.0436  0.0096  0.1983
  638BOLB   C1B15297   5.171  27.643   5.045 -0.5315  0.0476  0.1339
  638BOLB   C2B15298   4.833  27.980   5.045  0.0357  0.2485 -0.4714
  638BOLB   C3B15299   4.509  28.185   4.869 -0.0652  0.1175  0.1676
  638BOLB   C4B15300   4.341  28.107   4.469  0.0366 -0.3206  0.0154
  638BOLB   NC215301   5.467  30.480   2.507  0.0255  0.4394 -0.1641
  638BOLB   PO215302   5.813  30.092   2.617  0.2431  0.0671 -0.0905
  638BOLB   GL315303   5.871  29.739   2.861 -0.2429 -0.0621 -0.1676
  638BOLB   GL415304   5.706  29.877   3.099 -0.0397 -0.1798 -0.0121
  638BOLB   C1C15305   5.596  29.422   3.049  0.0845  0.2598 -0.2310
  638BOLB   C2C15306   5.395  29.318   3.460  0.1175 -0.1562  0.0099
  638BOLB   C3C15307   5.159  29.161   3.836 -0.4397  0.1594 -0.1399
  638BOLB   C4C15308   5.242  28.867   4.212  0.1707  0.1702  0.1497
  638BOLB   C1D15309   5.285  29.791   3.294 -0.2097  0.2451 -0.0813
  638BOLB   C2D15310   4.921  29.725   3.520 -0.0150 -0.0610 -0.0044
  638BOLB   C3D15311   4.480  29.654   3.712 -0.1356  0.4424  0.0807
  638BOLB   C4D15312   4.021  29.456   3.760 -0.1570  0.0407  0.0070
  639BOLB   NC115313   7.990  29.016   8.259  0.1965  0.1118  0.2024
  639BOLB   PO115314   8.042  28.853   7.713  0.0559  0.2886 -0.1030
  639BOLB   GL115315   8.267  29.149   7.551 -0.4731 -0.2413 -0.1192
  639BOLB   GL215316   8.077  29.371   7.838  0.1092  0.2617 -0.1055
  639BOLB   C1A15317   8.418  29.394   7.406 -0.0862 -0.0489 -0.0334
  639BOLB   C2A15318   8.710  29.610   7.142  0.1870  0.1493 -0.1348
  639BOLB   C3A15319   9.081  29.496   6.984 -0.1674  0.0267 -0.0411
  639BOLB   C4A15320   9.360  29.724   6.868  0.0944  0.2103 -0.0647
  639BOLB   C1B15321   8.115  29.678   7.709 -0.2989  0.1172  0.1225
  639BOLB   C2B15322   7.917  30.135   7.669  0.0883 -0.3038 -0.4277
  639BOLB   C3B15323   7.833  30.597   7.537 -0.2634 -0.1301 -0.1836
  639BOLB   C4B15324   7.565  30.913   7.456 -0.1388 -0.1274 -0.0342
  639BOLB   NC215325  10.814  31.655   6.797 -0.0763 -0.2056 -0.0968
  639BOLB   PO215326  10.901  31.550   6.456 -0.0246 -0.3993  0.2097
  639BOLB   GL315327  10.844  31.090   6.603 -0.1482  0.0332 -0.0673
  639BOLB   GL415328  10.930  31.132   6.890  0.0067 -0.1324  0.2181
  639BOLB   C1C15329  10.719  30.778   6.463  0.0562  0.3658  0.0921
  639BOLB   C2C15330  10.376  30.526   6.558 -0.0206  0.0219  0.0091
  639BOLB   C3C15331   9.967  30.230   6.470  0.1237 -0.0841 -0.0921
  639BOLB   C4C15332   9.685  29.920   6.684 -0.0936 -0.1500  0.3789
  639BOLB   C1D15333  10.378  30.909   6.857 -0.4931 -0.1401 -0.0624
  639BOLB   C2D15334  10.129  30.556   6.971  0.0117  0.2219  0.0566
  639BOLB   C3D15335   9.857  30.375   7.290 -0.2078  0.2628 -0.1398
  639BOLB   C4D15336   9.915  30.447   7.815  0.0286 -0.1369  0.1144
  640BOLB   NC115337   1.303  23.808  16.328 -0.1974  0.1291 -0.0131
  640BOLB   PO115338   1.062  23.580  16.053  0.1941 -0.0978 -0.0340
  640BOLB   GL115339   0.776  23.625  16.371  0.3274  0.0539  0.0866
  640BOLB   GL215340   0.641  23.892  16.461 -0.0116  0.1029 -0.0862
  640BOLB   C1A15341   0.245  23.558  16.523 -0.0695 -0.0988  0.0948
  640BOLB   C2A15342  -0.242  23.747  16.677  0.0584  0.0158  0.5314
  640BOLB   C3A15343  -0.556  23.850  16.884  0.1182 -0.1137  0.2257
  640BOLB   C4A15344  -0.778  24.119  17.200  0.2420 -0.0240  0.2688
  640BOLB   C1B15345   0.281  24.069  16.375 -0.0735 -0.0082  0.2848
  640BOLB   C2B15346  -0.039  24.494  16.381  0.2248 -0.0728  0.2591
  640BOLB   C3B15347  -0.438  24.652  16.454 -0.0786 -0.0065  0.2113
  640BOLB   C4B15348  -0.569  24.976  16.689  0.1657 -0.1796 -0.1262
  640BOLB   NC215349  -1.365  24.838  18.520 -0.1461 -0.1342  0.1648
  640BOLB   PO215350  -1.444  24.826  18.992 -0.2262  0.0117 -0.3807
  640BOLB   GL315351  -1.137  24.448  18.958 -0.0164  0.0378  0.1481
  640BOLB   GL415352  -0.859  24.580  19.133 -0.0423 -0.0489  0.0656
  640BOLB   C1C15353  -1.112  24.203  18.591  0.0616 -0.0195 -0.0450
  640BOLB   C2C15354  -0.906  24.003  18.291 -0.0860 -0.0180 -0.2493
  640BOLB   C3C15355  -0.955  23.898  17.877 -0.0560  0.0274  0.1240
  640BOLB   C4C15356  -1.067  24.026  17.500  0.4374  0.2407  0.0605
  640BOLB   C1D15357  -0.664  24.160  18.836  0.3077  0.0353  0.1792
  640BOLB   C2D15358  -0.412  23.821  18.983  0.2026  0.5766  0.0548
  640BOLB   C3D15359  -0.228  23.350  19.073 -0.0633 -0.3876  0.0067
  640BOLB   C4D15360   0.039  23.069  19.246  0.2568  0.1215 -0.0867
  641BOLB   NC115361   4.428  24.751   3.959 -0.0603 -0.0540 -0.0255
  641BOLB   PO115362   4.108  24.478   3.893  0.1044 -0.2501  0.1166
  641BOLB   GL115363   3.967  24.638   3.590 -0.0718  0.0650  0.1310
  641BOLB   GL215364   3.703  24.555   3.478  0.0952  0.2911 -0.2705
  641BOLB   C1A15365   4.024  25.016   3.329  0.0168  0.3009 -0.1479
  641BOLB   C2A15366   3.859  25.204   3.070 -0.0671 -0.1204  0.1096
  641BOLB   C3A15367   3.587  25.309   2.832 -0.0640 -0.1789 -0.2342
  641BOLB   C4A15368   3.513  25.470   2.389  0.0744  0.2044  0.0061
  641BOLB   C1B15369   3.653  24.768   3.110  0.2745  0.2563 -0.0858
  641BOLB   C2B15370   3.667  24.826   2.649  0.2342 -0.0345 -0.0175
  641BOLB   C3B15371   3.555  24.989   2.199 -0.2373  0.0608 -0.3841
  641BOLB   C4B15372   3.403  24.831   1.843  0.2603 -0.1826  0.5429
  641BOLB   NC215373   3.397  27.320   0.309 -0.2346  0.0148 -0.3179
  641BOLB   PO215374   3.192  27.043   0.504  0.1643 -0.1821 -0.1311
  641BOLB   GL315375   3.381  26.732   0.785 -0.0598  0.1376  0.1377
  641BOLB   GL415376   3.518  26.954   1.037  0.0469 -0.1722  0.0820
  641BOLB   C1C15377   3.262  26.496   1.183  0.4014  0.2905 -0.1013
  641BOLB   C2C15378   3.166  26.139   1.452 -0.0084 -0.0672 -0.3868
  641BOLB   C3C15379   3.130  25.702   1.711  0.1076  0.3723 -0.0153
  641BOLB   C4C15380   3.460  25.563   1.930  0.2615 -0.0633  0.0380
  641BOLB   C1D15381   3.842  26.671   1.161  0.0428 -0.0710  0.1007
  641BOLB   C2D15382   4.151  26.466   1.154 -0.2266  0.2431 -0.0946
  641BOLB   C3D15383   4.285  26.239   1.473  0.2166 -0.1300 -0.0525
  641BOLB   C4D15384   4.310  25.907   1.646  0.2906 -0.1476 -0.2679
  642BOLB   NC115385   3.003  16.727   8.478  0.1654 -0.1758  0.4023
  642BOLB   PO115386   3.160  16.368   8.598 -0.1725 -0.1075  0.2850
  642BOLB   GL115387   2.917  15.982   8.425  0.0526 -0.0563 -0.0070
  642BOLB   GL215388   2.708  15.814   8.534 -0.2535  0.0061  0.1733
  642BOLB   C1A15389   2.591  15.881   8.086 -0.1548 -0.1257 -0.1873
  642BOLB   C2A15390   2.263  15.756   7.991 -0.1709 -0.2449 -0.0044
  642BOLB   C3A15391   1.895  15.708   7.751 -0.0425  0.0659 -0.0375
  642BOLB   C4A15392   1.663  15.455   7.465  0.5652  0.2561 -0.1272
  642BOLB   C1B15393   2.553  15.463   8.765 -0.1241  0.1093 -0.3551
  642BOLB   C2B15394   2.284  15.206   8.544  0.1649 -0.0909  0.0832
  642BOLB   C3B15395   2.052  14.808   8.381 -0.0066  0.2514 -0.4460
  642BOLB   C4B15396   2.066  14.421   8.493  0.1225  0.0364  0.1423
  642BOLB   NC215397   2.366  17.251   8.196  0.1650 -0.1274 -0.4083
  642BOLB   PO215398   2.072  17.367   8.569  0.0525 -0.3277  0.1025
  642BOLB   GL315399   1.815  17.199   8.269 -0.2346 -0.1359 -0.1264
  642BOLB   GL415400   1.713  17.469   8.075 -0.2396  0.5403  0.0371
  642BOLB   C1C15401   1.577  16.960   7.975  0.2404  0.1135  0.2404
  642BOLB   C2C15402   1.339  16.654   7.687 -0.1933  0.1377 -0.3719
  642BOLB   C3C15403   1.149  16.190   7.556  0.3198  0.1003  0.0790
  642BOLB   C4C15404   1.321  15.821   7.415 -0.3369 -0.1324  0.0104
  642BOLB   C1D15405   1.413  17.330   7.702 -0.1858 -0.0052  0.1542
  642BOLB   C2D15406   1.046  17.082   7.560 -0.2956  0.1512 -0.0046
  642BOLB   C3D15407   0.667  16.996   7.461  0.0158  0.1544 -0.2700
  642BOLB   C4D15408   0.463  16.821   7.131 -0.3031  0.0003  0.1260
  643BOLB   NC115409  13.218  22.348  15.152 -0.3360 -0.2957 -0.2247
  643BOLB   PO115410  13.623  22.224  14.906  0.0915 -0.1656  0.0942
  643BOLB   GL115411  13.934  22.484  14.927  0.0839 -0.1086 -0.0615
  643BOLB   GL215412  14.312  22.450  14.733  0.0525 -0.0762 -0.1395
  643BOLB   C1A15413  14.220  22.521  15.254  0.2133  0.0831  0.2858
  643BOLB   C2A15414  14.594  22.612  15.464  0.1660 -0.0484 -0.1612
  643BOLB   C3A15415  14.953  22.642  15.695  0.1535 -0.0747  0.0027
  643BOLB   C4A15416  15.433  22.454  15.693 -0.0080  0.0767 -0.0992
  643BOLB   C1B15417  14.571  22.599  14.912 -0.2789  0.2941 -0.2454
  643BOLB   C2B15418  14.966  22.768  15.227  0.1012  0.2926  0.1588
  643BOLB   C3B15419  15.395  22.650  15.256  0.3479 -0.2308  0.1519
  643BOLB   C4B15420  15.822  22.719  15.323  0.0383  0.1216 -0.1912
  643BOLB   NC215421  17.270  23.027  17.653  0.1285  0.0102 -0.1183
  643BOLB   PO215422  16.946  23.321  17.425  0.0517  0.0150 -0.1344
  643BOLB   GL315423  16.515  23.181  17.381  0.0896  0.1083  0.2015
  643BOLB   GL415424  16.310  23.377  17.460 -0.0745 -0.1711  0.2653
  643BOLB   C1C15425  16.262  23.020  17.024  0.1439 -0.0626 -0.5425
  643BOLB   C2C15426  16.276  22.830  16.572 -0.1387 -0.1033 -0.0715
  643BOLB   C3C15427  16.122  22.683  16.181 -0.1227  0.1400 -0.0974
  643BOLB   C4C15428  15.875  22.420  15.786 -0.0878  0.1326 -0.0985
  643BOLB   C1D15429  15.981  23.767  17.315 -0.3570  0.0575  0.0376
  643BOLB   C2D15430  15.651  23.793  16.983 -0.0407  0.1098  0.0542
  643BOLB   C3D15431  15.470  23.589  16.632 -0.1721  0.2077 -0.1502
  643BOLB   C4D15432  15.154  23.405  16.356 -0.2765 -0.0209  0.1616
  644BOLB   NC115433   9.479  15.812   5.212  0.0538 -0.1051  0.0752
  644BOLB   PO115434   9.593  15.431   5.325  0.1855 -0.2768  0.1242
  644BOLB   GL115435   9.895  15.077   5.033  0.0545  0.5260 -0.0071
  644BOLB   GL215436  10.030  14.775   5.145 -0.0218  0.1998 -0.0093
  644BOLB   C1A15437  10.171  14.974   4.724 -0.0551  0.1657  0.1372
  644BOLB   C2A15438  10.139  14.680   4.366  0.1998  0.1788 -0.0842
  644BOLB   C3A15439  10.373  14.525   3.937  0.2441 -0.0393  0.4154
  644BOLB   C4A15440  10.507  14.223   3.675  0.0719 -0.0504  0.1180
  644BOLB   C1B15441  10.235  14.518   4.845  0.2651  0.0682  0.0738
  644BOLB   C2B15442  10.455  14.104   4.605  0.1621  0.4054 -0.2472
  644BOLB   C3B15443  10.442  13.704   4.328 -0.3506 -0.0947  0.0412
  644BOLB   C4B15444  10.543  13.568   3.883 -0.0642 -0.0297 -0.0026
  644BOLB   NC215445  10.540  11.813   2.972 -0.2803  0.2448 -0.4377
  644BOLB   PO215446  10.723  12.024   2.645  0.3099 -0.0050  0.3324
  644BOLB   GL315447  10.647  12.316   2.862 -0.2938 -0.1609  0.0172
  644BOLB   GL415448  10.599  12.289   3.261 -0.0573  0.1606 -0.2767
  644BOLB   C1C15449  10.605  12.694   2.739  0.1487 -0.0234 -0.1133
  644BOLB   C2C15450  10.747  13.190   2.744 -0.0774  0.0740 -0.1107
  644BOLB   C3C15451  10.727  13.517   3.077 -0.0922  0.1031 -0.0258
  644BOLB   C4C15452  10.605  13.888   3.428 -0.1446  0.1860 -0.0486
  644BOLB   C1D15453  10.277  12.523   3.085 -0.3425  0.0421  0.0397
  644BOLB   C2D15454  10.249  12.936   3.062 -0.0279  0.2797 -0.0848
  644BOLB   C3D15455  10.205  13.357   2.938  0.1155  0.4893 -0.0792
  644BOLB   C4D15456  10.056  13.694   2.739  0.0204  0.1924  0.0687
  645BOLB   NC115457  14.449  23.842   7.303 -0.0998 -0.3086 -0.0787
  645BOLB   PO115458  14.058  23.993   6.994  0.1156 -0.1721  0.4795
  645BOLB   GL115459  14.305  24.211   6.726 -0.3464  0.1674 -0.0013
  645BOLB   GL215460  14.487  24.410   6.912  0.1971  0.0174  0.2874
  645BOLB   C1A15461  14.696  24.257   6.492 -0.0670  0.1946  0.1460
  645BOLB   C2A15462  15.106  24.471   6.281 -0.3710 -0.1847  0.1142
  645BOLB   C3A15463  15.403  24.728   6.496 -0.2022  0.1406 -0.6249
  645BOLB   C4A15464  15.741  25.055   6.443  0.2006  0.2534  0.1258
  645BOLB   C1B15465  14.877  24.600   6.860 -0.0132 -0.1176  0.3820
  645BOLB   C2B15466  15.269  24.652   6.951  0.0377 -0.0727  0.0069
  645BOLB   C3B15467  15.549  25.039   6.906 -0.2054  0.1965 -0.0051
  645BOLB   C4B15468  15.738  25.290   7.179 -0.3403 -0.0052 -0.0252
  645BOLB   NC215469  17.458  26.892   6.779 -0.0109 -0.0029 -0.0411
  645BOLB   PO215470  17.682  26.689   6.565 -0.4989  0.0879 -0.2984
  645BOLB   GL315471  17.526  26.275   6.757  0.2296  0.0867  0.2895
  645BOLB   GL415472  17.717  26.094   7.123  0.1317 -0.2929  0.0923
  645BOLB   C1C15473  17.148  26.045   6.576 -0.1288  0.1288  0.2043
  645BOLB   C2C15474  16.753  25.776   6.584  0.2150 -0.0859  0.0534
  645BOLB   C3C15475  16.315  25.596   6.679  0.1870 -0.1015 -0.1063
  645BOLB   C4C15476  15.909  25.365   6.657  0.1835  0.5048  0.0696
  645BOLB   C1D15477  17.214  26.062   7.172  0.1546 -0.2130 -0.0644
  645BOLB   C2D15478  16.846  26.029   7.444 -0.1362 -0.2358  0.0500
  645BOLB   C3D15479  16.562  26.089   7.718 -0.4887 -0.0256 -0.2129
  645BOLB   C4D15480  16.416  26.343   8.025  0.1798  0.0742  0.1899
  646BOLB   NC115481  11.690  16.713  13.447  0.1511 -0.0941 -0.0774
  646BOLB   PO115482  11.882  16.865  13.835 -0.1012 -0.1134 -0.1882
  646BOLB   GL115483  12.249  17.035  14.027 -0.0567  0.3801  0.0092
  646BOLB   GL215484  12.459  17.358  13.839  0.1507  0.2697  0.1654
  646BOLB   C1A15485  12.599  17.330  14.327 -0.1147  0.3900 -0.1685
  646BOLB   C2A15486  12.861  17.127  14.650  0.0452 -0.0231  0.1267
  646BOLB   C3A15487  13.006  16.937  14.971 -0.1277  0.0776  0.1353
  646BOLB   C4A15488  13.294  16.845  15.171  0.2849  0.1116 -0.3399
  646BOLB   C1B15489  12.796  17.080  13.942  0.1754  0.2768  0.0384
  646BOLB   C2B15490  12.872  16.824  14.250 -0.1860  0.0384  0.0045
  646BOLB   C3B15491  13.124  16.649  14.551 -0.0298 -0.1549  0.1387
  646BOLB   C4B15492  13.520  16.442  14.543 -0.0562  0.2124 -0.1300
  646BOLB   NC215493  15.216  15.292  16.288  0.0104 -0.2331  0.3145
  646BOLB   PO215494  14.891  15.216  16.429  0.0741  0.1753 -0.1246
  646BOLB   GL315495  14.431  15.201  16.397  0.1230  0.0420 -0.1625
  646BOLB   GL415496  14.322  14.870  16.344  0.0951 -0.0501 -0.0638
  646BOLB   C1C15497  14.319  15.644  16.154 -0.0943  0.0093  0.2301
  646BOLB   C2C15498  14.011  16.024  15.933 -0.0177 -0.0437  0.1150
  646BOLB   C3C15499  13.754  16.333  15.794  0.0082  0.1368  0.0630
  646BOLB   C4C15500  13.380  16.565  15.577  0.1434  0.2548 -0.1933
  646BOLB   C1D15501  14.005  14.868  16.163  0.0469  0.2473  0.1046
  646BOLB   C2D15502  13.725  15.087  16.375  0.0782 -0.0327 -0.0000
  646BOLB   C3D15503  13.408  15.380  16.383 -0.2895 -0.2790  0.1464
  646BOLB   C4D15504  13.140  15.635  16.121 -0.4233  0.3213  0.1107
  647BOLB   NC115505   3.327  23.439   3.605 -0.0715 -0.1097  0.3644
  647BOLB   PO115506   2.949  23.296   3.802 -0.1443 -0.0040 -0.0590
  647BOLB   GL115507   2.822  23.282   3.319  0.0038 -0.1368 -0.3444
  647BOLB   GL215508   3.110  23.337   3.042  0.3611  0.0508 -0.1043
  647BOLB   C1A15509   2.614  23.286   2.962  0.1156  0.1855  0.0191
  647BOLB   C2A15510   2.408  23.288   2.497  0.2201  0.2909 -0.2151
  647BOLB   C3A15511   2.142  23.270   2.209  0.1887  0.2186  0.5283
  647BOLB   C4A15512   1.898  23.338   1.871  0.2040 -0.1017 -0.4569
  647BOLB   C1B15513   2.992  23.545   2.613  0.0203  0.1689  0.0708
  647BOLB   C2B15514   2.717  23.619   2.197 -0.3307  0.0150  0.0168
  647BOLB   C3B15515   2.391  23.731   1.895 -0.1311 -0.0145  0.1773
  647BOLB   C4B15516   2.050  23.727   1.538  0.2348  0.2493  0.0715
  647BOLB   NC215517   0.707  22.777  -0.030 -0.2009 -0.1287 -0.0604
  647BOLB   PO215518   0.550  22.467   0.284 -0.0236  0.2386  0.0411
  647BOLB   GL315519   0.785  22.421   0.507 -0.0765 -0.0166  0.2083
  647BOLB   GL415520   0.568  22.275   0.730  0.3247  0.1523 -0.0219
  647BOLB   C1C15521   0.968  22.512   0.858 -0.3029 -0.1339  0.0929
  647BOLB   C2C15522   1.093  22.827   1.178  0.1686 -0.1644  0.2557
  647BOLB   C3C15523   1.384  23.053   1.458 -0.1694  0.0659  0.0200
  647BOLB   C4C15524   1.563  23.350   1.609 -0.0703  0.2143 -0.1711
  647BOLB   C1D15525   0.744  22.159   1.091  0.2549  0.2867  0.1287
  647BOLB   C2D15526   0.894  21.825   1.443  0.0929 -0.0293 -0.5149
  647BOLB   C3D15527   1.131  21.575   1.812 -0.1086  0.1835  0.3459
  647BOLB   C4D15528   1.137  21.291   2.190 -0.2065 -0.1883 -0.1768
  648BOLB   NC115529  12.219  24.213   5.170  0.3838  0.5179 -0.4183
  648BOLB   PO115530  12.472  23.975   5.204 -0.1387 -0.1334 -0.1066
  648BOLB   GL115531  12.966  24.011   5.047  0.0741 -0.1396 -0.0822
  648BOLB   GL215532  13.159  23.635   4.839 -0.1413 -0.2739  0.2400
  648BOLB   C1A15533  13.442  24.100   4.977 -0.1079  0.3460  0.5858
  648BOLB   C2A15534  13.713  24.359   4.734 -0.3927  0.2155 -0.0313
  648BOLB   C3A15535  14.146  24.471   4.741  0.2366  0.1903 -0.0139
  648BOLB   C4A15536  14.563  24.662   4.892 -0.1002  0.1210 -0.3218
  648BOLB   C1B15537  13.332  23.678   4.454  0.1360  0.3138  0.3030
  648BOLB   C2B15538  13.616  23.988   4.179  0.2379 -0.2087  0.1088
  648BOLB   C3B15539  13.685  24.426   4.009 -0.1214  0.3620 -0.0042
  648BOLB   C4B15540  13.753  24.806   3.789 -0.3254  0.1416 -0.0454
  648BOLB   NC215541  16.701  25.544   4.341  0.0428 -0.0671  0.1460
  648BOLB   PO215542  16.589  25.492   3.968 -0.3028 -0.1988  0.1287
  648BOLB   GL315543  16.274  25.366   4.296 -0.1373  0.0180 -0.3608
  648BOLB   GL415544  16.401  25.182   4.523 -0.1918 -0.1870  0.2639
  648BOLB   C1C15545  15.936  25.282   4.376  0.1272 -0.4647 -0.0912
  648BOLB   C2C15546  15.564  25.147   4.514 -0.0843 -0.4367 -0.2276
  648BOLB   C3C15547  15.187  25.281   4.741 -0.1253 -0.1518 -0.1126
  648BOLB   C4C15548  14.970  24.901   4.867 -0.1687  0.3606  0.1720
  648BOLB   C1D15549  16.295  25.028   4.881  0.3945 -0.2529 -0.0872
  648BOLB   C2D15550  15.919  25.061   4.889 -0.0992  0.0690  0.1197
  648BOLB   C3D15551  15.511  24.791   4.971  0.2370  0.1403  0.0106
  648BOLB   C4D15552  15.305  24.385   4.883  0.2995 -0.2561 -0.0721
  649BOLB   NC115553  15.122  21.446   8.738  0.1010  0.1751  0.1119
  649BOLB   PO115554  15.407  21.194   8.481 -0.2461  0.0526 -0.0706
  649BOLB   GL115555  15.793  21.341   8.303 -0.0486  0.1631 -0.1894
  649BOLB   GL215556  16.006  21.087   8.117 -0.2534  0.0882 -0.0431
  649BOLB   C1A15557  16.106  21.567   8.459 -0.0719  0.1954  0.3980
  649BOLB   C2A15558  16.532  21.441   8.651 -0.1906 -0.1261  0.0526
  649BOLB   C3A15559  16.841  21.313   9.079  0.0883  0.0599  0.0102
  649BOLB   C4A15560  17.137  21.015   9.134 -0.0735 -0.0772 -0.2890
  649BOLB   C1B15561  16.322  20.699   8.093 -0.1885 -0.1643 -0.0587
  649BOLB   C2B15562  16.682  20.595   8.195 -0.0541 -0.0125  0.0118
  649BOLB   C3B15563  16.989  20.161   8.134 -0.2346  0.1891  0.0491
  649BOLB   C4B15564  17.265  19.898   7.966  0.0152 -0.1227 -0.3330
  649BOLB   NC215565  19.499  20.385   9.608  0.0794  0.2473  0.0086
  649BOLB   PO215566  19.215  20.132   9.747  0.0844  0.2646  0.2536
  649BOLB   GL315567  19.006  20.543   9.657 -0.0390 -0.0491 -0.0657
  649BOLB   GL415568  19.089  20.873   9.820 -0.0195 -0.2784 -0.0933
  649BOLB   C1C15569  18.590  20.521   9.498  0.1786  0.0723  0.0016
  649BOLB   C2C15570  18.114  20.506   9.199  0.0532  0.3389 -0.2496
  649BOLB   C3C15571  17.785  20.589   8.822  0.1033 -0.0365 -0.1649
  649BOLB   C4C15572  17.412  20.793   8.834  0.1096  0.1079 -0.0223
  649BOLB   C1D15573  18.729  21.171   9.659  0.0821 -0.0195 -0.3361
  649BOLB   C2D15574  18.266  21.181   9.587  0.2765  0.4089 -0.1372
  649BOLB   C3D15575  17.903  20.919   9.663  0.0283  0.2410 -0.0867
  649BOLB   C4D15576  17.901  20.524   9.631  0.1243 -0.0207 -0.6403
  650BOLB   NC115577   8.110  19.304   2.663  0.1151  0.1378 -0.0715
  650BOLB   PO115578   7.788  18.948   2.563  0.0608 -0.5453  0.1892
  650BOLB   GL115579   7.860  18.886   2.003  0.2220 -0.3545 -0.0298
  650BOLB   GL215580   7.747  18.668   1.876  0.1078  0.0373  0.0350
  650BOLB   C1A15581   7.846  19.116   1.687  0.1033 -0.2735  0.1877
  650BOLB   C2A15582   7.866  19.289   1.182  0.1923  0.2471 -0.2164
  650BOLB   C3A15583   7.830  19.216   0.782  0.0893 -0.3528 -0.1883
  650BOLB   C4A15584   7.918  19.240   0.444 -0.1498 -0.0739  0.1137
  650BOLB   C1B15585   7.978  18.580   1.558  0.0843  0.0761 -0.0741
  650BOLB   C2B15586   8.198  18.444   1.206  0.1151 -0.4746  0.1896
  650BOLB   C3B15587   8.567  18.216   1.029 -0.1449  0.1037 -0.2512
  650BOLB   C4B15588   8.572  18.107   0.522  0.0576 -0.1140 -0.0919
  650BOLB   NC215589   8.238  18.159  -2.123  0.1838  0.1852  0.1689
  650BOLB   PO215590   8.113  18.243  -1.709 -0.0658  0.2548  0.0846
  650BOLB   GL315591   8.243  18.587  -1.393 -0.3100 -0.0124  0.1504
  650BOLB   GL415592   8.659  18.585  -1.392 -0.2438  0.0275  0.0886
  650BOLB   C1C15593   8.243  18.656  -1.053  0.4807 -0.2326  0.3803
  650BOLB   C2C15594   8.299  18.851  -0.583 -0.1394 -0.0385  0.0193
  650BOLB   C3C15595   8.200  19.102  -0.256 -0.0833 -0.1984  0.0536
  650BOLB   C4C15596   8.021  19.120   0.103 -0.0921 -0.0563  0.2059
  650BOLB   C1D15597   8.584  18.964  -1.070 -0.3021 -0.0332 -0.1311
  650BOLB   C2D15598   8.308  19.325  -0.810  0.1705 -0.1536  0.2782
  650BOLB   C3D15599   7.916  19.506  -0.760  0.0514  0.1222 -0.3173
  650BOLB   C4D15600   7.706  19.780  -0.512 -0.1007 -0.1122  0.2536
  651BOLB   NC115601   5.874  18.025  17.349 -0.1085  0.0836 -0.2616
  651BOLB   PO115602   5.753  17.884  17.781 -0.1120 -0.1569  0.0832
  651BOLB   GL115603   5.780  17.987  18.295  0.0327 -0.3450 -0.0856
  651BOLB   GL215604   6.014  18.026  18.497 -0.3349 -0.2496  0.1710
  651BOLB   C1A15605   5.559  17.991  18.670 -0.2212  0.2239 -0.1404
  651BOLB   C2A15606   5.739  18.049  19.100  0.1355 -0.1231  0.2724
  651BOLB   C3A15607   5.841  17.877  19.432 -0.3215 -0.1415  0.1022
  651BOLB   C4A15608   6.091  17.630  19.751  0.1161  0.0858 -0.0272
  651BOLB   C1B15609   6.022  17.732  18.810  0.2365 -0.1785 -0.0313
  651BOLB   C2B15610   5.893  17.390  19.045 -0.3963 -0.0953 -0.0947
  651BOLB   C3B15611   5.884  17.057  18.854  0.1693  0.2280  0.0794
  651BOLB   C4B15612   5.682  16.656  18.832 -0.0547 -0.3097  0.2247
  651BOLB   NC215613   4.606  17.008  21.967 -0.0087 -0.3006  0.2216
  651BOLB   PO215614   4.874  17.119  21.590  0.0800  0.1664 -0.0901
  651BOLB   GL315615   4.904  17.222  21.159  0.3387  0.0556  0.0666
  651BOLB   GL415616   5.094  16.884  21.205 -0.0936 -0.1141 -0.0366
  651BOLB   C1C15617   5.060  17.165  20.737  0.0313 -0.0927 -0.1181
  651BOLB   C2C15618   5.424  16.974  20.502  0.2499  0.0552 -0.1496
  651BOLB   C3C15619   5.743  17.198  20.360 -0.1277 -0.0903  0.2409
  651BOLB   C4C15620   6.085  17.463  20.095 -0.0108  0.2134 -0.0716
  651BOLB   C1D15621   5.499  17.035  20.989 -0.0795  0.1713  0.2540
  651BOLB   C2D15622   5.891  17.130  20.910 -0.1258  0.2924  0.1405
  651BOLB   C3D15623   6.222  17.193  20.545 -0.1502 -0.0389  0.0618
  651BOLB   C4D15624   6.518  17.494  20.380  0.1280 -0.0537 -0.3160
  652BOLB   NC115625  12.022  18.458   4.394  0.2420  0.2004 -0.0236
  652BOLB   PO115626  12.322  18.444   4.154 -0.1108  0.0054 -0.1485
  652BOLB   GL115627  12.390  18.351   3.745 -0.3909  0.0560 -0.1267
  652BOLB   GL215628  12.402  17.970   3.681 -0.3066  0.1645  0.1324
  652BOLB   C1A15629  12.438  18.308   3.249 -0.2405 -0.0528  0.0962
  652BOLB   C2A15630  12.618  18.115   2.858 -0.1638  0.1640 -0.2842
  652BOLB   C3A15631  12.739  17.757   2.698 -0.1124  0.0789  0.0548
  652BOLB   C4A15632  12.843  17.446   2.407  0.2654  0.1587 -0.1904
  652BOLB   C1B15633  12.460  17.556   3.533 -0.2573  0.1732  0.0028
  652BOLB   C2B15634  12.496  17.239   3.353 -0.3118  0.0415  0.1455
  652BOLB   C3B15635  12.418  16.945   3.073  0.0586 -0.1360 -0.3622
  652BOLB   C4B15636  12.303  16.461   3.183  0.1955  0.1232  0.1034
  652BOLB   NC215637  13.535  15.471   0.704 -0.0951  0.1929  0.1669
  652BOLB   PO215638  13.293  15.909   0.738  0.1093 -0.0891 -0.1026
  652BOLB   GL315639  13.033  16.084   1.062  0.0972  0.1020 -0.0976
  652BOLB   GL415640  12.751  15.956   0.932  0.1991 -0.0651  0.1291
  652BOLB   C1C15641  13.027  16.377   1.473  0.0204  0.2240 -0.0002
  652BOLB   C2C15642  12.713  16.588   1.648 -0.0879  0.0542 -0.2422
  652BOLB   C3C15643  12.894  16.979   1.790 -0.2410 -0.2407  0.0766
  652BOLB   C4C15644  12.904  17.102   2.158 -0.3877 -0.0692  0.1183
  652BOLB   C1D15645  12.512  15.826   1.222  0.1008  0.1516  0.4272
  652BOLB   C2D15646  12.444  16.019   1.585 -0.2972 -0.0947  0.2090
  652BOLB   C3D15647  12.193  16.124   1.875 -0.0402  0.1533  0.0642
  652BOLB   C4D15648  11.897  16.420   1.904 -0.1842 -0.2524  0.0318
  653BOLB   NC115649   6.039  21.951  18.053  0.0331  0.0657  0.0800
  653BOLB   PO115650   5.953  21.870  18.543  0.1442 -0.1255 -0.2978
  653BOLB   GL115651   6.066  21.740  18.942  0.3486  0.0981 -0.0128
  653BOLB   GL215652   5.760  21.780  19.129 -0.0083 -0.3055  0.0346
  653BOLB   C1A15653   6.384  21.781  19.409 -0.1196  0.2374  0.3765
  653BOLB   C2A15654   6.474  21.532  19.771 -0.0498 -0.0955  0.1789
  653BOLB   C3A15655   6.431  21.780  20.157 -0.2080 -0.0761 -0.0631
  653BOLB   C4A15656   6.660  21.982  20.483 -0.3258 -0.1342  0.0479
  653BOLB   C1B15657   5.844  21.786  19.594 -0.0529  0.3301  0.0171
  653BOLB   C2B15658   5.958  21.551  19.939  0.0971  0.2566  0.0923
  653BOLB   C3B15659   5.886  21.184  20.047  0.0917  0.1353  0.0917
  653BOLB   C4B15660   5.670  20.733  20.182  0.0265  0.0258 -0.0175
  653BOLB   NC215661   6.652  23.699  22.253  0.1595  0.0488 -0.2512
  653BOLB   PO215662   6.673  23.238  22.433  0.0523 -0.0581  0.2375
  653BOLB   GL315663   6.785  23.084  22.175  0.0072 -0.0047  0.2177
  653BOLB   GL415664   7.074  23.117  22.040 -0.0934 -0.1929 -0.0150
  653BOLB   C1C15665   6.711  22.866  21.779  0.1472 -0.0675 -0.0269
  653BOLB   C2C15666   6.501  22.697  21.366 -0.4452  0.0939  0.2403
  653BOLB   C3C15667   6.330  22.306  21.181  0.0695 -0.5998  0.0245
  653BOLB   C4C15668   6.538  21.999  20.910  0.1340  0.0463  0.2032
  653BOLB   C1D15669   7.037  23.191  21.613 -0.2128 -0.0371  0.1093
  653BOLB   C2D15670   6.873  23.350  21.218  0.3472  0.0464  0.0020
  653BOLB   C3D15671   6.829  23.243  20.785  0.0944  0.0879  0.0024
  653BOLB   C4D15672   7.076  23.080  20.491  0.0866  0.1964  0.4346
  654BOLB   NC115673  14.717  21.330  11.181  0.1202 -0.1767  0.3537
  654BOLB   PO115674  14.886  20.980  11.047 -0.0662 -0.0969  0.2043
  654BOLB   GL115675  15.178  21.047  11.371  0.0958  0.2663 -0.2511
  654BOLB   GL215676  15.080  21.270  11.529  0.0879 -0.2008  0.1462
  654BOLB   C1A15677  15.553  20.856  11.516  0.5633 -0.0373 -0.0573
  654BOLB   C2A15678  15.905  20.617  11.492 -0.2080  0.0703 -0.0877
  654BOLB   C3A15679  16.338  20.487  11.587 -0.0257 -0.2412 -0.0645
  654BOLB   C4A15680  16.636  20.057  11.760  0.2792  0.2067  0.1001
  654BOLB   C1B15681  15.522  21.396  11.306  0.1561 -0.1728 -0.0773
  654BOLB   C2B15682  15.993  21.476  11.399 -0.1484 -0.2939 -0.5453
  654BOLB   C3B15683  16.348  21.814  11.283 -0.1997  0.0860 -0.1164
  654BOLB   C4B15684  16.304  21.890  10.840 -0.6165 -0.1282 -0.1161
  654BOLB   NC215685  18.998  19.063  10.684  0.0115 -0.0392  0.2242
  654BOLB   PO215686  18.738  19.063  11.016 -0.0826 -0.0215 -0.2969
  654BOLB   GL315687  18.318  19.142  11.087  0.0409 -0.4321  0.2053
  654BOLB   GL415688  18.053  18.830  10.966  0.4309 -0.2979 -0.3610
  654BOLB   C1C15689  17.988  19.475  11.211 -0.2003  0.1105  0.2122
  654BOLB   C2C15690  17.633  19.539  11.196 -0.0580 -0.2292  0.0263
  654BOLB   C3C15691  17.328  19.588  11.452 -0.0221  0.0540 -0.1618
  654BOLB   C4C15692  17.081  19.817  11.749 -0.1390  0.1174 -0.1892
  654BOLB   C1D15693  17.861  19.069  10.698  0.1506 -0.0835  0.0230
  654BOLB   C2D15694  17.574  19.427  10.684 -0.0697 -0.0634  0.0862
  654BOLB   C3D15695  17.207  19.633  10.463  0.0258  0.1303  0.2490
  654BOLB   C4D15696  16.812  19.486  10.290  0.0113 -0.1255  0.3292
  655BOLB   NC115697  13.319  24.672   7.458  0.1934 -0.1003  0.3342
  655BOLB   PO115698  13.123  24.751   7.057 -0.0726  0.1001  0.0192
  655BOLB   GL115699  13.565  24.968   7.078  0.1069 -0.2059 -0.0495
  655BOLB   GL215700  13.611  25.273   6.891  0.0392  0.0415  0.0076
  655BOLB   C1A15701  14.016  25.089   7.087  0.0350  0.0713  0.1542
  655BOLB   C2A15702  14.428  25.292   6.931 -0.2862 -0.2360  0.3023
  655BOLB   C3A15703  14.724  25.607   6.723 -0.1146 -0.1088  0.4409
  655BOLB   C4A15704  15.027  25.650   6.310 -0.0546  0.3989 -0.1185
  655BOLB   C1B15705  13.923  25.252   6.620 -0.1337 -0.0522 -0.2314
  655BOLB   C2B15706  14.368  25.373   6.422 -0.0172  0.0567 -0.0792
  655BOLB   C3B15707  14.758  25.197   6.158  0.3533 -0.1491 -0.0900
  655BOLB   C4B15708  14.891  25.433   5.857 -0.2010  0.1016  0.1352
  655BOLB   NC215709  17.298  26.118   4.918  0.2099 -0.0831  0.2107
  655BOLB   PO215710  16.923  25.943   4.850 -0.2182  0.2857  0.3199
  655BOLB   GL315711  16.812  25.687   5.263  0.0597  0.0113  0.0392
  655BOLB   GL415712  17.043  25.618   5.594  0.1842 -0.0597  0.1483
  655BOLB   C1C15713  16.361  25.752   5.437 -0.0930 -0.0968  0.0003
  655BOLB   C2C15714  16.039  25.639   5.731  0.0987 -0.1557  0.0558
  655BOLB   C3C15715  15.754  25.870   5.939 -0.1328  0.0789 -0.2456
  655BOLB   C4C15716  15.425  25.729   6.103  0.0215 -0.0067  0.0024
  655BOLB   C1D15717  16.578  25.412   5.674  0.4576  0.1455  0.1161
  655BOLB   C2D15718  16.163  25.160   5.837  0.3199  0.3524 -0.0037
  655BOLB   C3D15719  15.816  24.889   6.000  0.1691  0.3045  0.1099
  655BOLB   C4D15720  15.450  24.766   6.045 -0.2251  0.2420  0.0095
  656BOLB   NC115721  13.027  17.726  12.527 -0.1146 -0.0672 -0.0749
  656BOLB   PO115722  13.332  17.819  12.175  0.1254 -0.1851  0.0420
  656BOLB   GL115723  13.739  18.088  12.197  0.0507  0.0873 -0.0656
  656BOLB   GL215724  13.766  18.068  12.588 -0.1344  0.2172 -0.0179
  656BOLB   C1A15725  14.210  18.257  12.201  0.1644 -0.2600  0.1321
  656BOLB   C2A15726  14.631  18.248  12.279 -0.1556  0.0397 -0.0811
  656BOLB   C3A15727  14.853  17.890  12.350  0.0895 -0.1214  0.0506
  656BOLB   C4A15728  15.189  17.787  12.669  0.0525 -0.1969 -0.1920
  656BOLB   C1B15729  13.935  17.687  12.404 -0.1406  0.2131  0.2167
  656BOLB   C2B15730  14.009  17.229  12.497  0.0641 -0.2760 -0.0375
  656BOLB   C3B15731  14.269  16.942  12.790 -0.1425 -0.0609 -0.2491
  656BOLB   C4B15732  14.656  16.799  13.014  0.0471 -0.0634  0.0003
  656BOLB   NC215733  17.067  15.937  14.307 -0.0441  0.0059 -0.1641
  656BOLB   PO215734  16.582  16.029  14.141  0.0626  0.1045 -0.0671
  656BOLB   GL315735  16.379  16.333  13.808 -0.4513 -0.1707  0.0427
  656BOLB   GL415736  16.578  16.461  13.539 -0.1227 -0.3594  0.0832
  656BOLB   C1C15737  16.070  16.662  13.630  0.0538 -0.1192  0.0262
  656BOLB   C2C15738  15.927  17.057  13.527  0.2866  0.1587  0.0047
  656BOLB   C3C15739  15.801  17.338  13.212  0.0378  0.1239  0.1468
  656BOLB   C4C15740  15.409  17.523  12.948  0.1571 -0.1032  0.0315
  656BOLB   C1D15741  16.487  16.311  13.197 -0.0413 -0.0151  0.0806
  656BOLB   C2D15742  16.190  16.215  12.897 -0.0206  0.1231  0.1204
  656BOLB   C3D15743  16.088  16.457  12.497 -0.1852  0.0334  0.1424
  656BOLB   C4D15744  15.636  16.663  12.431  0.0997 -0.1419 -0.0542
  657BOLB   NC115745  10.275  18.226  17.186 -0.0778 -0.1556 -0.2148
  657BOLB   PO115746  10.656  18.402  16.894  0.1137 -0.0381 -0.3192
  657BOLB   GL115747  10.932  18.176  17.007 -0.2601  0.0829  0.1507
  657BOLB   GL215748  10.719  17.926  17.236  0.3164  0.1349  0.4371
  657BOLB   C1A15749  11.147  17.793  17.110  0.3183  0.0711  0.1248
  657BOLB   C2A15750  11.440  17.690  17.263  0.0472 -0.0822 -0.2032
  657BOLB   C3A15751  11.838  17.550  17.461 -0.3084  0.4330 -0.0021
  657BOLB   C4A15752  12.198  17.411  17.762 -0.1280 -0.1736  0.2054
  657BOLB   C1B15753  10.705  17.589  17.536  0.2105  0.0680 -0.3648
  657BOLB   C2B15754  10.690  17.285  17.850 -0.2779  0.0526  0.3939
  657BOLB   C3B15755  10.629  17.061  18.334  0.0673  0.0573  0.0528
  657BOLB   C4B15756  10.754  16.774  18.631  0.0621  0.1570 -0.2492
  657BOLB   NC215757  14.433  16.779  19.184  0.3935  0.1035  0.0306
  657BOLB   PO215758  14.187  17.102  19.388 -0.0317  0.1763  0.0538
  657BOLB   GL315759  13.825  17.045  19.036 -0.0743  0.1935 -0.1477
  657BOLB   GL415760  13.795  17.343  18.852 -0.0787  0.2517  0.0783
  657BOLB   C1C15761  13.512  16.914  18.940 -0.0362  0.1601 -0.3624
  657BOLB   C2C15762  13.086  16.900  18.712  0.1543 -0.1148  0.0642
  657BOLB   C3C15763  12.867  17.019  18.347 -0.1285  0.0209  0.0450
  657BOLB   C4C15764  12.443  17.192  18.116  0.2014 -0.2678  0.0765
  657BOLB   C1D15765  13.431  17.485  19.108  0.3868 -0.0950  0.1332
  657BOLB   C2D15766  13.181  17.888  18.999  0.1405 -0.0209 -0.1621
  657BOLB   C3D15767  12.888  18.140  18.951  0.5170  0.0169 -0.1178
  657BOLB   C4D15768  12.578  18.467  18.924 -0.1453 -0.1206 -0.4020
  658BOLB   NC115769   4.109  25.037  17.351  0.1638  0.1796 -0.1461
  658BOLB   PO115770   3.912  24.690  17.555  0.1029  0.2108  0.0607
  658BOLB   GL115771   3.731  24.713  17.945  0.0592 -0.2805 -0.0120
  658BOLB   GL215772   3.415  24.889  17.895  0.3131  0.1326  0.1144
  658BOLB   C1A15773   3.803  24.760  18.396 -0.1381 -0.0631 -0.3036
  658BOLB   C2A15774   3.630  24.899  18.905 -0.1276  0.1788 -0.0580
  658BOLB   C3A15775   3.620  24.995  19.358  0.2074 -0.1628 -0.2699
  658BOLB   C4A15776   3.850  24.803  19.654  0.0496  0.1936  0.0598
  658BOLB   C1B15777   3.109  24.796  18.150  0.0932 -0.2598 -0.0694
  658BOLB   C2B15778   3.053  24.912  18.665  0.6165 -0.0249 -0.2111
  658BOLB   C3B15779   3.024  25.097  19.030  0.1246  0.1977 -0.2264
  658BOLB   C4B15780   2.840  25.540  19.275  0.1309  0.0327  0.1085
  658BOLB   NC215781   4.385  25.883  21.935  0.2175  0.2016 -0.1238
  658BOLB   PO215782   4.044  25.577  21.894 -0.1662  0.0135  0.1869
  658BOLB   GL315783   4.185  25.313  21.522 -0.1046  0.4671  0.0242
  658BOLB   GL415784   4.024  25.169  21.161  0.0668 -0.0773 -0.2080
  658BOLB   C1C15785   4.416  25.443  21.117  0.3322 -0.1582  0.3314
  658BOLB   C2C15786   4.389  25.398  20.616 -0.0563  0.3201 -0.1173
  658BOLB   C3C15787   4.351  25.176  20.266  0.1372  0.1271 -0.0661
  658BOLB   C4C15788   4.012  24.970  19.948 -0.3746  0.1216 -0.1225
  658BOLB   C1D15789   3.709  24.929  20.965  0.1884 -0.1077 -0.3034
  658BOLB   C2D15790   3.517  24.802  20.681  0.0601 -0.0279  0.0976
  658BOLB   C3D15791   3.578  24.687  20.149 -0.1199 -0.1356 -0.1374
  658BOLB   C4D15792   3.486  24.318  19.824 -0.3711  0.0548  0.1685
  659BOLB   NC115793  29.439  24.832   9.888  0.2743 -0.0931 -0.2165
  659BOLB   PO115794  29.895  24.616   9.864  0.1225  0.2042  0.1921
  659BOLB   GL115795  30.201  24.409   9.949 -0.1111 -0.3251 -0.2919
  659BOLB   GL215796  30.367  24.214  10.217  0.3801 -0.0266 -0.0359
  659BOLB   C1A15797  30.641  24.301   9.749  0.2394 -0.1318  0.0127
  659BOLB   C2A15798  30.975  24.561   9.612  0.0004  0.1666 -0.0615
  659BOLB   C3A15799  31.404  24.404   9.514 -0.3925 -0.1370  0.1696
  659BOLB   C4A15800  31.814  24.347   9.632 -0.1367 -0.0809 -0.3976
  659BOLB   C1B15801  30.556  24.215  10.628 -0.1871 -0.0262 -0.1208
  659BOLB   C2B15802  30.956  24.130  10.860 -0.0670 -0.0440  0.2407
  659BOLB   C3B15803  31.421  24.146  10.946 -0.1560  0.1324  0.1072
  659BOLB   C4B15804  31.575  23.714  11.110 -0.0144 -0.1154  0.0448
  659BOLB   NC215805  32.344  26.516   8.482 -0.2101 -0.3058 -0.1462
  659BOLB   PO215806  32.002  26.667   8.865  0.2653 -0.3067 -0.2507
  659BOLB   GL315807  32.039  26.179   8.868  0.0199  0.1605  0.0784
  659BOLB   GL415808  32.148  26.165   9.217  0.2604  0.0607  0.0317
  659BOLB   C1C15809  32.226  25.752   8.855  0.1653 -0.2413  0.1796
  659BOLB   C2C15810  32.207  25.396   9.241  0.1792  0.0138 -0.3185
  659BOLB   C3C15811  32.041  25.133   9.541  0.0694  0.2946 -0.0441
  659BOLB   C4C15812  32.033  24.691   9.539 -0.0055  0.0076 -0.0441
  659BOLB   C1D15813  32.513  26.025   9.256 -0.3577  0.1910  0.0306
  659BOLB   C2D15814  32.672  25.682   9.447 -0.1092 -0.1495 -0.1675
  659BOLB   C3D15815  32.993  25.336   9.245  0.0791  0.0493  0.1113
  659BOLB   C4D15816  33.136  24.887   9.383 -0.0553  0.2048  0.1644
  660BOLB   NC115817   3.595  16.334  20.980 -0.0415 -0.0078 -0.0466
  660BOLB   PO115818   3.136  16.221  21.170 -0.1098  0.0021  0.1601
  660BOLB   GL115819   3.144  16.526  20.832 -0.2333  0.3371  0.3382
  660BOLB   GL215820   3.108  16.824  20.767  0.0781  0.0661  0.0904
  660BOLB   C1A15821   3.351  16.558  20.419 -0.1523 -0.0511  0.2729
  660BOLB   C2A15822   3.540  16.416  19.968  0.3601  0.3294  0.0057
  660BOLB   C3A15823   3.717  16.417  19.583 -0.1335  0.3106  0.2020
  660BOLB   C4A15824   3.930  16.854  19.370  0.1185  0.0641 -0.1162
  660BOLB   C1B15825   2.960  17.189  20.542  0.0668 -0.3825 -0.1789
  660BOLB   C2B15826   2.817  17.222  20.039  0.2058 -0.0334  0.0769
  660BOLB   C3B15827   2.725  17.344  19.520  0.1336  0.2458 -0.2318
  660BOLB   C4B15828   2.444  17.344  19.164  0.2263  0.3261  0.1993
  660BOLB   NC215829   3.576  18.263  17.569  0.1856  0.0659  0.2462
  660BOLB   PO215830   3.637  17.857  17.346  0.1228 -0.1684  0.3329
  660BOLB   GL315831   3.756  17.495  17.530  0.1056 -0.0781 -0.1020
  660BOLB   GL415832   3.536  17.322  17.584  0.1508 -0.3651 -0.1790
  660BOLB   C1C15833   3.892  17.406  17.891  0.2690 -0.1527 -0.1514
  660BOLB   C2C15834   4.064  17.062  18.210 -0.2611  0.0264 -0.1485
  660BOLB   C3C15835   4.347  16.883  18.562 -0.0147 -0.1702  0.0803
  660BOLB   C4C15836   4.219  16.906  18.958  0.2821 -0.2279 -0.2399
  660BOLB   C1D15837   3.518  17.095  17.980  0.1937  0.4937  0.0089
  660BOLB   C2D15838   3.595  17.090  18.276 -0.0616 -0.0950  0.0963
  660BOLB   C3D15839   3.803  16.884  18.560  0.0097  0.2233 -0.0933
  660BOLB   C4D15840   3.790  16.683  18.895 -0.1958 -0.3617  0.0450
  661BOLB   NC115841   3.763   7.649   6.702 -0.0803 -0.2093  0.0953
  661BOLB   PO115842   4.009   7.994   6.498  0.2374 -0.1131  0.0024
  661BOLB   GL115843   4.046   8.456   6.395 -0.0235  0.0409  0.0422
  661BOLB   GL215844   4.350   8.584   6.476  0.3869 -0.0603  0.1320
  661BOLB   C1A15845   3.826   8.854   6.304  0.0868 -0.1227  0.1184
  661BOLB   C2A15846   3.723   9.218   6.485 -0.1846 -0.0347  0.1391
  661BOLB   C3A15847   3.484   9.475   6.686 -0.0847  0.0579  0.1162
  661BOLB   C4A15848   3.282   9.462   7.104  0.1797  0.1762 -0.3215
  661BOLB   C1B15849   4.476   8.918   6.803  0.0831 -0.1695  0.1026
  661BOLB   C2B15850   4.369   9.223   7.062  0.2508 -0.0545 -0.0446
  661BOLB   C3B15851   4.293   9.635   7.148 -0.1243  0.0366 -0.1512
  661BOLB   C4B15852   4.299  10.107   6.924 -0.0197 -0.0106 -0.0663
  661BOLB   NC215853   4.343   7.600   8.447  0.0254  0.0831 -0.0727
  661BOLB   PO215854   4.382   7.748   8.125  0.3113 -0.0913 -0.3061
  661BOLB   GL315855   4.173   8.109   8.368  0.2600  0.2552  0.1247
  661BOLB   GL415856   4.263   8.291   8.678  0.0024 -0.0675  0.2733
  661BOLB   C1C15857   3.808   8.267   8.245 -0.2198  0.2128 -0.0991
  661BOLB   C2C15858   3.554   8.553   8.053  0.0428 -0.2469 -0.2538
  661BOLB   C3C15859   3.332   8.895   7.730  0.1881  0.2638  0.5545
  661BOLB   C4C15860   3.127   9.193   7.432  0.0572  0.0642 -0.3212
  661BOLB   C1D15861   4.203   8.410   9.129 -0.0030 -0.1060  0.1469
  661BOLB   C2D15862   4.297   8.279   9.637 -0.2730  0.2054  0.1107
  661BOLB   C3D15863   4.371   8.286  10.066  0.0384 -0.2219  0.0098
  661BOLB   C4D15864   4.437   8.572  10.437  0.2517 -0.2353 -0.0758
  662BOLB   NC115865   3.832  23.895  17.715  0.1595  0.0369 -0.1596
  662BOLB   PO115866   4.009  24.262  17.881 -0.1362  0.2438  0.0747
  662BOLB   GL115867   3.885  24.309  18.432  0.1755 -0.0195 -0.1213
  662BOLB   GL215868   4.134  24.122  18.651 -0.2609 -0.1064  0.0322
  662BOLB   C1A15869   3.726  24.386  18.751  0.1670  0.0738 -0.1307
  662BOLB   C2A15870   3.473  24.076  19.005  0.0276 -0.0695 -0.0694
  662BOLB   C3A15871   3.244  24.181  19.303  0.0746  0.0676 -0.1920
  662BOLB   C4A15872   2.954  24.318  19.594  0.1232 -0.4346  0.2497
  662BOLB   C1B15873   4.012  24.139  19.071  0.3885 -0.2914 -0.1706
  662BOLB   C2B15874   3.829  24.110  19.502  0.1627 -0.0106  0.1628
  662BOLB   C3B15875   3.770  23.854  19.839  0.0800  0.1460 -0.0736
  662BOLB   C4B15876   3.555  23.841  20.222  0.2588  0.2664 -0.1108
  662BOLB   NC215877   3.061  26.627  21.131  0.0197  0.0314 -0.0874
  662BOLB   PO215878   2.732  26.486  20.853  0.2948 -0.0568  0.3544
  662BOLB   GL315879   2.980  26.213  20.542 -0.3613 -0.0361  0.1155
  662BOLB   GL415880   3.344  26.240  20.413 -0.0001 -0.1523 -0.0438
  662BOLB   C1C15881   2.918  25.956  20.255  0.0183 -0.0164  0.1301
  662BOLB   C2C15882   2.972  25.462  20.250  0.0202 -0.1257  0.0486
  662BOLB   C3C15883   2.882  25.052  20.054  0.0638 -0.0776  0.0980
  662BOLB   C4C15884   2.805  24.672  19.804  0.1296  0.0632  0.1924
  662BOLB   C1D15885   3.595  26.115  20.098  0.2801  0.1554  0.2039
  662BOLB   C2D15886   3.561  25.980  19.661  0.1118 -0.0352 -0.2208
  662BOLB   C3D15887   3.941  25.863  19.420 -0.0400 -0.0629 -0.2797
  662BOLB   C4D15888   3.968  25.719  19.001  0.2975 -0.1206  0.0255
  663BOLB   NC115889   4.094  23.985   3.740  0.1531 -0.0184  0.3983
  663BOLB   PO115890   4.470  24.289   3.566 -0.2036  0.0488  0.1343
  663BOLB   GL115891   4.377  24.482   3.251 -0.3148  0.3332  0.1203
  663BOLB   GL215892   4.489  24.804   3.399  0.2956  0.1330 -0.2991
  663BOLB   C1A15893   4.101  24.653   2.944  0.3584 -0.2402  0.1159
  663BOLB   C2A15894   4.197  24.947   2.702  0.2687  0.0375 -0.1048
  663BOLB   C3A15895   4.033  25.076   2.313  0.1350 -0.0412 -0.1575
  663BOLB   C4A15896   3.934  25.436   2.041 -0.0126 -0.0607  0.1926
  663BOLB   C1B15897   4.468  25.106   3.091  0.1683 -0.0191  0.2706
  663BOLB   C2B15898   4.489  25.496   2.782 -0.1337  0.1875  0.3045
  663BOLB   C3B15899   4.771  25.624   2.528  0.0247  0.0592  0.0173
  663BOLB   C4B15900   5.063  25.702   2.256  0.2681 -0.0564  0.0727
  663BOLB   NC215901   4.252  27.731   0.978  0.1376  0.2132  0.3202
  663BOLB   PO215902   3.778  27.803   1.091 -0.3016 -0.5350 -0.2240
  663BOLB   GL315903   3.854  27.482   1.436 -0.0666  0.2339  0.0813
  663BOLB   GL415904   4.135  27.503   1.419 -0.2652 -0.0645  0.1583
  663BOLB   C1C15905   3.746  27.023   1.515 -0.1520 -0.2576  0.1072
  663BOLB   C2C15906   3.968  26.626   1.624 -0.0425  0.1221  0.1565
  663BOLB   C3C15907   3.761  26.152   1.524  0.0331 -0.0694 -0.1543
  663BOLB   C4C15908   3.867  25.781   1.769 -0.1815 -0.0223  0.0745
  663BOLB   C1D15909   4.171  27.187   1.801 -0.1506  0.2198  0.0681
  663BOLB   C2D15910   4.128  26.891   2.086 -0.4032  0.2234 -0.1900
  663BOLB   C3D15911   4.185  27.145   2.574  0.1191  0.5287 -0.0818
  663BOLB   C4D15912   4.467  27.035   2.877  0.1612 -0.3126 -0.1311
  664BOLB   NC115913   9.177  27.451  14.927  0.0204  0.0960 -0.3604
  664BOLB   PO115914   9.582  27.536  14.780  0.1134 -0.1865 -0.1039
  664BOLB   GL115915   9.409  27.833  15.001 -0.1748  0.3014 -0.2649
  664BOLB   GL215916   9.102  27.860  15.258 -0.4510 -0.1757 -0.2206
  664BOLB   C1A15917   9.562  28.253  15.167 -0.0644 -0.0606 -0.1750
  664BOLB   C2A15918   9.654  28.618  15.421 -0.4414  0.3128  0.0431
  664BOLB   C3A15919   9.862  28.931  15.538 -0.1642 -0.1988 -0.2238
  664BOLB   C4A15920   9.882  29.260  15.785 -0.2416  0.1870  0.3799
  664BOLB   C1B15921   9.208  28.301  15.489 -0.0867 -0.0381 -0.3215
  664BOLB   C2B15922   9.134  28.582  15.310 -0.0293  0.1819  0.0080
  664BOLB   C3B15923   9.238  29.058  15.389  0.0714  0.0851 -0.0623
  664BOLB   C4B15924   9.590  29.289  15.407 -0.1280 -0.3437  0.2730
  664BOLB   NC215925  11.551  31.141  16.425  0.0477 -0.1668 -0.0736
  664BOLB   PO215926  11.428  30.671  16.650  0.0327  0.3049 -0.0970
  664BOLB   GL315927  11.393  30.320  16.391  0.1605 -0.3604  0.3023
  664BOLB   GL415928  11.711  30.257  16.236  0.0863 -0.4098 -0.0803
  664BOLB   C1C15929  11.231  29.982  16.194  0.0995  0.1519  0.4371
  664BOLB   C2C15930  10.951  29.776  15.996 -0.2468 -0.1102 -0.3172
  664BOLB   C3C15931  10.649  29.478  15.917 -0.0220 -0.0044  0.1502
  664BOLB   C4C15932  10.166  29.519  15.942  0.2974  0.2020  0.0766
  664BOLB   C1D15933  11.653  29.719  16.100  0.4201  0.1194 -0.1571
  664BOLB   C2D15934  11.185  29.434  16.209 -0.0364  0.1027  0.2875
  664BOLB   C3D15935  10.831  29.284  16.361 -0.1072  0.0715 -0.2155
  664BOLB   C4D15936  10.404  29.175  16.402 -0.2264 -0.2807  0.2221
  665BOLB   NC115937   9.322  26.436   6.072  0.2096  0.0573 -0.2243
  665BOLB   PO115938   9.263  26.804   6.096 -0.1756 -0.2227 -0.1133
  665BOLB   GL115939   9.452  27.200   5.858  0.2758  0.0693 -0.0405
  665BOLB   GL215940   9.283  27.153   5.596  0.0387 -0.1710 -0.1584
  665BOLB   C1A15941   9.611  27.607   5.748 -0.1364  0.0415 -0.2223
  665BOLB   C2A15942   9.799  28.008   5.529  0.3244  0.2183 -0.0015
  665BOLB   C3A15943   9.648  28.252   5.195 -0.4057  0.0527  0.3102
  665BOLB   C4A15944   9.734  28.516   4.898 -0.2160 -0.1675  0.1564
  665BOLB   C1B15945   9.547  27.381   5.270  0.0019 -0.0060 -0.2937
  665BOLB   C2B15946   9.905  27.593   5.206  0.1493 -0.2642  0.0644
  665BOLB   C3B15947  10.057  28.030   5.092 -0.1594 -0.3842 -0.2200
  665BOLB   C4B15948  10.185  28.273   4.697 -0.0154  0.2757 -0.2120
  665BOLB   NC215949  10.748  30.597   4.546 -0.0410 -0.3347 -0.1448
  665BOLB   PO215950  10.950  30.857   4.870 -0.0473 -0.0742  0.1286
  665BOLB   GL315951  10.822  30.544   5.119 -0.0826  0.0990 -0.4733
  665BOLB   GL415952  11.030  30.398   5.251 -0.0303  0.2293 -0.3310
  665BOLB   C1C15953  10.471  30.151   5.018 -0.0745  0.2301 -0.1391
  665BOLB   C2C15954  10.375  29.768   4.963 -0.1681  0.3699 -0.3758
  665BOLB   C3C15955  10.117  29.381   4.857  0.3680 -0.1929  0.0162
  665BOLB   C4C15956   9.847  28.992   4.902  0.2313  0.1686 -0.3371
  665BOLB   C1D15957  10.690  30.251   5.510  0.5401 -0.0435  0.1475
  665BOLB   C2D15958  10.319  29.905   5.567  0.3812  0.3136  0.0248
  665BOLB   C3D15959   9.918  29.616   5.750 -0.0640 -0.0725  0.3798
  665BOLB   C4D15960  10.099  29.194   5.623 -0.1637  0.2693  0.0929
  666BOLB   NC115961   6.701  18.177   2.717  0.2271 -0.0354 -0.1709
  666BOLB   PO115962   6.290  18.081   2.533 -0.1246  0.0892 -0.0117
  666BOLB   GL115963   6.303  17.834   2.140 -0.3629  0.0978 -0.0676
  666BOLB   GL215964   5.881  17.748   1.981 -0.2332  0.0356  0.2458
  666BOLB   C1A15965   6.296  17.545   1.756 -0.1225 -0.1737  0.1750
  666BOLB   C2A15966   6.591  17.352   1.360 -0.0364 -0.2793 -0.1315
  666BOLB   C3A15967   6.963  17.404   1.172  0.1668 -0.0610  0.0386
  666BOLB   C4A15968   7.336  17.455   0.795 -0.1074  0.3948 -0.0986
  666BOLB   C1B15969   5.830  17.414   1.660  0.3068  0.2659 -0.3509
  666BOLB   C2B15970   5.672  17.353   1.162  0.0116  0.2237 -0.0476
  666BOLB   C3B15971   5.408  17.467   0.800 -0.1666 -0.1411  0.2001
  666BOLB   C4B15972   5.119  17.260   0.449  0.0426 -0.0825 -0.0564
  666BOLB   NC215973   7.815  15.436  -0.917  0.0883  0.0239 -0.2964
  666BOLB   PO215974   7.564  15.737  -0.939  0.1375 -0.2033  0.0078
  666BOLB   GL315975   7.702  15.830  -0.547  0.0219  0.2460 -0.3033
  666BOLB   GL415976   7.896  15.724  -0.500  0.0495  0.1591 -0.2445
  666BOLB   C1C15977   7.882  16.188  -0.352 -0.0306 -0.0671 -0.1722
  666BOLB   C2C15978   7.966  16.590   0.034  0.0192  0.0884 -0.1301
  666BOLB   C3C15979   7.912  16.990   0.238  0.3268 -0.4953  0.1748
  666BOLB   C4C15980   7.547  17.248   0.499  0.0694  0.5157  0.0227
  666BOLB   C1D15981   7.863  15.614  -0.078  0.1491 -0.0574 -0.3143
  666BOLB   C2D15982   7.858  16.021   0.161  0.2164 -0.0658 -0.4970
  666BOLB   C3D15983   7.492  16.315   0.383 -0.0088 -0.3141  0.0597
  666BOLB   C4D15984   7.474  16.729   0.336 -0.1272 -0.2718 -0.0845
  667BOLB   NC115985   6.281  28.268  12.563  0.2496  0.0089  0.1668
  667BOLB   PO115986   6.297  28.565  12.985 -0.0934 -0.0269 -0.3676
  667BOLB   GL115987   6.345  29.025  12.877  0.1171 -0.0991 -0.2597
  667BOLB   GL215988   6.627  29.181  12.621  0.0658 -0.1858 -0.3881
  667BOLB   C1A15989   6.271  29.551  12.785  0.1057  0.2330 -0.3404
  667BOLB   C2A15990   6.302  29.920  12.822  0.1417  0.1248  0.3529
  667BOLB   C3A15991   6.099  30.252  12.636 -0.4026 -0.0202 -0.5061
  667BOLB   C4A15992   5.958  30.630  12.633 -0.3019  0.1182  0.1766
  667BOLB   C1B15993   6.704  29.576  12.530 -0.2949  0.2700  0.3636
  667BOLB   C2B15994   6.522  29.927  12.379  0.0507 -0.0365 -0.2770
  667BOLB   C3B15995   6.332  30.253  12.238 -0.0124  0.0061  0.0802
  667BOLB   C4B15996   5.979  30.457  12.042 -0.2066 -0.0666 -0.0640
  667BOLB   NC215997   6.687  33.253  12.999 -0.0315 -0.0032 -0.0521
  667BOLB   PO215998   6.215  33.097  13.216  0.0779 -0.2983  0.1295
  667BOLB   GL315999   6.414  32.750  13.000 -0.1237  0.4962 -0.3208
  667BOLB   GL416000   6.844  32.672  12.956 -0.1856 -0.3855  0.0675
  667BOLB   C1C16001   6.254  32.339  12.941  0.4012  0.0916  0.4651
  667BOLB   C2C16002   5.996  31.863  12.933 -0.0132  0.2569 -0.0873
  667BOLB   C3C16003   5.793  31.415  12.883 -0.0318 -0.0537 -0.0591
  667BOLB   C4C16004   5.762  31.018  12.770 -0.4481 -0.2060 -0.1104
  667BOLB   C1D16005   6.705  32.264  13.160 -0.1040 -0.0178 -0.0960
  667BOLB   C2D16006   6.692  31.889  13.103  0.1710  0.2595 -0.0706
  667BOLB   C3D16007   6.719  31.491  12.978  0.2701  0.0175 -0.0434
  667BOLB   C4D16008   6.629  31.067  12.924 -0.1702  0.3504  0.2071
  668BOLB   NC116009   7.170  25.432   4.025  0.1726 -0.0998 -0.0575
  668BOLB   PO116010   7.277  25.718   4.378 -0.1392  0.0065  0.0042
  668BOLB   GL116011   7.168  26.016   4.060  0.1763 -0.1068  0.0324
  668BOLB   GL216012   7.026  25.940   3.746  0.0022  0.0970 -0.3631
  668BOLB   C1A16013   7.346  26.310   3.836  0.0574  0.4632  0.2701
  668BOLB   C2A16014   7.457  26.701   3.600  0.2008  0.0063 -0.2259
  668BOLB   C3A16015   7.657  26.968   3.347 -0.4528 -0.1867 -0.0859
  668BOLB   C4A16016   7.784  27.098   2.920 -0.2977  0.0389 -0.2119
  668BOLB   C1B16017   7.018  26.217   3.376 -0.0691  0.1320 -0.2687
  668BOLB   C2B16018   6.926  26.408   3.026  0.0133  0.0619 -0.0289
  668BOLB   C3B16019   6.662  26.371   2.628  0.1219 -0.1578 -0.2121
  668BOLB   C4B16020   6.299  26.217   2.363  0.1290 -0.0166  0.0418
  668BOLB   NC216021   9.211  29.380   1.621  0.1321  0.1410  0.3625
  668BOLB   PO216022   9.119  28.936   1.581 -0.0707  0.0089 -0.0554
  668BOLB   GL316023   8.957  28.588   1.806 -0.0525 -0.2343  0.1846
  668BOLB   GL416024   9.161  28.626   2.042  0.1307  0.3386  0.0888
  668BOLB   C1C16025   8.651  28.370   2.030  0.2246  0.4827  0.1034
  668BOLB   C2C16026   8.431  28.068   2.261 -0.2642 -0.2102 -0.4039
  668BOLB   C3C16027   8.412  27.727   2.537  0.0873  0.3393  0.1760
  668BOLB   C4C16028   8.066  27.344   2.607 -0.1120  0.2150 -0.2342
  668BOLB   C1D16029   8.988  28.632   2.441 -0.1120 -0.1189  0.0083
  668BOLB   C2D16030   8.950  28.549   2.808  0.1470  0.3243  0.0739
  668BOLB   C3D16031   8.948  28.285   3.198  0.1459 -0.1219 -0.1832
  668BOLB   C4D16032   9.220  28.336   3.560  0.1473  0.1363 -0.0079
  669BOLB   NC116033   1.534  25.873  14.335 -0.0629 -0.1799 -0.2409
  669BOLB   PO116034   1.532  26.322  14.106  0.1795 -0.0581  0.1034
  669BOLB   GL116035   1.280  26.610  14.045  0.1285 -0.0953 -0.0901
  669BOLB   GL216036   1.375  26.836  13.869 -0.2030 -0.0145 -0.0256
  669BOLB   C1A16037   0.932  26.862  14.156  0.0942  0.1378 -0.1576
  669BOLB   C2A16038   0.741  27.194  14.405  0.1906 -0.1316 -0.1611
  669BOLB   C3A16039   0.571  27.580  14.358 -0.1361 -0.0157 -0.1007
  669BOLB   C4A16040   0.623  28.007  14.550 -0.1533  0.0785  0.1111
  669BOLB   C1B16041   1.351  27.098  14.194 -0.0798  0.0873 -0.0086
  669BOLB   C2B16042   1.205  27.431  14.398 -0.0852  0.2564  0.0423
  669BOLB   C3B16043   1.113  27.800  14.227  0.2811 -0.0749  0.0958
  669BOLB   C4B16044   0.843  28.060  13.975  0.0339 -0.2407  0.0823
  669BOLB   NC216045  -0.654  29.229  15.995 -0.2854 -0.2427 -0.1024
  669BOLB   PO216046  -0.277  29.519  16.027 -0.1736  0.1591  0.1527
  669BOLB   GL316047   0.013  29.214  15.764 -0.1237  0.2343 -0.0939
  669BOLB   GL416048  -0.352  28.994  15.641  0.4746  0.0615 -0.0866
  669BOLB   C1C16049   0.235  28.981  15.570 -0.2383  0.1356 -0.0208
  669BOLB   C2C16050   0.185  28.566  15.474 -0.0086  0.0964  0.0320
  669BOLB   C3C16051   0.297  28.353  15.152 -0.2671  0.0448 -0.0738
  669BOLB   C4C16052   0.437  28.304  14.803 -0.0351 -0.3144  0.0209
  669BOLB   C1D16053  -0.140  29.087  15.204 -0.1239 -0.1574  0.1692
  669BOLB   C2D16054   0.118  28.774  15.032  0.1120  0.1412 -0.3468
  669BOLB   C3D16055   0.552  28.782  15.104  0.1023 -0.3787 -0.0912
  669BOLB   C4D16056   0.831  28.830  15.502  0.1417  0.1424 -0.2874
  670BOLB   NC116057  12.522  20.105   4.038 -0.0637  0.0856  0.1043
  670BOLB   PO116058  12.723  20.053   3.655 -0.1422 -0.2411 -0.1265
  670BOLB   GL116059  12.901  19.949   3.356 -0.1254 -0.0689 -0.2494
  670BOLB   GL216060  13.220  20.026   3.491  0.2836  0.1471 -0.2330
  670BOLB   C1A16061  13.021  19.812   2.822 -0.1012 -0.0674  0.0096
  670BOLB   C2A16062  12.937  19.890   2.378  0.0662 -0.1003 -0.1037
  670BOLB   C3A16063  13.159  19.890   2.030  0.2004  0.0259 -0.0061
  670BOLB   C4A16064  13.285  20.038   1.649 -0.3547  0.0350  0.2325
  670BOLB   C1B16065  13.309  19.673   3.232 -0.3317  0.1179 -0.1948
  670BOLB   C2B16066  13.278  19.381   2.768  0.1814  0.1547  0.1176
  670BOLB   C3B16067  13.280  19.378   2.447  0.1813 -0.1793  0.1284
  670BOLB   C4B16068  13.468  19.503   2.089 -0.2221  0.0062  0.2474
  670BOLB   NC216069  13.829  20.561  -0.630 -0.0544 -0.0087  0.2449
  670BOLB   PO216070  13.397  20.474  -0.621  0.2054 -0.3427  0.1277
  670BOLB   GL316071  13.208  20.578  -0.225  0.2039 -0.1186 -0.2061
  670BOLB   GL416072  13.177  21.008  -0.111 -0.2337 -0.1294  0.0866
  670BOLB   C1C16073  12.947  20.472   0.140 -0.2320 -0.0729 -0.0326
  670BOLB   C2C16074  12.874  20.259   0.498 -0.1695 -0.0232 -0.0114
  670BOLB   C3C16075  13.131  20.121   0.870  0.0235 -0.0680  0.0246
  670BOLB   C4C16076  13.218  19.902   1.246  0.4074  0.3724 -0.1375
  670BOLB   C1D16077  13.219  21.228   0.265 -0.1589  0.0136 -0.0067
  670BOLB   C2D16078  13.032  21.469   0.653 -0.2548  0.0105 -0.2157
  670BOLB   C3D16079  12.659  21.644   0.790  0.3661  0.0708  0.6498
  670BOLB   C4D16080  12.518  21.722   1.201 -0.1315  0.0249 -0.0542
  671BOLB   NC116081   0.799  22.351  15.677  0.2711 -0.0716 -0.2635
  671BOLB   PO116082   0.588  22.443  16.110  0.2238  0.2239 -0.2312
  671BOLB   GL116083   0.398  22.234  16.498  0.2118  0.2257  0.1425
  671BOLB   GL216084   0.122  22.146  16.363  0.0715  0.1123 -0.1940
  671BOLB   C1A16085   0.202  22.447  16.771  0.0554  0.0374  0.0494
  671BOLB   C2A16086  -0.086  22.726  16.945  0.0348  0.3504 -0.0100
  671BOLB   C3A16087  -0.175  23.041  17.234 -0.0119  0.1953  0.0749
  671BOLB   C4A16088  -0.269  23.444  17.516 -0.2299  0.0736  0.0628
  671BOLB   C1B16089  -0.194  22.490  16.454  0.0510  0.0435 -0.0359
  671BOLB   C2B16090  -0.447  22.795  16.673 -0.3695  0.2022 -0.0798
  671BOLB   C3B16091  -0.828  23.063  16.712 -0.0344  0.0453  0.1420
  671BOLB   C4B16092  -0.950  23.409  16.938 -0.2428  0.3524 -0.0790
  671BOLB   NC216093  -2.351  23.133  19.434 -0.0595  0.1597  0.0171
  671BOLB   PO216094  -1.880  23.060  19.309 -0.1932  0.1039 -0.0061
  671BOLB   GL316095  -1.572  22.894  19.038  0.1120 -0.2915 -0.3183
  671BOLB   GL416096  -1.627  22.936  18.673  0.0405 -0.1891 -0.0218
  671BOLB   C1C16097  -1.161  22.862  18.866  0.0371  0.0119 -0.3155
  671BOLB   C2C16098  -0.945  23.159  18.524  0.1336 -0.2350 -0.2232
  671BOLB   C3C16099  -0.764  23.518  18.234  0.3499 -0.0263  0.0338
  671BOLB   C4C16100  -0.566  23.614  17.822 -0.3469 -0.1067 -0.5728
  671BOLB   C1D16101  -1.372  22.963  18.294 -0.0569  0.0603  0.0190
  671BOLB   C2D16102  -1.392  22.772  17.867  0.1911  0.5014  0.0161
  671BOLB   C3D16103  -1.333  22.806  17.476 -0.0943  0.1443 -0.3596
  671BOLB   C4D16104  -1.288  22.976  17.082  0.1002  0.0637 -0.1595
  672BOLB   NC116105   0.549  26.044  13.016 -0.2908 -0.0236  0.0069
  672BOLB   PO116106   0.700  26.379  12.826  0.0400 -0.0557 -0.1421
  672BOLB   GL116107   0.361  26.649  12.902  0.1253  0.1452  0.0894
  672BOLB   GL216108   0.222  26.800  12.631 -0.1140 -0.0039 -0.2387
  672BOLB   C1A16109   0.202  26.964  13.092  0.0828 -0.0249  0.0125
  672BOLB   C2A16110  -0.056  27.171  12.876  0.3727  0.1545 -0.2409
  672BOLB   C3A16111  -0.353  27.447  13.083  0.1052 -0.1641 -0.0965
  672BOLB   C4A16112  -0.628  27.703  13.251  0.0642 -0.0857  0.1339
  672BOLB   C1B16113  -0.229  26.650  12.637  0.3749  0.4058  0.3941
  672BOLB   C2B16114  -0.663  26.738  12.907  0.0376  0.0280  0.0765
  672BOLB   C3B16115  -0.948  27.131  13.072 -0.2328 -0.4530 -0.0933
  672BOLB   C4B16116  -0.842  27.568  12.825 -0.3178 -0.1092 -0.0254
  672BOLB   NC216117  -2.056  29.969  13.408  0.1244 -0.1876  0.1871
  672BOLB   PO216118  -1.773  29.627  13.224  0.3242  0.1449  0.0223
  672BOLB   GL316119  -1.518  29.374  12.961 -0.0228  0.0483  0.1533
  672BOLB   GL416120  -1.490  29.127  13.092 -0.3868  0.0600  0.1518
  672BOLB   C1C16121  -1.218  29.113  12.654 -0.1310 -0.1005  0.2785
  672BOLB   C2C16122  -1.134  28.834  12.930 -0.3297 -0.1581 -0.3433
  672BOLB   C3C16123  -1.201  28.415  13.167 -0.2417  0.0341  0.0314
  672BOLB   C4C16124  -0.961  27.984  13.179  0.3140 -0.0739 -0.2276
  672BOLB   C1D16125  -1.578  28.687  12.908 -0.2615 -0.2663  0.2719
  672BOLB   C2D16126  -1.225  28.463  12.660  0.0016 -0.0964  0.1212
  672BOLB   C3D16127  -0.821  28.393  12.839  0.0195 -0.0051 -0.1705
  672BOLB   C4D16128  -0.589  28.065  12.861  0.0480 -0.2424 -0.0318
  673BOLB   NC116129   2.916  24.297   4.656  0.0727 -0.5076  0.3473
  673BOLB   PO116130   2.719  24.187   4.319 -0.0545  0.0693  0.2734
  673BOLB   GL116131   2.326  24.515   4.082  0.1247  0.0471 -0.1861
  673BOLB   GL216132   2.368  24.431   3.765 -0.1841 -0.0759 -0.3688
  673BOLB   C1A16133   1.997  24.818   3.907 -0.3922  0.0706  0.1605
  673BOLB   C2A16134   1.772  25.227   3.799  0.0442 -0.3170  0.0667
  673BOLB   C3A16135   1.849  25.610   3.582 -0.0058 -0.1597 -0.0073
  673BOLB   C4A16136   2.127  25.510   3.193 -0.1054 -0.4309 -0.2429
  673BOLB   C1B16137   2.151  24.434   3.369 -0.1412  0.3655  0.3099
  673BOLB   C2B16138   2.103  24.703   2.989  0.1409  0.3774  0.1083
  673BOLB   C3B16139   2.029  24.816   2.684  0.0360  0.1491 -0.1886
  673BOLB   C4B16140   2.309  24.864   2.428  0.2560  0.0414 -0.2237
  673BOLB   NC216141   0.256  26.963   1.463  0.2466 -0.1435  0.1350
  673BOLB   PO216142   0.581  26.923   1.744 -0.1523 -0.1597  0.0341
  673BOLB   GL316143   0.974  26.872   2.037 -0.0533  0.1830 -0.0657
  673BOLB   GL416144   0.945  26.545   2.005  0.0660 -0.1027 -0.1109
  673BOLB   C1C16145   1.302  26.511   2.342  0.1721  0.2785 -0.2043
  673BOLB   C2C16146   1.496  26.256   2.563 -0.1139 -0.3194 -0.0421
  673BOLB   C3C16147   1.740  25.848   2.596 -0.5385  0.0785 -0.0522
  673BOLB   C4C16148   2.084  25.815   2.807  0.1602 -0.0397  0.2335
  673BOLB   C1D16149   0.959  26.142   2.212  0.0498  0.2019 -0.1598
  673BOLB   C2D16150   1.234  25.830   2.506  0.0098 -0.0024 -0.1333
  673BOLB   C3D16151   1.319  25.633   2.756 -0.2349  0.2701 -0.1504
  673BOLB   C4D16152   1.262  25.176   2.954 -0.0097 -0.0413 -0.0222
  674BOLB   NC116153  11.956  19.985  16.507  0.2826  0.2192 -0.1302
  674BOLB   PO116154  11.911  20.413  16.658  0.0509  0.3212 -0.2560
  674BOLB   GL116155  12.099  20.580  17.093 -0.1082  0.1575  0.1172
  674BOLB   GL216156  11.855  20.701  17.416  0.2664 -0.1413  0.0566
  674BOLB   C1A16157  12.366  20.564  17.483 -0.0167  0.0732  0.2146
  674BOLB   C2A16158  12.619  20.262  17.679 -0.0060 -0.3703 -0.1210
  674BOLB   C3A16159  12.900  20.085  17.872 -0.3592 -0.2784 -0.3180
  674BOLB   C4A16160  12.766  20.017  18.357 -0.0965  0.1387 -0.0797
  674BOLB   C1B16161  11.898  20.714  17.819 -0.4052  0.0301 -0.1012
  674BOLB   C2B16162  11.678  20.792  18.262 -0.1080 -0.0535  0.2995
  674BOLB   C3B16163  11.586  20.578  18.594  0.3604  0.0667  0.0751
  674BOLB   C4B16164  11.614  20.283  18.991 -0.0760  0.0132  0.1375
  674BOLB   NC216165  14.141  20.546  20.437  0.1501 -0.1055 -0.1326
  674BOLB   PO216166  13.780  20.456  20.433  0.1208 -0.2248 -0.0300
  674BOLB   GL316167  13.379  20.315  20.246 -0.3387 -0.1141 -0.1794
  674BOLB   GL416168  13.235  20.135  20.492  0.1863 -0.2133 -0.1794
  674BOLB   C1C16169  13.318  20.162  19.881 -0.0815  0.1552  0.0197
  674BOLB   C2C16170  13.416  19.988  19.502  0.0516  0.2107 -0.0054
  674BOLB   C3C16171  13.198  19.912  19.090  0.1137 -0.0878  0.0104
  674BOLB   C4C16172  13.089  19.985  18.643  0.0343  0.2183  0.3461
  674BOLB   C1D16173  12.918  20.161  20.228  0.0547 -0.0639  0.0947
  674BOLB   C2D16174  12.633  19.853  20.102  0.8187 -0.2766  0.0519
  674BOLB   C3D16175  12.620  19.578  19.784  0.2104 -0.3612  0.1193
  674BOLB   C4D16176  12.353  19.264  19.525 -0.0980  0.0558 -0.1379
  675BOLB   NC116177   8.033  22.420   3.022 -0.2488 -0.1865  0.0031
  675BOLB   PO116178   8.268  22.851   2.988  0.1435 -0.1570  0.1185
  675BOLB   GL116179   8.381  23.079   2.546  0.1678 -0.0567 -0.1164
  675BOLB   GL216180   8.313  23.431   2.582 -0.1753 -0.0170 -0.0083
  675BOLB   C1A16181   8.204  23.180   2.102  0.0642 -0.0070 -0.1584
  675BOLB   C2A16182   8.328  23.385   1.747  0.0373  0.0159 -0.3138
  675BOLB   C3A16183   8.449  23.669   1.562 -0.1764  0.0564 -0.3005
  675BOLB   C4A16184   8.346  23.977   1.153 -0.2397  0.0117 -0.0122
  675BOLB   C1B16185   8.145  23.656   2.161 -0.5475 -0.3753  0.2058
  675BOLB   C2B16186   8.022  23.851   1.886 -0.1951  0.2532 -0.2049
  675BOLB   C3B16187   7.813  24.074   1.520 -0.0115  0.1862  0.3004
  675BOLB   C4B16188   7.561  23.989   1.128 -0.2561 -0.0118  0.2679
  675BOLB   NC216189   7.631  25.184  -0.692 -0.2981  0.2797  0.2220
  675BOLB   PO216190   8.065  25.443  -0.747 -0.1479  0.1123  0.1819
  675BOLB   GL316191   8.067  25.299  -0.433 -0.0139  0.2808 -0.1755
  675BOLB   GL416192   7.838  25.371  -0.223 -0.0151  0.0378 -0.0704
  675BOLB   C1C16193   8.070  24.849  -0.091 -0.2878 -0.1139  0.4887
  675BOLB   C2C16194   8.016  24.534   0.208  0.1455 -0.2755  0.1145
  675BOLB   C3C16195   7.965  24.407   0.553 -0.2533  0.0920 -0.2803
  675BOLB   C4C16196   8.056  24.157   0.913 -0.0867  0.0721 -0.0873
  675BOLB   C1D16197   7.628  25.332   0.183  0.1140 -0.2667  0.0822
  675BOLB   C2D16198   7.204  25.107   0.380 -0.1875 -0.0701 -0.1798
  675BOLB   C3D16199   7.286  24.711   0.661  0.2431 -0.1426  0.1487
  675BOLB   C4D16200   7.588  24.392   0.851 -0.2071  0.0688  0.1643
  676BOLB   NC116201   5.179  25.485  16.676  0.1072 -0.0859 -0.1246
  676BOLB   PO116202   4.946  25.651  17.085  0.0249  0.0638 -0.0974
  676BOLB   GL116203   4.859  25.826  17.455 -0.1855  0.5937  0.0578
  676BOLB   GL216204   4.587  25.892  17.446  0.0943 -0.0469  0.3624
  676BOLB   C1A16205   4.848  25.883  17.814  0.1525 -0.2260  0.2524
  676BOLB   C2A16206   4.881  26.038  18.199  0.3005 -0.0049 -0.0177
  676BOLB   C3A16207   4.810  26.168  18.626  0.2481 -0.1154  0.1306
  676BOLB   C4A16208   5.127  26.524  18.917 -0.0821  0.3205 -0.1220
  676BOLB   C1B16209   4.128  26.045  17.472  0.2405  0.1300 -0.2038
  676BOLB   C2B16210   3.854  26.383  17.501  0.0614 -0.0648 -0.0764
  676BOLB   C3B16211   3.658  26.616  17.574  0.1116  0.4505 -0.1490
  676BOLB   C4B16212   3.441  26.823  17.734  0.1506  0.0440  0.0946
  676BOLB   NC216213   4.135  28.203  20.385 -0.1878 -0.2752  0.1536
  676BOLB   PO216214   4.391  28.564  20.376 -0.0360  0.0032 -0.3760
  676BOLB   GL316215   4.666  28.300  20.095  0.2439  0.2038 -0.0190
  676BOLB   GL416216   4.461  27.949  20.166  0.0265  0.1497  0.0308
  676BOLB   C1C16217   4.823  28.026  19.713  0.0576 -0.0742  0.0566
  676BOLB   C2C16218   4.991  27.796  19.368  0.0869 -0.0320  0.2027
  676BOLB   C3C16219   5.065  27.400  19.074 -0.1818 -0.0569 -0.4223
  676BOLB   C4C16220   4.971  26.914  19.147 -0.1885  0.1307  0.1993
  676BOLB   C1D16221   4.377  27.868  19.737  0.1913  0.1351 -0.0105
  676BOLB   C2D16222   4.420  27.656  19.300  0.1188 -0.3230 -0.2099
  676BOLB   C3D16223   4.418  27.543  18.952 -0.0373 -0.2712  0.4338
  676BOLB   C4D16224   4.301  27.324  18.732  0.2466  0.3662  0.3489
  677BOLB   NC116225  13.044  16.953   7.723 -0.3833  0.1141 -0.0995
  677BOLB   PO116226  13.305  16.977   8.042 -0.2071 -0.3082 -0.5399
  677BOLB   GL116227  13.568  16.599   8.024  0.0364  0.2228 -0.0254
  677BOLB   GL216228  13.518  16.564   7.684 -0.1091  0.0346  0.1251
  677BOLB   C1A16229  13.873  16.207   8.095  0.0522  0.1098  0.1945
  677BOLB   C2A16230  14.149  15.789   7.978  0.0127  0.0918  0.2633
  677BOLB   C3A16231  14.478  15.488   7.925 -0.2370  0.0193  0.0255
  677BOLB   C4A16232  14.809  15.602   7.859  0.1510 -0.1012  0.2906
  677BOLB   C1B16233  13.745  16.143   7.593 -0.1931  0.0633 -0.2119
  677BOLB   C2B16234  13.999  16.024   7.277  0.1166  0.2077 -0.3098
  677BOLB   C3B16235  14.164  15.641   7.311 -0.1456 -0.2239  0.1379
  677BOLB   C4B16236  14.585  15.381   7.501 -0.0033  0.0971 -0.1102
  677BOLB   NC216237  16.551  13.563   8.447 -0.0165 -0.2638 -0.1314
  677BOLB   PO216238  16.503  14.029   8.414 -0.0439  0.1152 -0.1214
  677BOLB   GL316239  16.047  14.206   8.361  0.2477  0.3532  0.3583
  677BOLB   GL416240  15.754  14.223   8.470  0.1143 -0.0472  0.0655
  677BOLB   C1C16241  15.948  14.537   8.038 -0.0954 -0.0897  0.0447
  677BOLB   C2C16242  15.774  14.982   7.997  0.1903 -0.2487  0.1444
  677BOLB   C3C16243  15.569  15.371   7.811 -0.1122  0.1971  0.0661
  677BOLB   C4C16244  15.270  15.548   7.694  0.1747  0.1107 -0.2780
  677BOLB   C1D16245  15.373  14.495   8.314 -0.5105 -0.2460  0.0739
  677BOLB   C2D16246  15.385  14.889   8.268 -0.1301 -0.0184 -0.2075
  677BOLB   C3D16247  15.184  15.191   8.123 -0.0345 -0.1011  0.2004
  677BOLB   C4D16248  14.839  15.095   8.071 -0.0382  0.0990 -0.0716
  678BOLB   NC116249   8.315  13.189   8.390 -0.1254 -0.1583  0.0932
  678BOLB   PO116250   7.927  13.231   8.532  0.0840  0.1838 -0.1893
  678BOLB   GL116251   7.963  12.706   8.526  0.2552 -0.2605 -0.0378
  678BOLB   GL216252   7.519  12.518   8.384 -0.1082 -0.2097 -0.1711
  678BOLB   C1A16253   7.966  12.351   8.512 -0.1118  0.0865  0.0260
  678BOLB   C2A16254   8.037  12.026   8.394 -0.2493 -0.2965 -0.0318
  678BOLB   C3A16255   8.140  11.720   8.106 -0.2484  0.1458  0.0617
  678BOLB   C4A16256   7.971  11.345   7.934 -0.2125 -0.3050  0.4507
  678BOLB   C1B16257   7.490  12.165   8.022  0.1101  0.2906  0.0072
  678BOLB   C2B16258   7.620  11.737   8.046  0.2219  0.2995  0.2221
  678BOLB   C3B16259   7.677  11.422   8.321  0.2370 -0.1032 -0.0294
  678BOLB   C4B16260   7.458  11.074   8.500  0.2542  0.1915  0.0581
  678BOLB   NC216261   6.805   9.061   8.196 -0.3121 -0.0480  0.1683
  678BOLB   PO216262   7.281   9.043   8.384  0.0455  0.0258  0.0465
  678BOLB   GL316263   7.171   9.348   7.991 -0.2512  0.0889  0.1069
  678BOLB   GL416264   6.857   9.246   7.757  0.0806 -0.0041  0.1386
  678BOLB   C1C16265   7.174   9.844   7.880  0.0061  0.2983  0.3403
  678BOLB   C2C16266   7.383  10.175   7.873  0.1458 -0.0579  0.0199
  678BOLB   C3C16267   7.682  10.620   8.025 -0.0706 -0.0759 -0.2032
  678BOLB   C4C16268   7.876  11.038   8.084  0.2371 -0.2886  0.2518
  678BOLB   C1D16269   6.863   9.617   7.551 -0.0662  0.2109 -0.1319
  678BOLB   C2D16270   6.786  10.064   7.616 -0.1848  0.3552  0.0624
  678BOLB   C3D16271   6.501  10.431   7.859  0.0214  0.0071 -0.0245
  678BOLB   C4D16272   6.253  10.786   7.761 -0.2983 -0.3092  0.2419
  679BOLB   NC116273   6.476  28.922   9.283 -0.0129 -0.2072 -0.1432
  679BOLB   PO116274   6.306  29.089   8.996  0.1638  0.1258  0.0814
  679BOLB   GL116275   6.342  29.468   8.935 -0.1367  0.2222 -0.1103
  679BOLB   GL216276   6.249  29.387   8.608 -0.0850  0.2460 -0.0463
  679BOLB   C1A16277   6.358  29.866   8.695 -0.1271  0.0328 -0.1785
  679BOLB   C2A16278   6.393  30.233   8.422  0.0854 -0.4153  0.1877
  679BOLB   C3A16279   6.442  30.624   8.438 -0.1966  0.0557 -0.0649
  679BOLB   C4A16280   6.715  30.925   8.340  0.0293  0.0028  0.0201
  679BOLB   C1B16281   6.550  29.520   8.320  0.0696  0.0026 -0.1474
  679BOLB   C2B16282   6.680  29.896   8.261  0.3266 -0.1690 -0.2313
  679BOLB   C3B16283   6.738  30.316   8.035  0.1013 -0.1590 -0.1079
  679BOLB   C4B16284   6.397  30.666   7.821  0.2011 -0.1722  0.1982
  679BOLB   NC216285   8.127  33.039   8.460  0.0666  0.1719  0.0387
  679BOLB   PO216286   7.737  32.725   8.451  0.0003 -0.0047  0.0115
  679BOLB   GL316287   7.719  32.416   8.088 -0.0152  0.0383  0.1806
  679BOLB   GL416288   7.641  32.508   7.758 -0.1988 -0.0243 -0.1057
  679BOLB   C1C16289   7.639  31.969   8.041 -0.0099 -0.2175  0.1359
  679BOLB   C2C16290   7.654  31.487   8.089  0.0656 -0.0911 -0.0179
  679BOLB   C3C16291   7.401  31.237   8.093  0.0504 -0.1605  0.1319
  679BOLB   C4C16292   6.996  31.215   8.151  0.2104  0.2634 -0.1671
  679BOLB   C1D16293   7.991  32.184   7.696  0.0635  0.0341  0.0078
  679BOLB   C2D16294   8.359  31.969   7.892 -0.4405 -0.0210 -0.0403
  679BOLB   C3D16295   8.654  32.137   8.054  0.0721 -0.2124 -0.0471
  679BOLB   C4D16296   9.087  32.118   8.192  0.0380 -0.1431 -0.0923
  680BOLB   NC116297   7.458  19.700   2.332  0.1012  0.0042  0.0525
  680BOLB   PO116298   7.304  19.894   2.024 -0.1449  0.0570  0.1390
  680BOLB   GL116299   7.293  20.027   1.567 -0.2350  0.2888 -0.3047
  680BOLB   GL216300   7.096  19.936   1.504 -0.3449  0.0666  0.2081
  680BOLB   C1A16301   7.596  20.015   1.182  0.2958 -0.0890 -0.3295
  680BOLB   C2A16302   7.462  19.960   0.756  0.1669  0.2071  0.1443
  680BOLB   C3A16303   7.421  20.093   0.310  0.0812  0.0727  0.1192
  680BOLB   C4A16304   7.464  20.415   0.070  0.0139 -0.3506  0.0791
  680BOLB   C1B16305   7.096  20.191   1.058 -0.1121 -0.0025  0.0315
  680BOLB   C2B16306   6.970  20.178   0.558  0.1491 -0.0953 -0.2028
  680BOLB   C3B16307   6.936  20.059   0.141  0.1233  0.0431 -0.2744
  680BOLB   C4B16308   6.877  20.197  -0.219 -0.3836 -0.0494 -0.0762
  680BOLB   NC216309   8.114  20.848  -2.249  0.2840 -0.0577  0.3952
  680BOLB   PO216310   8.015  21.003  -1.921  0.1601 -0.4130 -0.0199
  680BOLB   GL316311   7.938  20.775  -1.592 -0.0191 -0.0608  0.0887
  680BOLB   GL416312   8.263  20.727  -1.577  0.0273 -0.3553  0.3201
  680BOLB   C1C16313   7.731  20.894  -1.139  0.1650 -0.1203  0.3452
  680BOLB   C2C16314   7.529  20.983  -0.867 -0.0882  0.0436  0.0959
  680BOLB   C3C16315   7.208  20.688  -0.687  0.1177 -0.3053 -0.2595
  680BOLB   C4C16316   7.238  20.611  -0.308  0.1368 -0.0910 -0.4391
  680BOLB   C1D16317   8.438  20.531  -1.224 -0.0637 -0.0879 -0.0318
  680BOLB   C2D16318   8.532  20.656  -0.925 -0.0502 -0.1175 -0.1717
  680BOLB   C3D16319   8.542  21.017  -0.740 -0.0257  0.2495 -0.0101
  680BOLB   C4D16320   8.365  21.375  -0.676  0.0013 -0.2390 -0.1591
  681BOLB   NC116321  28.949  18.061  13.312 -0.2554  0.1611 -0.2633
  681BOLB   PO116322  29.238  17.776  13.159 -0.2111  0.1269 -0.3333
  681BOLB   GL116323  29.572  17.823  13.336 -0.1323  0.5084 -0.1068
  681BOLB   GL216324  29.720  18.172  13.228 -0.1171 -0.3198  0.1985
  681BOLB   C1A16325  29.974  18.036  13.638  0.2019  0.1915  0.2476
  681BOLB   C2A16326  30.516  17.880  13.614  0.0542 -0.0678  0.0115
  681BOLB   C3A16327  30.871  17.662  13.764  0.1772  0.4785 -0.1555
  681BOLB   C4A16328  31.152  17.389  14.057  0.1778  0.1097 -0.4416
  681BOLB   C1B16329  29.962  18.350  12.961  0.1632 -0.0307 -0.3572
  681BOLB   C2B16330  30.359  18.418  12.704 -0.0950  0.3864  0.0153
  681BOLB   C3B16331  30.738  18.300  12.921  0.0415  0.0937 -0.4139
  681BOLB   C4B16332  31.174  18.232  12.951  0.1324 -0.1376 -0.3670
  681BOLB   NC216333  30.079  16.737  15.647  0.2377 -0.0882  0.0420
  681BOLB   PO216334  30.062  16.411  15.309  0.0158  0.2194  0.0924
  681BOLB   GL316335  30.458  16.376  15.218  0.0074  0.1493  0.0059
  681BOLB   GL416336  30.583  16.686  15.408 -0.1528  0.0061 -0.3035
  681BOLB   C1C16337  30.866  16.419  15.104 -0.2959  0.0922 -0.3357
  681BOLB   C2C16338  31.173  16.636  15.063 -0.1987  0.3268  0.2475
  681BOLB   C3C16339  31.432  16.923  14.796  0.0727  0.1703  0.1357
  681BOLB   C4C16340  31.486  17.181  14.410 -0.1103  0.2140 -0.0026
  681BOLB   C1D16341  30.911  16.808  15.506 -0.1368  0.0741  0.0754
  681BOLB   C2D16342  31.377  17.002  15.298  0.0213  0.0452 -0.1949
  681BOLB   C3D16343  31.628  17.352  15.030 -0.3009  0.0675 -0.2458
  681BOLB   C4D16344  31.434  17.547  14.751 -0.1394 -0.1573  0.2453
  682BOLB   NC116345   6.364  22.145  18.592  0.0678  0.0480  0.2391
  682BOLB   PO116346   6.060  22.333  18.350  0.2770 -0.2718  0.3758
  682BOLB   GL116347   5.913  22.355  18.792  0.3031  0.0607  0.3583
  682BOLB   GL216348   6.026  22.222  18.975  0.3033 -0.1324 -0.0249
  682BOLB   C1A16349   5.678  22.675  19.129  0.1431 -0.0949 -0.1282
  682BOLB   C2A16350   5.731  22.743  19.526 -0.0393  0.0747  0.1499
  682BOLB   C3A16351   5.672  22.720  20.004 -0.2502  0.0010  0.0904
  682BOLB   C4A16352   5.936  22.644  20.397 -0.0178 -0.0266  0.1864
  682BOLB   C1B16353   5.981  22.285  19.456  0.1451 -0.1353  0.2442
  682BOLB   C2B16354   5.750  22.191  19.856  0.2089  0.0320 -0.0524
  682BOLB   C3B16355   5.507  22.235  20.287 -0.2535  0.2319  0.2775
  682BOLB   C4B16356   5.387  21.937  20.534  0.3079 -0.1261  0.1693
  682BOLB   NC216357   5.237  22.919  22.491  0.3227  0.2898 -0.0313
  682BOLB   PO216358   5.574  22.708  22.782  0.2362  0.1099  0.2856
  682BOLB   GL316359   5.822  22.652  22.349 -0.0836 -0.0114 -0.0886
  682BOLB   GL416360   5.704  22.743  22.129 -0.1552  0.0653 -0.2941
  682BOLB   C1C16361   6.162  22.589  22.127 -0.0447  0.2231  0.0263
  682BOLB   C2C16362   6.158  22.512  21.636 -0.1353 -0.0449 -0.3220
  682BOLB   C3C16363   5.893  22.524  21.270 -0.2470 -0.1930  0.4384
  682BOLB   C4C16364   5.915  22.564  20.891 -0.1704  0.1415  0.3237
  682BOLB   C1D16365   5.683  22.575  21.726  0.1013 -0.4112 -0.0793
  682BOLB   C2D16366   5.477  22.385  21.475 -0.1947  0.1048 -0.1695
  682BOLB   C3D16367   5.450  22.352  21.078 -0.0609  0.0508  0.0270
  682BOLB   C4D16368   5.283  22.450  20.703 -0.2649 -0.5045 -0.0745
  683BOLB   NC116369  14.276  24.050   8.142  0.3950  0.2263 -0.0162
  683BOLB   PO116370  14.248  24.350   7.807  0.3334  0.3933  0.2045
  683BOLB   GL116371  14.365  24.485   7.374 -0.1966  0.1487 -0.2322
  683BOLB   GL216372  14.665  24.483   7.406 -0.0784 -0.0051 -0.0579
  683BOLB   C1A16373  14.544  24.832   7.134  0.1263 -0.2872  0.1321
  683BOLB   C2A16374  14.926  25.123   6.943  0.0659  0.1110 -0.1751
  683BOLB   C3A16375  15.128  25.496   7.012 -0.0373  0.0941 -0.3495
  683BOLB   C4A16376  15.375  25.837   7.117  0.2745  0.1004 -0.2087
  683BOLB   C1B16377  15.065  24.751   7.415  0.3423 -0.3327  0.0654
  683BOLB   C2B16378  15.168  25.143   7.389  0.2377 -0.0598 -0.1925
  683BOLB   C3B16379  15.208  25.565   7.545 -0.1058 -0.3138 -0.1406
  683BOLB   C4B16380  15.366  25.998   7.769 -0.1089  0.0901  0.2621
  683BOLB   NC216381  17.376  27.369   7.280 -0.1946  0.0233 -0.3087
  683BOLB   PO216382  17.230  27.260   6.985  0.0063  0.0911 -0.2924
  683BOLB   GL316383  16.979  26.887   6.830  0.1125  0.0939  0.3558
  683BOLB   GL416384  16.573  26.792   6.989  0.1243 -0.0779  0.3736
  683BOLB   C1C16385  16.980  26.439   6.855 -0.0680  0.1892  0.0145
  683BOLB   C2C16386  16.799  26.121   6.922  0.3115  0.1814 -0.1448
  683BOLB   C3C16387  16.328  25.977   6.941  0.2856  0.2933  0.0139
  683BOLB   C4C16388  15.864  25.815   6.980 -0.1964  0.2075  0.1657
  683BOLB   C1D16389  16.400  26.514   7.177 -0.1119 -0.2509 -0.0295
  683BOLB   C2D16390  16.244  26.226   7.416 -0.0111 -0.3877  0.1555
  683BOLB   C3D16391  16.214  25.774   7.377 -0.1966 -0.1970 -0.3522
  683BOLB   C4D16392  16.033  25.428   7.632  0.2884 -0.0993 -0.0205
  684BOLB   NC116393   9.011  28.254  13.450 -0.0731 -0.0571 -0.0671
  684BOLB   PO116394   8.565  28.380  13.440  0.3730  0.1969  0.2900
  684BOLB   GL116395   8.802  28.671  13.660  0.0320 -0.1636  0.1386
  684BOLB   GL216396   9.091  28.606  13.805  0.1920 -0.0248 -0.0885
  684BOLB   C1A16397   8.986  28.971  14.081  0.1774 -0.1208 -0.5242
  684BOLB   C2A16398   9.208  29.281  14.311 -0.2828  0.0236  0.0776
  684BOLB   C3A16399   9.279  29.570  14.505  0.0668  0.2376  0.0231
  684BOLB   C4A16400   9.266  29.891  14.821 -0.0748 -0.3481 -0.1851
  684BOLB   C1B16401   9.262  28.949  13.549  0.2653  0.0842 -0.1269
  684BOLB   C2B16402   9.403  29.131  13.163  0.1898 -0.1608  0.0584
  684BOLB   C3B16403   9.658  29.443  13.062  0.0948 -0.0798 -0.4386
  684BOLB   C4B16404   9.677  29.811  12.914  0.5520 -0.0877  0.1258
  684BOLB   NC216405   8.894  31.789  15.877  0.0673 -0.2101  0.4101
  684BOLB   PO216406   9.105  31.713  16.291  0.2274 -0.1376 -0.0549
  684BOLB   GL316407   9.074  31.320  16.060  0.0095  0.0426 -0.1736
  684BOLB   GL416408   9.204  30.990  16.240  0.0506 -0.1987 -0.0151
  684BOLB   C1C16409   9.082  31.144  15.667 -0.3040  0.9230  0.1203
  684BOLB   C2C16410   9.210  31.025  15.287  0.4481  0.0773 -0.2580
  684BOLB   C3C16411   9.129  30.697  15.291 -0.1332 -0.1102  0.0026
  684BOLB   C4C16412   9.255  30.309  15.111 -0.0264  0.2864 -0.2126
  684BOLB   C1D16413   8.916  30.700  16.015 -0.2510  0.0904 -0.5236
  684BOLB   C2D16414   8.646  30.284  15.974 -0.0005 -0.2724 -0.2216
  684BOLB   C3D16415   8.610  29.784  15.873  0.1785  0.0344  0.1911
  684BOLB   C4D16416   8.542  29.501  15.533 -0.0054 -0.4133 -0.2390
  685BOLB   NC116417   2.973  17.795  17.193  0.4160  0.3289  0.1212
  685BOLB   PO116418   3.183  18.109  17.335 -0.1434 -0.1277  0.0023
  685BOLB   GL116419   3.257  17.862  17.707 -0.1988  0.2893 -0.2986
  685BOLB   GL216420   2.966  17.954  17.925  0.0215  0.1504 -0.1341
  685BOLB   C1A16421   3.336  17.535  18.013 -0.1791 -0.1308  0.2203
  685BOLB   C2A16422   3.173  17.347  18.276 -0.1443  0.1617  0.2537
  685BOLB   C3A16423   3.097  16.929  18.253  0.1430  0.0673 -0.0023
  685BOLB   C4A16424   3.192  16.462  18.441 -0.0032  0.2027 -0.1077
  685BOLB   C1B16425   2.836  17.553  17.955  0.3439  0.0855  0.1126
  685BOLB   C2B16426   2.730  17.342  18.317 -0.1631 -0.0219 -0.0304
  685BOLB   C3B16427   2.768  17.212  18.771 -0.0189  0.0869 -0.0481
  685BOLB   C4B16428   2.981  17.333  19.133  0.0392 -0.0382  0.0523
  685BOLB   NC216429   2.719  14.871  20.346  0.1690  0.1184  0.0728
  685BOLB   PO216430   3.182  15.065  20.428 -0.0216  0.1212 -0.1733
  685BOLB   GL316431   3.093  15.101  19.981 -0.0653  0.1587 -0.2438
  685BOLB   GL416432   2.813  14.908  19.795  0.0224  0.2242 -0.0950
  685BOLB   C1C16433   3.105  15.455  19.688 -0.1554 -0.2223  0.3248
  685BOLB   C2C16434   3.216  15.678  19.273  0.2699  0.0476  0.1567
  685BOLB   C3C16435   3.173  15.997  18.993  0.1244  0.3363  0.0591
  685BOLB   C4C16436   3.412  16.304  18.785 -0.1245  0.2265 -0.1720
  685BOLB   C1D16437   2.899  15.083  19.423  0.0069  0.1063 -0.3403
  685BOLB   C2D16438   2.844  15.383  19.044 -0.0787  0.0333 -0.1790
  685BOLB   C3D16439   2.883  15.653  18.618  0.0347 -0.2950  0.3256
  685BOLB   C4D16440   3.188  15.928  18.522  0.0619  0.1512 -0.0413
  686BOLB   NC116441  13.162  19.300   5.317  0.1206  0.2146  0.2301
  686BOLB   PO116442  13.199  19.103   4.845  0.1332 -0.1512  0.1468
  686BOLB   GL116443  13.496  18.788   4.576  0.4174  0.1114 -0.2073
  686BOLB   GL216444  13.424  18.841   4.253 -0.0478 -0.0426 -0.3785
  686BOLB   C1A16445  13.817  18.621   4.450  0.0189 -0.0303  0.1602
  686BOLB   C2A16446  14.037  18.477   4.066 -0.1294  0.2137  0.0105
  686BOLB   C3A16447  14.302  18.326   3.679 -0.0602  0.2057 -0.3395
  686BOLB   C4A16448  14.697  18.033   3.608 -0.1104 -0.2768  0.1528
  686BOLB   C1B16449  13.722  18.765   3.909  0.0327  0.1036 -0.1007
  686BOLB   C2B16450  13.834  18.609   3.553  0.2065  0.0571  0.0039
  686BOLB   C3B16451  14.039  18.815   3.257  0.0964  0.1976 -0.1067
  686BOLB   C4B16452  14.086  19.083   2.839 -0.0966 -0.1402 -0.2834
  686BOLB   NC216453  16.214  16.683   2.606  0.1910  0.1688 -0.0202
  686BOLB   PO216454  15.826  16.481   2.473  0.3226  0.0978  0.0878
  686BOLB   GL316455  15.723  16.823   2.622 -0.1713 -0.0180  0.2072
  686BOLB   GL416456  15.364  16.890   2.508 -0.1211  0.0269  0.1817
  686BOLB   C1C16457  15.711  17.056   2.965  0.3315  0.2419  0.1413
  686BOLB   C2C16458  15.274  17.277   3.114  0.2440  0.3047 -0.2984
  686BOLB   C3C16459  15.125  17.377   3.497  0.0861  0.1799  0.4772
  686BOLB   C4C16460  14.953  17.781   3.568 -0.1098  0.1481 -0.0996
  686BOLB   C1D16461  15.254  16.897   2.890 -0.0260 -0.1532 -0.2012
  686BOLB   C2D16462  14.817  17.012   3.130 -0.1983  0.3484  0.2546
  686BOLB   C3D16463  14.551  17.232   3.221 -0.0055  0.0394 -0.3303
  686BOLB   C4D16464  14.548  17.500   3.619  0.0250  0.1127  0.3800
  687BOLB   NC116465   7.628  21.016  18.755  0.0477 -0.3297 -0.2471
  687BOLB   PO116466   7.374  20.602  18.659 -0.4615 -0.0107 -0.2813
  687BOLB   GL116467   7.253  20.618  19.058  0.4350 -0.0361  0.1475
  687BOLB   GL216468   6.841  20.738  19.127 -0.1090 -0.1013 -0.0122
  687BOLB   C1A16469   6.977  20.473  19.495 -0.0592  0.2321 -0.0672
  687BOLB   C2A16470   7.215  20.176  19.852  0.3571 -0.0579 -0.1089
  687BOLB   C3A16471   7.329  20.218  20.194 -0.4975  0.0043  0.1362
  687BOLB   C4A16472   7.474  20.038  20.572  0.1731  0.1645  0.2130
  687BOLB   C1B16473   6.735  20.891  19.534  0.1081 -0.0480 -0.2729
  687BOLB   C2B16474   6.670  21.145  19.960 -0.1853  0.0372  0.1859
  687BOLB   C3B16475   6.401  21.256  20.204 -0.5155  0.0509 -0.0764
  687BOLB   C4B16476   6.091  21.325  20.506  0.1900 -0.1096 -0.0847
  687BOLB   NC216477   7.188  20.382  23.104  0.1262  0.0534 -0.0873
  687BOLB   PO216478   7.067  19.960  22.959  0.2149  0.0013  0.0174
  687BOLB   GL316479   7.141  19.984  22.541 -0.1896 -0.0959  0.0608
  687BOLB   GL416480   7.419  19.869  22.441  0.0089 -0.0991 -0.0772
  687BOLB   C1C16481   7.064  20.169  22.073  0.1657 -0.0374 -0.0022
  687BOLB   C2C16482   7.209  20.257  21.680  0.1487  0.1096  0.1092
  687BOLB   C3C16483   7.411  20.002  21.301  0.0582  0.0320 -0.2341
  687BOLB   C4C16484   7.396  20.044  20.983  0.3281  0.2545 -0.0689
  687BOLB   C1D16485   7.529  20.326  22.312 -0.0972 -0.0616 -0.4778
  687BOLB   C2D16486   7.585  20.765  22.376 -0.3784  0.2498  0.3201
  687BOLB   C3D16487   7.546  21.178  22.153 -0.1542  0.3499 -0.2956
  687BOLB   C4D16488   7.667  21.368  21.768 -0.2566 -0.0836  0.0498
  688BOLB   NC116489  13.880  18.376   5.990 -0.0530  0.0454  0.3417
  688BOLB   PO116490  14.073  17.890   6.116 -0.1504 -0.2701  0.1873
  688BOLB   GL116491  14.548  17.928   5.939  0.0660 -0.1393 -0.1408
  688BOLB   GL216492  14.685  18.134   5.674  0.0903  0.2755  0.2057
  688BOLB   C1A16493  14.844  17.559   5.859  0.1173  0.1622 -0.0568
  688BOLB   C2A16494  15.139  17.354   5.527  0.3344 -0.1263 -0.0758
  688BOLB   C3A16495  15.622  17.272   5.503  0.5185  0.1922 -0.0476
  688BOLB   C4A16496  15.960  17.508   5.627  0.2049  0.0920 -0.0058
  688BOLB   C1B16497  15.052  17.963   5.629 -0.2355  0.0251  0.1003
  688BOLB   C2B16498  15.460  17.773   5.610 -0.2289 -0.2040 -0.1457
  688BOLB   C3B16499  15.910  17.992   5.593 -0.2894  0.6999  0.1044
  688BOLB   C4B16500  16.266  17.750   5.319 -0.1742  0.2500  0.3087
  688BOLB   NC216501  18.375  17.396   4.915  0.0969 -0.2015  0.0894
  688BOLB   PO216502  18.217  17.587   5.335 -0.1505  0.2148  0.3366
  688BOLB   GL316503  17.784  17.580   5.151 -0.0353 -0.1190 -0.3154
  688BOLB   GL416504  17.836  17.640   4.917  0.2294 -0.2526  0.3526
  688BOLB   C1C16505  17.352  17.419   5.062  0.0816  0.3441 -0.4311
  688BOLB   C2C16506  17.014  17.357   5.263  0.1853  0.1787 -0.0729
  688BOLB   C3C16507  16.648  17.167   5.504 -0.1226  0.1330 -0.1206
  688BOLB   C4C16508  16.407  17.482   5.706  0.2070  0.1837 -0.2299
  688BOLB   C1D16509  17.476  17.947   4.992 -0.1545  0.0769 -0.2344
  688BOLB   C2D16510  17.200  18.128   4.809  0.1769  0.3174 -0.1288
  688BOLB   C3D16511  16.922  17.955   4.487 -0.2046 -0.0004 -0.1082
  688BOLB   C4D16512  17.017  17.797   4.002  0.0681  0.2928 -0.1717
  689BOLB   NC116513   6.465  19.391  18.146 -0.0989 -0.1407  0.0482
  689BOLB   PO116514   6.482  19.648  18.525  0.0312 -0.0950  0.0963
  689BOLB   GL116515   6.462  19.470  18.968  0.1039 -0.2468 -0.0512
  689BOLB   GL216516   6.186  19.287  19.072  0.1832 -0.0057  0.0806
  689BOLB   C1A16517   6.478  19.509  19.415  0.1432 -0.1372 -0.0899
  689BOLB   C2A16518   6.602  19.237  19.692  0.1976 -0.1144  0.0349
  689BOLB   C3A16519   6.759  19.176  20.054  0.0773  0.0580 -0.0435
  689BOLB   C4A16520   6.933  19.048  20.495  0.1798 -0.2928  0.1171
  689BOLB   C1B16521   6.247  18.932  19.368  0.1331  0.0530  0.0159
  689BOLB   C2B16522   6.350  18.736  19.757  0.2347 -0.1890  0.0758
  689BOLB   C3B16523   6.335  18.977  20.087 -0.0434  0.1210  0.0513
  689BOLB   C4B16524   6.405  18.980  20.528 -0.3334 -0.3790  0.1458
  689BOLB   NC216525   5.984  17.918  22.454 -0.2063  0.2245  0.0834
  689BOLB   PO216526   5.827  17.647  22.167  0.1852  0.1029 -0.1761
  689BOLB   GL316527   5.764  17.807  21.806 -0.1838 -0.2290  0.0307
  689BOLB   GL416528   5.527  17.859  21.521  0.1208 -0.2098 -0.1834
  689BOLB   C1C16529   5.899  18.190  21.563  0.0032 -0.0779 -0.1868
  689BOLB   C2C16530   6.113  18.542  21.263 -0.0547 -0.1305  0.1133
  689BOLB   C3C16531   6.436  18.715  21.083 -0.0027  0.0215  0.0254
  689BOLB   C4C16532   6.861  18.813  20.861  0.2250 -0.1574  0.1094
  689BOLB   C1D16533   5.386  18.271  21.220  0.0814  0.1086 -0.1332
  689BOLB   C2D16534   5.081  18.549  20.909 -0.2483 -0.1520  0.0480
  689BOLB   C3D16535   5.286  18.948  20.777 -0.3249 -0.1578  0.0035
  689BOLB   C4D16536   5.397  19.281  21.014 -0.2222  0.0813 -0.2155
  690BOLB   NC116537   3.788  25.634  16.404  0.2597  0.2347  0.3453
  690BOLB   PO116538   3.868  26.058  16.410 -0.0192 -0.2475  0.0587
  690BOLB   GL116539   3.639  26.293  16.569  0.2104  0.1257 -0.0388
  690BOLB   GL216540   3.621  26.544  16.415 -0.0946  0.0478  0.0504
  690BOLB   C1A16541   3.218  26.582  16.697  0.0492 -0.1368  0.0466
  690BOLB   C2A16542   3.071  26.812  16.883  0.0443 -0.1461 -0.0888
  690BOLB   C3A16543   2.862  26.871  17.267 -0.0411 -0.1005  0.2117
  690BOLB   C4A16544   2.507  26.998  17.338 -0.1734  0.0465 -0.1977
  690BOLB   C1B16545   3.523  27.001  16.438 -0.2322  0.1218 -0.1657
  690BOLB   C2B16546   3.410  27.253  16.751  0.0695  0.2033 -0.1137
  690BOLB   C3B16547   3.110  27.431  16.800  0.0495  0.1701  0.0722
  690BOLB   C4B16548   2.944  27.783  16.830  0.0936 -0.0874 -0.1078
  690BOLB   NC216549   0.716  28.992  18.175 -0.3087  0.0973  0.1098
  690BOLB   PO216550   1.154  28.825  18.122  0.0579  0.1651 -0.1023
  690BOLB   GL316551   1.072  28.453  18.077  0.1708 -0.0174 -0.0338
  690BOLB   GL416552   1.042  28.428  17.712  0.0185 -0.0899  0.0753
  690BOLB   C1C16553   1.366  28.085  18.109  0.1241  0.0472  0.1108
  690BOLB   C2C16554   1.598  27.846  17.742 -0.3654  0.0089 -0.2692
  690BOLB   C3C16555   1.976  27.657  17.558 -0.0592  0.0301 -0.0961
  690BOLB   C4C16556   2.344  27.364  17.609  0.3030 -0.4741  0.0690
  690BOLB   C1D16557   1.172  28.073  17.405 -0.0690  0.3676 -0.0744
  690BOLB   C2D16558   1.253  28.050  16.971  0.0073  0.1280  0.0233
  690BOLB   C3D16559   1.559  27.980  16.635 -0.0896 -0.1748  0.2139
  690BOLB   C4D16560   1.768  27.771  16.200  0.1452 -0.0605 -0.3552
  691BOLB   NC116561   6.829  16.147   3.411  0.0962 -0.1800 -0.2151
  691BOLB   PO116562   6.812  15.774   3.473  0.2806 -0.2922  0.1712
  691BOLB   GL116563   6.776  15.420   3.093  0.0452 -0.4708  0.0515
  691BOLB   GL216564   7.013  15.330   3.241  0.0995 -0.0227  0.1284
  691BOLB   C1A16565   6.607  15.190   2.836  0.0857 -0.1102  0.0230
  691BOLB   C2A16566   6.645  14.976   2.728 -0.0612  0.0731 -0.1522
  691BOLB   C3A16567   6.752  14.766   2.475  0.0409  0.0441  0.1243
  691BOLB   C4A16568   6.734  14.578   2.098  0.0645  0.3825  0.0804
  691BOLB   C1B16569   7.115  14.971   2.948 -0.1067 -0.2121  0.2051
  691BOLB   C2B16570   7.277  14.780   2.564 -0.2215 -0.1573 -0.0083
  691BOLB   C3B16571   7.547  14.929   2.239  0.2076 -0.0185  0.1811
  691BOLB   C4B16572   7.891  14.874   2.419 -0.0816 -0.0393  0.2317
  691BOLB   NC216573   7.135  13.707  -0.384  0.2020 -0.2232 -0.1812
  691BOLB   PO216574   7.087  13.455  -0.029 -0.0671  0.0295  0.3434
  691BOLB   GL316575   7.352  13.582   0.346  0.1847  0.0539  0.2319
  691BOLB   GL416576   7.631  13.750   0.404 -0.0126 -0.2119  0.1318
  691BOLB   C1C16577   7.141  13.776   0.637  0.0133 -0.2081 -0.2102
  691BOLB   C2C16578   7.129  13.983   1.083  0.3895  0.2541  0.0607
  691BOLB   C3C16579   7.029  14.249   1.483  0.1410 -0.1448  0.1800
  691BOLB   C4C16580   6.890  14.525   1.733  0.1279 -0.4358 -0.4678
  691BOLB   C1D16581   7.494  14.151   0.700  0.1597 -0.2192  0.0456
  691BOLB   C2D16582   7.823  14.261   0.959  0.0257  0.2380  0.1128
  691BOLB   C3D16583   8.099  13.972   1.296 -0.0753 -0.0130 -0.0339
  691BOLB   C4D16584   8.219  13.736   1.651 -0.2717  0.3335  0.3120
  692BOLB   NC116585   5.742  16.379   3.433  0.1622  0.1252 -0.1303
  692BOLB   PO116586   5.864  15.917   3.335  0.6778  0.0543  0.0884
  692BOLB   GL116587   5.720  15.676   3.127  0.0788  0.0965 -0.1098
  692BOLB   GL216588   5.452  15.679   2.876 -0.0378 -0.0620  0.1001
  692BOLB   C1A16589   5.819  15.363   2.784 -0.1160  0.1027 -0.0229
  692BOLB   C2A16590   6.030  15.073   2.507 -0.0271 -0.1345 -0.0909
  692BOLB   C3A16591   6.193  14.831   2.230  0.1290  0.0689  0.2433
  692BOLB   C4A16592   5.957  14.795   1.870  0.1143  0.3880  0.0994
  692BOLB   C1B16593   5.497  15.439   2.407 -0.0708  0.4493  0.0601
  692BOLB   C2B16594   5.609  15.205   2.160  0.0152 -0.0255  0.1668
  692BOLB   C3B16595   5.241  15.009   1.884  0.1331  0.1441  0.0412
  692BOLB   C4B16596   4.867  15.014   1.619 -0.1275  0.0728 -0.1299
  692BOLB   NC216597   6.345  12.595   0.749  0.2094 -0.2596  0.1401
  692BOLB   PO216598   5.969  12.895   0.548 -0.0181 -0.0412 -0.3348
  692BOLB   GL316599   6.095  13.173   0.890 -0.0538 -0.0172 -0.1522
  692BOLB   GL416600   6.325  13.269   1.069  0.1008 -0.0752  0.1236
  692BOLB   C1C16601   5.881  13.348   1.224  0.2291  0.0425  0.0890
  692BOLB   C2C16602   5.805  13.642   1.481  0.1410 -0.2060 -0.0634
  692BOLB   C3C16603   5.994  13.963   1.551  0.0812  0.0793  0.0859
  692BOLB   C4C16604   5.910  14.399   1.735 -0.1272 -0.0882  0.2416
  692BOLB   C1D16605   6.421  13.423   1.509  0.1523 -0.3940  0.0627
  692BOLB   C2D16606   6.294  13.672   1.882 -0.2015 -0.0069 -0.2410
  692BOLB   C3D16607   6.232  13.908   2.311  0.1092  0.2155 -0.0371
  692BOLB   C4D16608   6.044  14.343   2.222 -0.0052 -0.2278 -0.0755
  693BOLB   NC116609   1.399  24.859   5.982 -0.2315  0.0069  0.4162
  693BOLB   PO116610   1.382  25.250   6.207  0.0337 -0.2485  0.1831
  693BOLB   GL116611   1.305  25.741   6.147 -0.2914  0.2698 -0.1484
  693BOLB   GL216612   1.468  25.943   6.292 -0.0050 -0.1409  0.1432
  693BOLB   C1A16613   1.060  26.185   6.113 -0.0677 -0.1003  0.0540
  693BOLB   C2A16614   0.578  26.403   6.083 -0.2593 -0.0603  0.1139
  693BOLB   C3A16615   0.323  26.630   5.913  0.4696 -0.2244 -0.0515
  693BOLB   C4A16616  -0.004  26.554   5.589  0.1610  0.0117  0.2994
  693BOLB   C1B16617   1.494  26.382   6.104  0.2497  0.4559  0.1405
  693BOLB   C2B16618   1.398  26.580   5.722 -0.4259  0.2195  0.6061
  693BOLB   C3B16619   1.322  26.975   5.474 -0.1251 -0.1031  0.2167
  693BOLB   C4B16620   1.428  27.224   5.187  0.0312 -0.0121  0.2684
  693BOLB   NC216621  -1.121  27.759   4.293 -0.3105  0.4194 -0.1666
  693BOLB   PO216622  -1.310  27.329   4.259  0.5826  0.0239 -0.3372
  693BOLB   GL316623  -1.268  26.907   4.500 -0.3090  0.1237  0.1272
  693BOLB   GL416624  -1.450  27.021   4.802  0.0579  0.0500 -0.0572
  693BOLB   C1C16625  -1.118  26.643   4.723  0.2519  0.1084  0.0893
  693BOLB   C2C16626  -0.806  26.459   4.894 -0.2652 -0.0197  0.0638
  693BOLB   C3C16627  -0.486  26.348   5.089  0.0243  0.3085 -0.2105
  693BOLB   C4C16628  -0.256  26.438   5.392 -0.0876  0.3183  0.2169
  693BOLB   C1D16629  -0.997  27.106   5.014  0.0856 -0.0717  0.0319
  693BOLB   C2D16630  -0.863  26.785   5.250  0.0462 -0.1855  0.3660
  693BOLB   C3D16631  -0.878  26.383   5.474 -0.1096 -0.3980  0.1146
  693BOLB   C4D16632  -0.826  25.876   5.696  0.0465 -0.2842  0.1941
  694BOLB   NC116633   7.753  27.982   7.310  0.2729 -0.0671 -0.1210
  694BOLB   PO116634   8.058  28.112   6.970 -0.3464 -0.0627  0.0543
  694BOLB   GL116635   8.070  28.528   6.650 -0.0258  0.1606 -0.4329
  694BOLB   GL216636   8.316  28.535   6.587  0.1441 -0.0779  0.4007
  694BOLB   C1A16637   8.095  28.959   6.818  0.4198  0.2952 -0.4337
  694BOLB   C2A16638   8.290  29.382   6.807  0.4608 -0.3244  0.1362
  694BOLB   C3A16639   8.318  29.784   6.634  0.0228 -0.3851  0.2864
  694BOLB   C4A16640   8.442  30.182   6.776  0.1820 -0.2926  0.1289
  694BOLB   C1B16641   8.475  28.898   6.499  0.3959  0.0713 -0.0508
  694BOLB   C2B16642   8.591  29.178   6.110  0.1788 -0.1377  0.2867
  694BOLB   C3B16643   8.380  29.342   5.725  0.2988  0.0733 -0.0199
  694BOLB   C4B16644   8.257  29.450   5.370 -0.2960  0.4814  0.1249
  694BOLB   NC216645   9.100  32.608   6.249 -0.2011  0.1986  0.0632
  694BOLB   PO216646   8.843  32.396   5.862  0.2533  0.4056 -0.0521
  694BOLB   GL316647   8.771  32.217   6.251 -0.0379  0.4793  0.1256
  694BOLB   GL416648   8.871  32.361   6.569 -0.3523  0.1796 -0.1137
  694BOLB   C1C16649   8.736  31.795   6.453 -0.0207  0.0803  0.0662
  694BOLB   C2C16650   8.504  31.554   6.862 -0.0314  0.2375 -0.1082
  694BOLB   C3C16651   8.470  31.072   6.932  0.4548 -0.0040  0.0400
  694BOLB   C4C16652   8.407  30.663   6.869  0.0698 -0.1213  0.1543
  694BOLB   C1D16653   8.879  32.028   6.824 -0.2446 -0.2761 -0.0418
  694BOLB   C2D16654   9.006  31.649   6.953  0.0653  0.1458 -0.2732
  694BOLB   C3D16655   9.084  31.487   7.342  0.2664  0.0483  0.1282
  694BOLB   C4D16656   9.517  31.249   7.455  0.0567  0.0783  0.1632
  695BOLB   NC116657   2.579  23.525  16.842  0.1896  0.0842  0.0190
  695BOLB   PO116658   2.511  23.191  17.128 -0.0493 -0.2054 -0.0734
  695BOLB   GL116659   2.221  23.428  17.463 -0.1193  0.3660 -0.1083
  695BOLB   GL216660   2.022  23.073  17.556 -0.1504  0.3266 -0.0568
  695BOLB   C1A16661   2.115  23.740  17.680 -0.2374  0.2293  0.1002
  695BOLB   C2A16662   2.097  23.822  18.139 -0.3559 -0.0021 -0.1183
  695BOLB   C3A16663   2.015  23.903  18.664  0.1247  0.2126 -0.1113
  695BOLB   C4A16664   1.866  23.973  19.025 -0.1119 -0.1153  0.1807
  695BOLB   C1B16665   1.738  23.365  17.788 -0.4060  0.0102  0.0243
  695BOLB   C2B16666   1.648  23.539  18.088 -0.2376 -0.1846 -0.1003
  695BOLB   C3B16667   1.203  23.823  18.389  0.1073  0.3259  0.3606
  695BOLB   C4B16668   1.049  23.841  18.662 -0.3241 -0.0380  0.2778
  695BOLB   NC216669   1.337  24.188  21.991 -0.6119 -0.2952 -0.0070
  695BOLB   PO216670   1.327  24.116  21.523  0.0208  0.2298 -0.3087
  695BOLB   GL316671   1.323  24.350  21.074  0.0636  0.0536 -0.0757
  695BOLB   GL416672   1.219  24.528  20.825  0.0619  0.1839 -0.0408
  695BOLB   C1C16673   1.599  24.224  20.680 -0.3720 -0.1349 -0.1058
  695BOLB   C2C16674   1.862  24.117  20.229 -0.2014  0.1482 -0.0671
  695BOLB   C3C16675   1.869  24.136  19.841  0.2412  0.2501  0.3580
  695BOLB   C4C16676   1.811  24.143  19.377  0.3698 -0.0158 -0.0146
  695BOLB   C1D16677   1.224  24.371  20.416 -0.0089 -0.4758  0.3539
  695BOLB   C2D16678   1.427  24.267  20.014  0.0390 -0.1776  0.1532
  695BOLB   C3D16679   1.365  24.050  19.610 -0.2764 -0.1919  0.0451
  695BOLB   C4D16680   1.353  23.831  19.180  0.0339 -0.2175 -0.2015
  696BOLB   NC116681  10.360  21.447  17.628  0.0428 -0.3125  0.0709
  696BOLB   PO116682  10.168  21.188  17.661 -0.2242  0.1180  0.3613
  696BOLB   GL116683  10.245  21.095  18.196  0.1886  0.2028 -0.0721
  696BOLB   GL216684   9.943  21.118  18.537 -0.1141 -0.0329  0.0396
  696BOLB   C1A16685  10.425  21.248  18.535 -0.0536  0.1206 -0.0917
  696BOLB   C2A16686  10.460  21.223  19.022  0.0986 -0.3027 -0.4809
  696BOLB   C3A16687  10.731  21.538  19.322 -0.1059 -0.0079  0.4132
  696BOLB   C4A16688  11.030  21.744  19.631  0.0219  0.1342  0.0714
  696BOLB   C1B16689   9.899  21.085  18.995  0.2104  0.1899  0.1996
  696BOLB   C2B16690   9.811  21.034  19.556 -0.2112  0.0382 -0.3377
  696BOLB   C3B16691   9.899  21.259  19.987  0.2154  0.0961  0.3228
  696BOLB   C4B16692   9.501  21.164  20.218  0.1268 -0.1024  0.3041
  696BOLB   NC216693  12.098  21.881  21.303  0.0619  0.2119 -0.1517
  696BOLB   PO216694  11.788  21.615  21.648  0.0867 -0.0933  0.2464
  696BOLB   GL316695  11.520  21.572  21.265  0.1661 -0.1492 -0.1931
  696BOLB   GL416696  11.461  21.240  21.090 -0.0790  0.3097  0.1399
  696BOLB   C1C16697  11.733  21.525  20.796 -0.1410  0.0462 -0.0640
  696BOLB   C2C16698  11.729  21.456  20.436 -0.2018  0.1292 -0.1355
  696BOLB   C3C16699  11.807  21.509  19.957  0.1709 -0.0233  0.0064
  696BOLB   C4C16700  11.456  21.729  19.702  0.4195 -0.0043  0.0757
  696BOLB   C1D16701  11.648  20.727  21.106 -0.1850  0.0181  0.0154
  696BOLB   C2D16702  11.848  20.472  20.819  0.1790 -0.1917 -0.1790
  696BOLB   C3D16703  11.790  20.156  20.541 -0.1535 -0.0586  0.2290
  696BOLB   C4D16704  11.741  19.754  20.200 -0.1935 -0.1777 -0.3875
  697BOLB   NC116705  11.002  16.993  14.977  0.5164  0.4823  0.1672
  697BOLB   PO116706  10.791  16.906  15.401  0.2559 -0.0380 -0.1194
  697BOLB   GL116707  11.079  16.647  15.507  0.0858  0.1743  0.0008
  697BOLB   GL216708  11.066  16.693  15.817  0.1887  0.0046  0.4349
  697BOLB   C1A16709  11.380  16.361  15.551 -0.1612 -0.0289 -0.3416
  697BOLB   C2A16710  11.441  16.031  15.897  0.0803 -0.0752  0.2804
  697BOLB   C3A16711  11.175  15.878  16.280 -0.1180 -0.3774 -0.4004
  697BOLB   C4A16712  11.257  15.569  16.578  0.1137 -0.1067 -0.4262
  697BOLB   C1B16713  11.273  16.496  16.021  0.0550 -0.1548  0.1580
  697BOLB   C2B16714  11.622  16.239  16.320 -0.2368 -0.1248  0.0431
  697BOLB   C3B16715  11.720  15.750  16.205  0.0866 -0.2299  0.0469
  697BOLB   C4B16716  11.898  15.441  16.418 -0.2154  0.0044  0.1723
  697BOLB   NC216717  12.965  14.415  18.362 -0.1109  0.3330 -0.1956
  697BOLB   PO216718  12.538  14.683  18.433 -0.0010  0.1693 -0.2544
  697BOLB   GL316719  12.219  14.929  18.254 -0.0326 -0.0131 -0.2005
  697BOLB   GL416720  12.246  15.300  18.391 -0.0508 -0.0262  0.1557
  697BOLB   C1C16721  12.007  14.913  17.959 -0.1130 -0.1179 -0.0074
  697BOLB   C2C16722  11.774  14.934  17.606  0.0900 -0.0141  0.1381
  697BOLB   C3C16723  11.716  14.967  17.153 -0.1337 -0.0620 -0.0963
  697BOLB   C4C16724  11.558  15.349  16.946 -0.0583 -0.4134 -0.3721
  697BOLB   C1D16725  12.246  15.675  18.089  0.0337 -0.2919  0.1077
  697BOLB   C2D16726  11.993  15.999  18.122  0.0086 -0.2690  0.0605
  697BOLB   C3D16727  11.524  16.189  18.224  0.0774  0.3278 -0.0156
  697BOLB   C4D16728  11.216  16.533  18.262 -0.0409  0.0357  0.0905
  698BOLB   NC116729  38.036   7.205  13.653  0.1258  0.0772  0.1417
  698BOLB   PO116730  38.320   6.837  13.641  0.0364  0.0705 -0.2074
  698BOLB   GL116731  38.550   7.130  13.350  0.3677  0.0889  0.0223
  698BOLB   GL216732  38.375   7.488  13.471  0.1539 -0.1397 -0.1562
  698BOLB   C1A16733  38.540   7.273  12.946 -0.3221  0.1183 -0.0746
  698BOLB   C2A16734  38.394   7.665  12.628  0.1830  0.1826  0.0771
  698BOLB   C3A16735  38.538   8.003  12.328 -0.1431 -0.1753  0.1361
  698BOLB   C4A16736  38.429   8.249  12.009  0.2058 -0.2685 -0.1794
  698BOLB   C1B16737  38.629   7.691  13.250 -0.1482 -0.1484 -0.0557
  698BOLB   C2B16738  38.597   8.007  13.041  0.1810  0.2846  0.1805
  698BOLB   C3B16739  38.780   8.266  12.767 -0.0063  0.1955 -0.0740
  698BOLB   C4B16740  38.798   8.427  12.316  0.2857 -0.0867 -0.1748
  698BOLB   NC216741  36.083   7.738  11.883  0.1135  0.3957 -0.0050
  698BOLB   PO216742  35.912   7.719  12.336  0.3339  0.2731 -0.0127
  698BOLB   GL316743  36.326   7.845  12.412  0.1010  0.0160  0.1416
  698BOLB   GL416744  36.312   8.055  12.589 -0.1547 -0.3907 -0.1938
  698BOLB   C1C16745  36.684   8.120  12.170 -0.1518  0.0697  0.1900
  698BOLB   C2C16746  37.095   8.095  12.278  0.1311 -0.0045 -0.0386
  698BOLB   C3C16747  37.501   8.418  12.187  0.1910 -0.1033 -0.1565
  698BOLB   C4C16748  37.961   8.345  12.044 -0.1781 -0.4606 -0.1289
  698BOLB   C1D16749  36.739   8.371  12.596 -0.0736  0.1539 -0.0837
  698BOLB   C2D16750  37.107   8.604  12.406  0.4601 -0.1095 -0.0326
  698BOLB   C3D16751  37.289   9.061  12.418  0.0893  0.3762  0.1151
  698BOLB   C4D16752  37.538   9.379  12.433  0.0355 -0.0394 -0.1389
  699BOLB   NC116753   9.549  27.831   7.140 -0.1736  0.3322 -0.0831
  699BOLB   PO116754   9.489  27.895   7.621  0.1258 -0.2480 -0.0349
  699BOLB   GL116755   9.731  28.219   7.297  0.3204  0.2238  0.0271
  699BOLB   GL216756   9.937  28.158   7.010  0.0618 -0.0345  0.0207
  699BOLB   C1A16757   9.781  28.617   7.074  0.2330  0.2718 -0.1395
  699BOLB   C2A16758   9.977  28.977   6.981 -0.3718 -0.1441 -0.2118
  699BOLB   C3A16759  10.165  29.337   7.238 -0.1789  0.1849  0.0614
  699BOLB   C4A16760  10.503  29.578   7.310 -0.2746 -0.2535 -0.2370
  699BOLB   C1B16761  10.085  28.467   6.753  0.2208 -0.0049  0.0385
  699BOLB   C2B16762  10.301  28.757   6.605 -0.0383 -0.2340 -0.2392
  699BOLB   C3B16763  10.134  29.125   6.478  0.2514  0.2992  0.0048
  699BOLB   C4B16764  10.087  29.240   6.134 -0.0723  0.0874 -0.1087
  699BOLB   NC216765  12.111  31.062   5.961 -0.2561 -0.2794 -0.3020
  699BOLB   PO216766  11.765  30.990   6.204 -0.1231 -0.1046  0.0032
  699BOLB   GL316767  11.942  30.615   6.468  0.2061 -0.1915 -0.1282
  699BOLB   GL416768  12.078  30.695   6.700  0.0168 -0.2972  0.1414
  699BOLB   C1C16769  11.754  30.285   6.568  0.1131  0.0865 -0.0143
  699BOLB   C2C16770  11.488  29.988   6.801  0.2797  0.0150  0.0405
  699BOLB   C3C16771  11.228  29.844   7.082  0.3113 -0.0761  0.1758
  699BOLB   C4C16772  10.775  29.832   7.118  0.4197 -0.0153 -0.0552
  699BOLB   C1D16773  11.927  30.382   7.104  0.1885 -0.0724  0.2295
  699BOLB   C2D16774  12.033  30.069   7.364  0.0626 -0.1351  0.1460
  699BOLB   C3D16775  11.945  29.751   7.623 -0.3123 -0.0909 -0.0925
  699BOLB   C4D16776  11.808  29.283   7.746 -0.0966  0.1565  0.1920
  700BOLB   NC116777   5.615  28.963  10.436 -0.2760  0.1662 -0.0951
  700BOLB   PO116778   6.060  29.110  10.360  0.4883 -0.0931  0.0940
  700BOLB   GL116779   6.136  29.526  10.186 -0.2748  0.2030  0.1831
  700BOLB   GL216780   6.205  29.599   9.881 -0.2520 -0.1189 -0.0341
  700BOLB   C1A16781   6.342  29.775  10.343 -0.0009 -0.0317 -0.1892
  700BOLB   C2A16782   6.628  30.077  10.470  0.2486  0.0485  0.1862
  700BOLB   C3A16783   6.641  30.442  10.838  0.0007  0.1219 -0.3887
  700BOLB   C4A16784   6.864  30.897  10.707  0.0479  0.1010 -0.1135
  700BOLB   C1B16785   6.173  29.976   9.883 -0.0212  0.1341 -0.1824
  700BOLB   C2B16786   6.058  30.405   9.932 -0.0562  0.0885 -0.0392
  700BOLB   C3B16787   5.776  30.693   9.679  0.0116 -0.0549 -0.3050
  700BOLB   C4B16788   5.454  30.860   9.462  0.0525 -0.5246  0.2041
  700BOLB   NC216789   7.287  33.438  10.203 -0.0893 -0.0298  0.1295
  700BOLB   PO216790   6.822  33.282  10.184  0.1257  0.4128  0.0613
  700BOLB   GL316791   6.674  32.941  10.459 -0.1083 -0.4431 -0.0047
  700BOLB   GL416792   6.731  32.958  10.793 -0.0242  0.0239 -0.0347
  700BOLB   C1C16793   6.841  32.482  10.497 -0.0015  0.3447  0.0084
  700BOLB   C2C16794   6.921  32.150  10.260  0.4927  0.2736  0.0770
  700BOLB   C3C16795   6.973  31.708  10.234  0.2334 -0.0060 -0.0887
  700BOLB   C4C16796   7.035  31.277  10.433 -0.3306 -0.0729  0.2974
  700BOLB   C1D16797   6.555  32.484  10.863  0.0733 -0.3860 -0.1166
  700BOLB   C2D16798   6.548  32.139  10.676  0.0253  0.0625  0.0327
  700BOLB   C3D16799   6.493  31.713  10.541 -0.1695  0.1134 -0.0450
  700BOLB   C4D16800   6.139  31.446  10.430 -0.0786  0.2065  0.0627
  701BOLB   NC116801   1.326  19.137  16.893 -0.0312  0.0943  0.1708
  701BOLB   PO116802   1.396  19.017  17.304  0.2029  0.2666  0.2311
  701BOLB   GL116803   1.271  18.891  17.676 -0.1032 -0.0162 -0.4093
  701BOLB   GL216804   1.126  19.053  17.824 -0.0386 -0.1206  0.0041
  701BOLB   C1A16805   1.471  18.748  18.092 -0.0667  0.2798  0.4813
  701BOLB   C2A16806   1.390  18.451  18.362  0.0809 -0.1680 -0.1668
  701BOLB   C3A16807   1.594  18.157  18.639  0.0429  0.2975  0.0805
  701BOLB   C4A16808   1.907  17.905  18.896  0.3475  0.0326  0.1082
  701BOLB   C1B16809   1.119  19.111  18.240  0.2330 -0.1777 -0.2462
  701BOLB   C2B16810   1.158  18.829  18.574  0.3366 -0.1382 -0.1653
  701BOLB   C3B16811   1.002  18.529  18.747 -0.0337  0.2917 -0.3606
  701BOLB   C4B16812   0.888  18.045  18.915  0.0191 -0.3313 -0.0815
  701BOLB   NC216813   2.103  16.681  21.195 -0.0477 -0.2086  0.0899
  701BOLB   PO216814   2.212  16.214  20.881  0.1156  0.0511 -0.0864
  701BOLB   GL316815   2.194  16.505  20.550  0.0012  0.1165  0.0356
  701BOLB   GL416816   2.348  16.740  20.718 -0.2286  0.0191  0.0783
  701BOLB   C1C16817   2.278  16.732  20.145  0.0170  0.0061  0.0100
  701BOLB   C2C16818   2.228  16.964  19.700 -0.2459  0.1786 -0.1415
  701BOLB   C3C16819   1.919  17.185  19.379 -0.1749  0.0897 -0.1722
  701BOLB   C4C16820   1.821  17.550  19.160  0.1902 -0.0049 -0.1630
  701BOLB   C1D16821   2.470  17.070  20.414  0.1717  0.2319  0.0373
  701BOLB   C2D16822   2.371  17.374  19.942 -0.1830 -0.3863 -0.0406
  701BOLB   C3D16823   2.150  17.505  19.608  0.0675 -0.2125 -0.2926
  701BOLB   C4D16824   1.890  17.836  19.572 -0.2366 -0.0837  0.3629
  702BOLB   NC116825  37.492  22.761  12.932 -0.0123  0.3028 -0.0829
  702BOLB   PO116826  37.216  22.756  13.285 -0.1494  0.0553 -0.0306
  702BOLB   GL116827  37.003  22.737  13.689  0.0520  0.0358  0.1254
  702BOLB   GL216828  37.231  22.827  13.954 -0.1321  0.1575 -0.1166
  702BOLB   C1A16829  36.610  22.851  13.848  0.4148 -0.0365 -0.0820
  702BOLB   C2A16830  36.338  22.686  14.258 -0.0693 -0.2010  0.1850
  702BOLB   C3A16831  36.168  22.694  14.675  0.1281 -0.1263 -0.0548
  702BOLB   C4A16832  35.736  22.782  15.016  0.1439 -0.1582 -0.0905
  702BOLB   C1B16833  37.000  22.938  14.168  0.2500  0.2696  0.2437
  702BOLB   C2B16834  36.614  23.136  14.299  0.1357  0.0789 -0.2733
  702BOLB   C3B16835  36.226  23.179  14.284  0.1398 -0.0373 -0.1742
  702BOLB   C4B16836  35.817  23.228  14.570 -0.1266 -0.2340  0.0662
  702BOLB   NC216837  34.405  24.802  16.325 -0.3945  0.1063 -0.0095
  702BOLB   PO216838  34.548  24.309  16.394 -0.1600 -0.0429  0.1391
  702BOLB   GL316839  34.904  24.057  16.369  0.0351 -0.5131  0.0240
  702BOLB   GL416840  34.942  23.694  16.501  0.0243  0.2619  0.0119
  702BOLB   C1C16841  35.344  23.903  16.157  0.0729  0.1063  0.3746
  702BOLB   C2C16842  35.629  23.578  15.885 -0.0493 -0.1418  0.1839
  702BOLB   C3C16843  35.384  23.334  15.575 -0.0235 -0.0950 -0.1409
  702BOLB   C4C16844  35.478  23.120  15.164 -0.4987  0.0884  0.0599
  702BOLB   C1D16845  34.576  23.609  16.248 -0.0581 -0.1182 -0.0434
  702BOLB   C2D16846  34.169  23.365  16.139  0.0946 -0.4461 -0.0168
  702BOLB   C3D16847  33.865  23.169  16.086 -0.0269 -0.0879 -0.1360
  702BOLB   C4D16848  33.560  22.893  16.141 -0.1858 -0.1284 -0.2062
  703BOLB   NC116849   5.887  21.495  23.061  0.1005 -0.1050 -0.0421
  703BOLB   PO116850   5.992  21.246  22.680  0.0621 -0.2513  0.1299
  703BOLB   GL116851   5.894  21.253  22.213 -0.0929 -0.2441 -0.2332
  703BOLB   GL216852   5.679  20.985  22.180  0.1137  0.2934 -0.0035
  703BOLB   C1A16853   6.147  21.124  21.880 -0.1346 -0.0153 -0.1191
  703BOLB   C2A16854   6.392  21.080  21.597  0.0763  0.1101 -0.0205
  703BOLB   C3A16855   6.280  20.910  21.220  0.2633 -0.1553  0.0609
  703BOLB   C4A16856   6.384  20.958  20.772  0.0886  0.0188 -0.0003
  703BOLB   C1B16857   5.618  20.697  21.825  0.0339  0.0036 -0.2584
  703BOLB   C2B16858   5.413  20.628  21.441 -0.1561  0.0277 -0.2180
  703BOLB   C3B16859   5.527  20.605  21.004  0.0707  0.2730 -0.3587
  703BOLB   C4B16860   5.528  20.468  20.573 -0.2400 -0.1335  0.2584
  703BOLB   NC216861   5.968  20.396  18.459 -0.4578  0.1162 -0.2393
  703BOLB   PO216862   6.288  20.625  18.430 -0.1658 -0.0791 -0.1849
  703BOLB   GL316863   6.303  20.531  18.839  0.1332  0.1623 -0.2833
  703BOLB   GL416864   6.357  20.832  18.984  0.2421 -0.2566  0.1445
  703BOLB   C1C16865   6.445  20.437  19.243 -0.2138 -0.3274  0.1702
  703BOLB   C2C16866   6.469  20.413  19.720 -0.1264 -0.0198  0.1459
  703BOLB   C3C16867   6.795  20.535  19.998  0.2597 -0.2525  0.1455
  703BOLB   C4C16868   6.736  20.747  20.475  0.0249 -0.3119 -0.1922
  703BOLB   C1D16869   6.015  20.668  19.309  0.1552 -0.1164  0.2047
  703BOLB   C2D16870   5.839  20.386  19.724  0.2991 -0.0387  0.1264
  703BOLB   C3D16871   5.835  20.258  20.141 -0.1811 -0.2318  0.0985
  703BOLB   C4D16872   5.921  20.219  20.560  0.2520  0.1355 -0.0872
  704BOLB   NC116873  14.221  19.117  12.461  0.3932  0.2333 -0.1228
  704BOLB   PO116874  14.063  19.462  12.575 -0.1230 -0.0012  0.1386
  704BOLB   GL116875  14.307  19.188  12.988 -0.2622  0.2933 -0.1658
  704BOLB   GL216876  14.514  19.336  13.214 -0.0819  0.3531 -0.1534
  704BOLB   C1A16877  14.716  18.865  12.985  0.2331  0.0224  0.0452
  704BOLB   C2A16878  14.976  18.678  13.247 -0.0933  0.1925 -0.2088
  704BOLB   C3A16879  14.843  18.276  13.545 -0.2379  0.0183  0.0227
  704BOLB   C4A16880  15.064  18.004  13.759  0.0366  0.0311  0.0211
  704BOLB   C1B16881  14.721  18.976  13.510 -0.3989  0.1161  0.0153
  704BOLB   C2B16882  15.144  18.861  13.705  0.3065 -0.1553 -0.0119
  704BOLB   C3B16883  15.546  18.802  14.070 -0.1413  0.2058 -0.1395
  704BOLB   C4B16884  15.520  18.528  14.336  0.2657  0.0873 -0.0929
  704BOLB   NC216885  17.049  17.755  14.408  0.2651  0.2688  0.0209
  704BOLB   PO216886  17.035  17.446  14.292 -0.3043  0.0338  0.0420
  704BOLB   GL316887  16.778  17.596  13.957  0.2354  0.1550  0.1468
  704BOLB   GL416888  16.654  17.421  13.782 -0.0431 -0.1179  0.1656
  704BOLB   C1C16889  16.343  17.799  13.943 -0.2437 -0.1769 -0.0160
  704BOLB   C2C16890  16.010  17.932  14.211 -0.0986  0.1120  0.0033
  704BOLB   C3C16891  15.652  17.957  14.114  0.3745 -0.4070 -0.1097
  704BOLB   C4C16892  15.286  17.875  13.991  0.2033 -0.0072 -0.1429
  704BOLB   C1D16893  16.559  17.752  13.505 -0.3887 -0.1967  0.1416
  704BOLB   C2D16894  16.162  18.108  13.618 -0.2899  0.2153 -0.1641
  704BOLB   C3D16895  15.761  17.895  13.528  0.1240  0.0796 -0.2245
  704BOLB   C4D16896  15.404  17.851  13.339  0.4095 -0.1737 -0.1676
  705BOLB   NC116897   0.928  25.325   8.303 -0.0672 -0.2375 -0.3397
  705BOLB   PO116898   0.541  25.530   8.235  0.1791  0.0874 -0.0239
  705BOLB   GL116899   0.353  25.955   8.128  0.2362 -0.0544 -0.0006
  705BOLB   GL216900   0.511  26.333   8.102 -0.2055  0.0257 -0.0384
  705BOLB   C1A16901  -0.026  26.208   8.132  0.0558  0.1679  0.0326
  705BOLB   C2A16902  -0.043  26.383   7.708 -0.1839 -0.0352  0.2822
  705BOLB   C3A16903  -0.252  26.794   7.464 -0.2227 -0.0389 -0.1173
  705BOLB   C4A16904  -0.359  27.165   7.254 -0.0713  0.3291  0.3473
  705BOLB   C1B16905   0.179  26.630   8.042 -0.3235 -0.1117  0.0063
  705BOLB   C2B16906  -0.269  26.790   7.966 -0.0334 -0.0996 -0.0605
  705BOLB   C3B16907  -0.523  27.063   8.117 -0.1548 -0.0665  0.1234
  705BOLB   C4B16908  -0.505  27.045   8.595  0.0178  0.2711  0.2598
  705BOLB   NC216909  -2.051  27.980   5.546  0.3373 -0.0567  0.1540
  705BOLB   PO216910  -1.665  27.838   5.418  0.1417 -0.0934  0.0603
  705BOLB   GL316911  -1.598  27.458   5.491  0.3574  0.0204 -0.0036
  705BOLB   GL416912  -1.294  27.478   5.409  0.1859 -0.2191  0.4068
  705BOLB   C1C16913  -1.523  27.273   5.866 -0.1837 -0.1060  0.2351
  705BOLB   C2C16914  -1.222  27.068   6.093  0.2774 -0.2190  0.1662
  705BOLB   C3C16915  -0.899  27.158   6.510  0.0619 -0.2173 -0.3369
  705BOLB   C4C16916  -0.698  27.261   6.899  0.2006 -0.2026  0.2222
  705BOLB   C1D16917  -1.050  27.482   5.847  0.3407 -0.1234 -0.1781
  705BOLB   C2D16918  -1.221  27.547   6.249  0.0074  0.0969 -0.0487
  705BOLB   C3D16919  -1.627  27.587   6.375 -0.1301  0.0404  0.1641
  705BOLB   C4D16920  -2.074  27.437   6.375 -0.0122  0.2460  0.0096
  706BOLB   NC116921   5.140  25.378  17.495  0.0701  0.0376  0.3309
  706BOLB   PO116922   5.002  24.991  17.580  0.0943  0.1575  0.2846
  706BOLB   GL116923   4.772  25.220  17.795 -0.3346 -0.1600  0.0229
  706BOLB   GL216924   4.697  25.026  18.084  0.4731  0.1303 -0.4508
  706BOLB   C1A16925   4.643  25.502  18.125 -0.0488 -0.0309 -0.1052
  706BOLB   C2A16926   4.544  25.431  18.508 -0.1373 -0.2394 -0.0107
  706BOLB   C3A16927   4.447  25.872  18.816  0.1525  0.0516 -0.3736
  706BOLB   C4A16928   4.370  26.014  19.134  0.1465 -0.1065 -0.0662
  706BOLB   C1B16929   4.738  25.014  18.442  0.1027 -0.0520  0.0608
  706BOLB   C2B16930   4.680  24.751  18.869  0.2108  0.0268  0.1777
  706BOLB   C3B16931   4.482  24.794  19.257 -0.2735  0.0696  0.0743
  706BOLB   C4B16932   4.280  24.999  19.478 -0.1700 -0.1702  0.1617
  706BOLB   NC216933   3.464  28.507  20.005 -0.0706  0.0190 -0.2323
  706BOLB   PO216934   3.602  28.094  20.178 -0.0076  0.2990  0.0659
  706BOLB   GL316935   3.659  27.608  20.046  0.1637 -0.0700  0.1297
  706BOLB   GL416936   3.874  27.435  19.955 -0.1568 -0.1185  0.0417
  706BOLB   C1C16937   3.477  27.264  19.672 -0.0160 -0.0585  0.0524
  706BOLB   C2C16938   3.515  26.907  19.362  0.0945  0.1077  0.4572
  706BOLB   C3C16939   3.739  26.679  19.137  0.0490 -0.0957 -0.1323
  706BOLB   C4C16940   4.156  26.372  19.171 -0.1147 -0.2191 -0.0156
  706BOLB   C1D16941   3.940  27.050  19.863 -0.2594 -0.0369  0.2207
  706BOLB   C2D16942   3.916  26.686  19.607  0.0372  0.1265 -0.0844
  706BOLB   C3D16943   3.927  26.292  19.741 -0.2465 -0.0757  0.0891
  706BOLB   C4D16944   4.058  25.923  19.952  0.1619 -0.1398  0.4271
  707BOLB   NC116945   7.020  27.801  15.410 -0.0665  0.3692  0.1031
  707BOLB   PO116946   6.711  27.604  15.163 -0.3269 -0.2968 -0.1604
  707BOLB   GL116947   6.693  28.123  15.289 -0.0791 -0.4838  0.3957
  707BOLB   GL216948   7.003  28.244  15.108 -0.0362  0.0597  0.1714
  707BOLB   C1A16949   6.605  28.378  15.668 -0.3819 -0.2797  0.1259
  707BOLB   C2A16950   6.414  28.649  15.999  0.3582 -0.1307 -0.0658
  707BOLB   C3A16951   6.419  28.970  16.298 -0.2416 -0.1290 -0.1726
  707BOLB   C4A16952   6.220  29.454  16.337 -0.0686  0.0610 -0.0597
  707BOLB   C1B16953   7.046  28.639  15.411  0.1320 -0.1077  0.0425
  707BOLB   C2B16954   7.301  28.986  15.628 -0.2247 -0.1056 -0.0842
  707BOLB   C3B16955   7.366  29.101  16.005 -0.1449  0.0354  0.0016
  707BOLB   C4B16956   7.737  29.157  15.915 -0.1662 -0.0010 -0.1419
  707BOLB   NC216957   5.000  31.245  17.492  0.1649  0.1592 -0.1558
  707BOLB   PO216958   4.862  31.009  17.095 -0.2084  0.2222 -0.3282
  707BOLB   GL316959   4.926  30.828  16.810  0.0764 -0.3076  0.1985
  707BOLB   GL416960   5.245  30.788  16.871 -0.1404 -0.1619  0.1710
  707BOLB   C1C16961   4.995  30.391  16.691  0.0786 -0.0937  0.2569
  707BOLB   C2C16962   5.174  29.991  16.599 -0.0244  0.0024 -0.1441
  707BOLB   C3C16963   5.568  29.841  16.553 -0.0083  0.1925  0.1282
  707BOLB   C4C16964   5.969  29.726  16.608  0.2756  0.1482 -0.0168
  707BOLB   C1D16965   5.427  30.566  16.486  0.0758  0.1570 -0.1315
  707BOLB   C2D16966   5.525  30.308  16.123 -0.0564 -0.0307  0.1422
  707BOLB   C3D16967   5.753  29.925  16.022  0.0161  0.1964  0.0494
  707BOLB   C4D16968   5.784  29.545  16.102 -0.0254 -0.1328 -0.0930
  708BOLB   NC116969   2.649  26.020   5.452  0.0440 -0.4517  0.1218
  708BOLB   PO116970   2.669  25.830   5.115 -0.1786  0.0943  0.1936
  708BOLB   GL116971   2.312  26.098   5.119  0.3336 -0.0186  0.2030
  708BOLB   GL216972   2.266  26.349   5.248  0.0142  0.0946  0.1207
  708BOLB   C1A16973   2.103  26.299   4.731 -0.1086 -0.0198  0.0965
  708BOLB   C2A16974   1.848  26.352   4.426 -0.0846 -0.1613  0.0954
  708BOLB   C3A16975   1.779  26.615   4.103  0.0787  0.1762  0.3202
  708BOLB   C4A16976   1.424  26.505   3.803  0.0270  0.1841  0.2959
  708BOLB   C1B16977   2.380  26.726   5.303 -0.2485 -0.0167 -0.3138
  708BOLB   C2B16978   2.373  27.159   5.239  0.2728 -0.2565 -0.0677
  708BOLB   C3B16979   2.376  27.561   5.113  0.1303  0.2235 -0.0761
  708BOLB   C4B16980   2.237  27.972   4.979  0.2171 -0.5890  0.1632
  708BOLB   NC216981   0.778  28.262   2.888 -0.1019 -0.0317 -0.1450
  708BOLB   PO216982   1.015  28.054   2.506  0.0462  0.0261  0.0840
  708BOLB   GL316983   1.169  27.575   2.511  0.3154 -0.1141 -0.1056
  708BOLB   GL416984   1.360  27.579   2.823 -0.0647  0.3033 -0.3036
  708BOLB   C1C16985   1.145  27.125   2.502 -0.0140 -0.2017  0.1799
  708BOLB   C2C16986   1.194  26.736   2.806  0.0162 -0.0649  0.1155
  708BOLB   C3C16987   1.173  26.441   3.171  0.0890 -0.0874  0.2660
  708BOLB   C4C16988   1.148  26.521   3.583  0.2883  0.0345  0.1433
  708BOLB   C1D16989   1.176  27.264   3.014 -0.0110  0.0265 -0.0140
  708BOLB   C2D16990   1.034  26.936   3.270 -0.2142  0.3842  0.4206
  708BOLB   C3D16991   0.707  26.887   3.578 -0.1084 -0.0041  0.0550
  708BOLB   C4D16992   0.664  26.969   3.951 -0.1572  0.1496 -0.2298
  709BOLB   NC116993  11.219  28.019  10.617 -0.3203 -0.1883 -0.4697
  709BOLB   PO116994  11.318  27.995  11.007 -0.0870 -0.2249 -0.1534
  709BOLB   GL116995  11.566  28.327  11.023  0.0808  0.0886  0.0910
  709BOLB   GL216996  11.531  28.482  10.721  0.1315 -0.0031  0.0476
  709BOLB   C1A16997  11.878  28.574  11.273  0.1434 -0.2745 -0.0597
  709BOLB   C2A16998  12.080  28.922  11.342 -0.0981  0.0411 -0.3272
  709BOLB   C3A16999  12.226  29.291  11.262  0.0665 -0.0613 -0.1086
  709BOLB   C4A17000  12.619  29.427  11.488  0.6184 -0.2463  0.1499
  709BOLB   C1B17001  11.940  28.774  10.820 -0.0903 -0.1163  0.1171
  709BOLB   C2B17002  12.373  28.926  10.798  0.0229  0.1271 -0.0481
  709BOLB   C3B17003  12.705  29.268  10.950 -0.1768 -0.2229 -0.1068
  709BOLB   C4B17004  13.056  29.577  11.082 -0.1201 -0.0624 -0.0102
  709BOLB   NC217005  13.827  30.863  11.382  0.1752 -0.1227  0.1809
  709BOLB   PO217006  14.056  30.967  11.117  0.1268  0.2415  0.1930
  709BOLB   GL317007  14.246  30.519  11.211  0.3708  0.0504  0.1465
  709BOLB   GL417008  14.252  30.334  11.559  0.3711  0.0944 -0.2092
  709BOLB   C1C17009  13.995  30.046  11.241 -0.3125  0.0708  0.0853
  709BOLB   C2C17010  13.689  29.843  11.408  0.0790  0.1340  0.1738
  709BOLB   C3C17011  13.349  29.655  11.589  0.1419  0.1285  0.1418
  709BOLB   C4C17012  12.985  29.480  11.600  0.2860 -0.0720 -0.5239
  709BOLB   C1D17013  14.206  29.846  11.711  0.1745  0.3173 -0.1851
  709BOLB   C2D17014  14.467  29.528  11.940  0.0724 -0.0790 -0.1780
  709BOLB   C3D17015  14.535  29.026  11.936 -0.1639  0.2548 -0.2407
  709BOLB   C4D17016  14.732  28.942  12.101 -0.2718 -0.0020  0.1892
  710BOLB   NC117017   3.947   8.633   4.527  0.2480  0.1610 -0.1968
  710BOLB   PO117018   4.033   8.214   4.729 -0.1182 -0.0230  0.1470
  710BOLB   GL117019   4.045   8.563   5.033  0.0548  0.1606 -0.0730
  710BOLB   GL217020   3.832   8.807   5.008 -0.1084 -0.0758 -0.1667
  710BOLB   C1A17021   4.028   8.628   5.481 -0.2034 -0.1252 -0.0978
  710BOLB   C2A17022   3.698   8.478   5.761 -0.0049 -0.1166 -0.1137
  710BOLB   C3A17023   3.547   8.438   6.196 -0.2566 -0.3382 -0.1608
  710BOLB   C4A17024   3.117   8.395   6.501 -0.1731 -0.0078 -0.0244
  710BOLB   C1B17025   3.620   9.172   5.324 -0.0421  0.4756 -0.2567
  710BOLB   C2B17026   3.612   9.549   5.439  0.1528  0.0919  0.2933
  710BOLB   C3B17027   3.949   9.715   5.556 -0.0294 -0.0333 -0.2237
  710BOLB   C4B17028   4.017   9.854   5.980 -0.1376  0.2207  0.1203
  710BOLB   NC217029   3.146   7.442   7.287  0.1761 -0.2111  0.2454
  710BOLB   PO217030   2.735   7.213   7.360 -0.1895 -0.2232  0.1384
  710BOLB   GL317031   2.655   7.603   7.381 -0.0308 -0.0891 -0.1631
  710BOLB   GL417032   2.836   7.833   7.583  0.0345  0.2090 -0.0761
  710BOLB   C1C17033   2.290   7.779   7.456  0.2855 -0.1184  0.4144
  710BOLB   C2C17034   2.331   8.183   7.356  0.1273 -0.3633  0.0229
  710BOLB   C3C17035   2.573   8.412   7.084 -0.2240 -0.1457  0.0979
  710BOLB   C4C17036   2.913   8.614   6.755  0.0019  0.0776 -0.2013
  710BOLB   C1D17037   2.500   7.933   7.872  0.1932  0.1024  0.2166
  710BOLB   C2D17038   2.323   8.143   8.179  0.2607 -0.1077  0.0947
  710BOLB   C3D17039   2.098   8.548   8.424 -0.3661 -0.0104  0.1875
  710BOLB   C4D17040   1.841   8.758   8.681 -0.0253 -0.2340  0.0540
  711BOLB   NC117041   0.460  26.205   9.096  0.1453  0.1550  0.2071
  711BOLB   PO117042   0.540  26.092   8.589  0.1355 -0.1490  0.3014
  711BOLB   GL117043   0.193  26.358   8.632  0.1574 -0.3345  0.0467
  711BOLB   GL217044   0.377  26.643   8.616  0.0177  0.1081  0.4297
  711BOLB   C1A17045  -0.146  26.535   8.449  0.1007 -0.3154  0.0569
  711BOLB   C2A17046  -0.620  26.644   8.300 -0.1962  0.3767 -0.1120
  711BOLB   C3A17047  -0.975  26.884   8.151 -0.1127 -0.2728  0.2262
  711BOLB   C4A17048  -1.133  27.110   7.864  0.0613  0.1055 -0.2580
  711BOLB   C1B17049  -0.033  26.898   8.716  0.1425  0.0772  0.0412
  711BOLB   C2B17050  -0.056  27.398   8.474 -0.2534  0.2315  0.0797
  711BOLB   C3B17051  -0.348  27.529   8.134  0.2476  0.0064 -0.1673
  711BOLB   C4B17052  -0.811  27.489   7.976  0.2291 -0.2252 -0.0607
  711BOLB   NC217053  -1.714  29.429   7.193 -0.1333  0.3906  0.1472
  711BOLB   PO217054  -1.424  29.594   7.231  0.0559 -0.1189 -0.0794
  711BOLB   GL317055  -1.355  29.229   7.463 -0.0858 -0.0973 -0.2464
  711BOLB   GL417056  -1.216  29.314   7.709  0.0486  0.0215  0.2676
  711BOLB   C1C17057  -1.320  28.823   7.395  0.3663 -0.1073 -0.0381
  711BOLB   C2C17058  -1.190  28.394   7.577  0.1954  0.1131  0.3409
  711BOLB   C3C17059  -1.291  28.020   7.683 -0.2531  0.2575  0.1190
  711BOLB   C4C17060  -1.229  27.527   7.764 -0.0545  0.0432  0.1639
  711BOLB   C1D17061  -1.014  28.820   7.803  0.0973  0.0333 -0.0654
  711BOLB   C2D17062  -0.830  28.517   8.126 -0.1531  0.0118  0.2738
  711BOLB   C3D17063  -0.718  28.138   8.402  0.2847 -0.0926 -0.0586
  711BOLB   C4D17064  -0.581  27.689   8.521  0.1972  0.1651 -0.0902
  712BOLB   NC117065  36.440   7.034  13.406 -0.1447  0.2051 -0.1187
  712BOLB   PO117066  36.767   7.041  13.132  0.0148  0.0627 -0.0956
  712BOLB   GL117067  36.913   7.441  13.037  0.0985  0.2754  0.0772
  712BOLB   GL217068  37.114   7.439  12.787 -0.1067 -0.2458 -0.2310
  712BOLB   C1A17069  37.091   7.732  13.193 -0.1743 -0.1689 -0.0629
  712BOLB   C2A17070  37.573   7.749  13.155 -0.2845  0.3370 -0.2892
  712BOLB   C3A17071  37.909   8.059  13.047  0.1825  0.0537 -0.0245
  712BOLB   C4A17072  38.026   7.947  12.769 -0.0630  0.0403 -0.0471
  712BOLB   C1B17073  37.292   7.712  12.694 -0.1773  0.1964 -0.0229
  712BOLB   C2B17074  37.405   8.161  12.604 -0.0287  0.1573 -0.0757
  712BOLB   C3B17075  37.810   8.356  12.578  0.2820  0.0082  0.0607
  712BOLB   C4B17076  38.323   8.361  12.577  0.0653  0.0595 -0.3236
  712BOLB   NC217077  37.267   7.040  13.129  0.2989 -0.3478 -0.1866
  712BOLB   PO217078  37.685   6.784  12.996 -0.0190  0.1753  0.2412
  712BOLB   GL317079  37.609   7.026  12.674 -0.1161  0.0820  0.1252
  712BOLB   GL417080  37.566   7.286  12.795 -0.2337 -0.2830 -0.0831
  712BOLB   C1C17081  37.310   7.177  12.349 -0.2347 -0.1430  0.0778
  712BOLB   C2C17082  37.401   7.537  12.111 -0.0505 -0.0654  0.0999
  712BOLB   C3C17083  37.667   7.923  12.178 -0.1553 -0.2362  0.1493
  712BOLB   C4C17084  38.014   7.948  12.351  0.1219 -0.0321 -0.4291
  712BOLB   C1D17085  37.788   7.547  12.614  0.0555 -0.2000 -0.1808
  712BOLB   C2D17086  37.935   7.491  12.174  0.0233  0.1057 -0.3432
  712BOLB   C3D17087  38.003   7.351  11.770 -0.1726 -0.1944  0.4888
  712BOLB   C4D17088  38.043   7.583  11.415 -0.5645  0.0098 -0.1199
  713BOLB   NC117089  12.663  20.714  21.176  0.0121  0.0765 -0.3357
  713BOLB   PO117090  12.408  20.984  21.349  0.0986 -0.1444 -0.1112
  713BOLB   GL117091  12.085  20.946  20.941 -0.1493 -0.2148 -0.0455
  713BOLB   GL217092  12.316  20.778  20.771 -0.3416 -0.0847 -0.0850
  713BOLB   C1A17093  11.795  20.961  20.577  0.2241  0.1030 -0.1642
  713BOLB   C2A17094  11.640  20.974  20.231 -0.1513 -0.0606  0.2530
  713BOLB   C3A17095  11.486  20.782  19.897 -0.0446 -0.2498  0.1108
  713BOLB   C4A17096  11.474  20.805  19.458  0.1374  0.0788 -0.0688
  713BOLB   C1B17097  12.074  20.583  20.449  0.0989 -0.1078  0.0269
  713BOLB   C2B17098  12.024  20.738  19.938 -0.0102  0.2582 -0.2805
  713BOLB   C3B17099  12.121  20.481  19.620 -0.4550  0.1112  0.2107
  713BOLB   C4B17100  12.507  20.428  19.386 -0.1345 -0.2613 -0.1342
  713BOLB   NC217101  12.856  21.161  21.429 -0.0564  0.1021 -0.1033
  713BOLB   PO217102  12.539  21.430  21.154 -0.0611 -0.0877  0.1560
  713BOLB   GL317103  12.502  21.309  20.745  0.0334 -0.0311  0.3985
  713BOLB   GL417104  12.690  21.301  20.474 -0.0534  0.1413  0.1138
  713BOLB   C1C17105  12.155  21.294  20.618 -0.1855 -0.2360  0.0553
  713BOLB   C2C17106  12.189  21.199  20.184 -0.2334 -0.1576 -0.2061
  713BOLB   C3C17107  12.189  21.195  19.771 -0.4085 -0.2349 -0.1675
  713BOLB   C4C17108  11.914  20.927  19.509  0.0831 -0.0816  0.2648
  713BOLB   C1D17109  12.617  21.378  19.998  0.2915  0.2511  0.1449
  713BOLB   C2D17110  12.647  21.330  19.454  0.1925 -0.1737  0.2503
  713BOLB   C3D17111  12.749  21.345  19.124 -0.3764 -0.0197  0.2354
  713BOLB   C4D17112  12.944  21.276  18.717  0.2670  0.1293 -0.0965
  714BOLB   NC117113  30.789  12.917  10.277  0.2569 -0.1990  0.5809
  714BOLB   PO117114  31.163  12.848  10.511 -0.0417  0.1167  0.2196
  714BOLB   GL117115  31.551  13.059  10.649  0.0336  0.2513  0.1751
  714BOLB   GL217116  31.789  13.027  10.372 -0.0289 -0.0409 -0.1097
  714BOLB   C1A17117  31.919  13.351  10.707  0.2708  0.0284  0.0789
  714BOLB   C2A17118  32.277  13.601  10.564  0.0712 -0.1982  0.0434
  714BOLB   C3A17119  32.522  13.813  10.171  0.0437 -0.0941  0.1042
  714BOLB   C4A17120  32.645  14.174   9.895 -0.0937 -0.1204 -0.1763
  714BOLB   C1B17121  32.273  13.114  10.369  0.0029 -0.4552  0.0036
  714BOLB   C2B17122  32.671  13.200  10.465  0.0568 -0.0203  0.0925
  714BOLB   C3B17123  33.025  13.176  10.670 -0.1844  0.0523 -0.0439
  714BOLB   C4B17124  33.161  13.066  11.075  0.2109  0.2702 -0.2969
  714BOLB   NC217125  30.706  15.116   9.797  0.0334  0.1274  0.0768
  714BOLB   PO217126  31.003  14.727   9.620 -0.0067 -0.0522  0.1691
  714BOLB   GL317127  31.145  15.128   9.524  0.0115  0.0889  0.1859
  714BOLB   GL417128  31.212  15.365   9.625  0.2532  0.4556  0.0587
  714BOLB   C1C17129  31.448  15.263   9.191  0.4444 -0.1791 -0.3510
  714BOLB   C2C17130  31.894  15.145   9.223  0.1348  0.0895  0.0274
  714BOLB   C3C17131  32.140  14.904   9.555  0.1089 -0.2099  0.0255
  714BOLB   C4C17132  32.557  14.586   9.690  0.2168  0.1957 -0.0626
  714BOLB   C1D17133  31.404  15.715   9.783 -0.0475  0.1073  0.0194
  714BOLB   C2D17134  31.737  15.919   9.713  0.1080  0.2646 -0.1122
  714BOLB   C3D17135  31.977  16.197   9.945  0.1068 -0.0587 -0.2660
  714BOLB   C4D17136  32.284  16.275  10.295  0.2030  0.3470 -0.2402
  715BOLB   NC117137   1.161   7.000   5.002  0.2299 -0.0645  0.1971
  715BOLB   PO117138   0.675   7.286   4.859 -0.0672  0.1419  0.0499
  715BOLB   GL117139   0.591   7.723   4.966  0.1681 -0.1008  0.1091
  715BOLB   GL217140   0.791   7.851   4.820 -0.0451 -0.2567  0.1114
  715BOLB   C1A17141   0.440   8.205   5.127 -0.0910  0.0819  0.0756
  715BOLB   C2A17142   0.444   8.501   5.459  0.0390 -0.1347 -0.0822
  715BOLB   C3A17143   0.613   8.827   5.632 -0.1190  0.0187  0.0506
  715BOLB   C4A17144   0.818   8.942   5.957 -0.0794  0.2892  0.1239
  715BOLB   C1B17145   0.552   8.258   4.586  0.1402 -0.2210 -0.1373
  715BOLB   C2B17146   0.488   8.620   4.747 -0.4050  0.1206 -0.0339
  715BOLB   C3B17147   0.133   8.929   4.761  0.0697  0.2182  0.0174
  715BOLB   C4B17148  -0.170   9.082   5.025 -0.1991 -0.1448 -0.1200
  715BOLB   NC217149   2.484   6.836   6.321 -0.1692 -0.1338  0.0194
  715BOLB   PO217150   2.327   7.248   6.174 -0.0577  0.1972  0.0662
  715BOLB   GL317151   2.148   7.694   6.026 -0.0975  0.1394 -0.1276
  715BOLB   GL417152   2.307   7.881   5.738  0.1098 -0.2628  0.1318
  715BOLB   C1C17153   1.918   8.100   6.239  0.0242  0.1104 -0.2149
  715BOLB   C2C17154   1.807   8.592   6.156  0.0617 -0.0264 -0.0895
  715BOLB   C3C17155   1.514   8.996   6.221  0.3514 -0.4830  0.2147
  715BOLB   C4C17156   1.084   8.995   6.232  0.0063  0.0139  0.3519
  715BOLB   C1D17157   2.094   8.216   5.808  0.0458 -0.1414 -0.0428
  715BOLB   C2D17158   1.865   8.513   5.664 -0.1425 -0.0420 -0.1808
  715BOLB   C3D17159   1.617   8.951   5.496 -0.1640 -0.0838 -0.0288
  715BOLB   C4D17160   1.641   9.280   5.759  0.0426 -0.1341  0.1264
  716BOLB   NC117161  14.771  21.625  13.110  0.2069  0.1368  0.3504
  716BOLB   PO117162  14.801  21.233  13.197 -0.3011  0.0357  0.1999
  716BOLB   GL117163  15.229  21.354  13.096  0.0081 -0.1941  0.1048
  716BOLB   GL217164  15.325  21.358  12.783 -0.3453 -0.0862 -0.1400
  716BOLB   C1A17165  15.675  21.226  13.173 -0.1491  0.1135  0.1652
  716BOLB   C2A17166  16.082  21.003  13.129 -0.0058  0.1780 -0.4370
  716BOLB   C3A17167  16.467  21.245  12.903 -0.2536  0.2198  0.0198
  716BOLB   C4A17168  16.678  21.568  12.691  0.2946  0.3477  0.1235
  716BOLB   C1B17169  15.524  20.933  12.814  0.1967  0.0359  0.1220
  716BOLB   C2B17170  15.803  20.606  12.909 -0.1111  0.1740 -0.3016
  716BOLB   C3B17171  16.035  20.410  13.307 -0.1576  0.1455 -0.0461
  716BOLB   C4B17172  16.270  20.049  13.405  0.0386  0.0238  0.1047
  716BOLB   NC217173  19.614  21.410  11.783  0.3582  0.3100 -0.0906
  716BOLB   PO217174  19.325  21.484  12.158  0.3636  0.1307 -0.1265
  716BOLB   GL317175  18.837  21.590  12.164 -0.2455 -0.0696 -0.1156
  716BOLB   GL417176  18.651  21.419  11.882 -0.3275 -0.0078 -0.1145
  716BOLB   C1C17177  18.467  21.560  12.440  0.1846 -0.0650  0.1226
  716BOLB   C2C17178  17.975  21.523  12.494 -0.0134 -0.1101  0.3162
  716BOLB   C3C17179  17.517  21.533  12.613  0.3093  0.3062  0.2421
  716BOLB   C4C17180  17.121  21.633  12.547 -0.1169  0.0293  0.0718
  716BOLB   C1D17181  18.550  21.628  11.591 -0.0197  0.3932  0.0573
  716BOLB   C2D17182  18.319  22.005  11.474 -0.2048  0.2730  0.2617
  716BOLB   C3D17183  17.882  22.154  11.449 -0.0281 -0.0173  0.2371
  716BOLB   C4D17184  17.516  22.430  11.297  0.0499 -0.1786 -0.0932
  717BOLB   NC117185  32.673  12.269  16.338 -0.1991  0.1628 -0.1531
  717BOLB   PO117186  32.683  12.474  15.893 -0.0528 -0.1738 -0.0340
  717BOLB   GL117187  33.033  12.502  15.585 -0.0994  0.1903 -0.2375
  717BOLB   GL217188  33.122  12.225  15.359 -0.3150 -0.0396 -0.0167
  717BOLB   C1A17189  33.386  12.868  15.509  0.0915  0.0394  0.1927
  717BOLB   C2A17190  33.600  13.109  15.204 -0.0641  0.0358  0.0425
  717BOLB   C3A17191  33.781  13.239  14.856 -0.2957  0.0754  0.3137
  717BOLB   C4A17192  34.050  13.058  14.510 -0.0130 -0.1514  0.1791
  717BOLB   C1B17193  33.319  12.511  15.141 -0.0440  0.1244 -0.2249
  717BOLB   C2B17194  33.400  12.840  14.816  0.3405 -0.1733  0.0517
  717BOLB   C3B17195  33.531  13.041  14.409  0.0696 -0.4243 -0.1001
  717BOLB   C4B17196  33.713  13.324  14.147  0.0506 -0.0110  0.0676
  717BOLB   NC217197  33.176  10.532  14.203  0.0902  0.0053  0.1291
  717BOLB   PO217198  33.603  10.691  14.446 -0.2425  0.2066  0.2060
  717BOLB   GL317199  33.730  11.075  14.328  0.0842 -0.1045  0.2059
  717BOLB   GL417200  34.130  10.930  14.305 -0.2413  0.0102  0.1365
  717BOLB   C1C17201  33.959  11.492  14.262 -0.1621 -0.1722 -0.0849
  717BOLB   C2C17202  34.183  11.922  14.235 -0.2319  0.1389 -0.0599
  717BOLB   C3C17203  34.226  12.335  14.292  0.2060  0.2783 -0.0996
  717BOLB   C4C17204  34.322  12.728  14.244 -0.1770  0.0225  0.2996
  717BOLB   C1D17205  34.394  10.647  14.053  0.1216 -0.2404  0.0171
  717BOLB   C2D17206  34.707  10.769  13.787  0.1780  0.0609  0.1076
  717BOLB   C3D17207  34.968  11.005  13.608 -0.0783 -0.0192 -0.3687
  717BOLB   C4D17208  35.160  11.408  13.235 -0.0422 -0.0569 -0.3336
  718BOLB   NC117209   4.929  18.716  17.539 -0.0053 -0.0648  0.1354
  718BOLB   PO117210   4.771  18.782  17.821 -0.1664 -0.2286  0.0588
  718BOLB   GL117211   4.536  18.634  18.144  0.1549 -0.4190  0.1508
  718BOLB   GL217212   4.766  18.489  18.342 -0.2601 -0.2088  0.2012
  718BOLB   C1A17213   4.519  18.890  18.631  0.1627  0.2081  0.0325
  718BOLB   C2A17214   4.399  18.895  19.034 -0.1674 -0.0206  0.2094
  718BOLB   C3A17215   4.415  19.035  19.425 -0.3531  0.3677  0.3099
  718BOLB   C4A17216   4.473  18.669  19.715 -0.0475 -0.0050  0.0196
  718BOLB   C1B17217   4.436  18.385  18.629  0.1894  0.0236 -0.2778
  718BOLB   C2B17218   4.429  18.320  19.043 -0.1579  0.0474  0.0406
  718BOLB   C3B17219   4.173  18.053  19.166 -0.2162  0.5051 -0.1356
  718BOLB   C4B17220   3.933  17.658  19.183 -0.0981 -0.1371 -0.2178
  718BOLB   NC217221   4.676  17.974  21.915 -0.1285 -0.0544  0.0510
  718BOLB   PO217222   4.818  17.615  21.848 -0.2390  0.0365 -0.0563
  718BOLB   GL317223   4.968  17.622  21.530 -0.0896 -0.1883 -0.0770
  718BOLB   GL417224   5.261  17.412  21.651 -0.0406  0.1719 -0.0481
  718BOLB   C1C17225   4.742  17.656  21.110  0.0120  0.1591 -0.1618
  718BOLB   C2C17226   4.644  17.944  20.757  0.0109 -0.1021  0.1106
  718BOLB   C3C17227   4.729  18.389  20.554 -0.0933 -0.2627  0.0151
  718BOLB   C4C17228   4.527  18.600  20.178 -0.0447 -0.1442  0.1090
  718BOLB   C1D17229   5.409  17.453  21.172 -0.0319  0.1980  0.0698
  718BOLB   C2D17230   5.461  17.513  20.748 -0.0563 -0.1786  0.0127
  718BOLB   C3D17231   5.324  17.575  20.386 -0.3560 -0.1368  0.0276
  718BOLB   C4D17232   5.450  17.877  20.009  0.2292  0.0445 -0.0823
  719BOLB   NC117233   1.022  21.291  21.757 -0.1521 -0.3566 -0.0447
  719BOLB   PO117234   0.802  21.664  21.617  0.0221  0.0724  0.0352
  719BOLB   GL117235   0.866  21.607  21.198  0.3484  0.0099  0.1627
  719BOLB   GL217236   1.182  21.670  21.085 -0.2624  0.0215 -0.0332
  719BOLB   C1A17237   1.012  21.178  20.930 -0.4008 -0.1820 -0.1295
  719BOLB   C2A17238   1.092  20.813  20.674  0.1457 -0.0230  0.1359
  719BOLB   C3A17239   1.081  20.467  20.504 -0.0291  0.0194  0.2320
  719BOLB   C4A17240   1.382  20.094  20.191 -0.1758  0.1495  0.4001
  719BOLB   C1B17241   1.510  21.489  20.938 -0.1462 -0.2640  0.0006
  719BOLB   C2B17242   1.572  21.196  20.726 -0.1895  0.1200  0.0257
  719BOLB   C3B17243   1.549  20.847  20.657 -0.1483  0.3641 -0.0339
  719BOLB   C4B17244   1.588  20.370  20.537 -0.1291  0.1818  0.1387
  719BOLB   NC217245   1.731  20.075  22.546 -0.0321  0.3910 -0.3195
  719BOLB   PO217246   2.010  20.169  22.182  0.0700 -0.0833 -0.4531
  719BOLB   GL317247   2.031  20.231  21.770  0.3279 -0.2889  0.0770
  719BOLB   GL417248   2.180  20.512  21.687  0.0237  0.3797  0.0625
  719BOLB   C1C17249   1.948  20.134  21.324 -0.0310 -0.4640 -0.3786
  719BOLB   C2C17250   2.019  19.741  21.119 -0.0843  0.1374  0.3189
  719BOLB   C3C17251   1.825  19.549  20.762  0.3719 -0.1748 -0.1025
  719BOLB   C4C17252   1.667  19.797  20.483 -0.0784  0.1063  0.2555
  719BOLB   C1D17253   2.422  20.701  21.344  0.0801 -0.0874 -0.2757
  719BOLB   C2D17254   2.258  20.764  20.913 -0.1847 -0.1206  0.1143
  719BOLB   C3D17255   2.075  21.100  20.725  0.2298  0.2150 -0.2916
  719BOLB   C4D17256   2.011  21.471  20.566 -0.1866 -0.4165 -0.0867
  720BOLB   NC117257  33.923  11.458  17.359  0.2220 -0.1953 -0.3865
  720BOLB   PO117258  34.100  11.289  16.949 -0.0366  0.3517  0.1831
  720BOLB   GL117259  34.256  11.412  16.653  0.2579  0.3087 -0.1972
  720BOLB   GL217260  34.080  11.670  16.583 -0.2004  0.3780  0.2246
  720BOLB   C1A17261  34.659  11.496  16.630  0.0166 -0.1284  0.0766
  720BOLB   C2A17262  35.032  11.714  16.629  0.2193  0.0959  0.0710
  720BOLB   C3A17263  35.279  11.943  16.823  0.0675  0.1520  0.0454
  720BOLB   C4A17264  35.406  12.422  16.841  0.2316 -0.0637  0.3324
  720BOLB   C1B17265  34.380  11.854  16.410 -0.1881  0.0517 -0.1040
  720BOLB   C2B17266  34.727  12.036  16.324 -0.0992  0.1691  0.0049
  720BOLB   C3B17267  34.824  12.480  16.187 -0.2497 -0.1262 -0.4107
  720BOLB   C4B17268  34.774  12.936  16.092  0.0081 -0.1616  0.2353
  720BOLB   NC217269  33.233  12.054  18.443 -0.1761  0.2667 -0.0877
  720BOLB   PO217270  33.562  12.015  18.208 -0.1629  0.1145  0.2525
  720BOLB   GL317271  33.946  12.356  18.016  0.1207 -0.2901  0.4259
  720BOLB   GL417272  33.819  12.591  17.613 -0.0638  0.2747  0.1856
  720BOLB   C1C17273  34.409  12.556  17.924 -0.0878 -0.0310 -0.1621
  720BOLB   C2C17274  34.808  12.521  17.757 -0.2307  0.0479 -0.0709
  720BOLB   C3C17275  35.228  12.660  17.547  0.0749 -0.1931 -0.0388
  720BOLB   C4C17276  35.507  12.648  17.177 -0.2143 -0.2193  0.1472
  720BOLB   C1D17277  34.077  12.913  17.735 -0.2601 -0.1831  0.0904
  720BOLB   C2D17278  34.401  13.054  18.097  0.0648 -0.0392 -0.0897
  720BOLB   C3D17279  34.564  13.130  18.554  0.0005 -0.1188  0.2368
  720BOLB   C4D17280  34.714  13.485  18.756  0.0887 -0.2817 -0.2646
  721BOLB   NC117281  14.882  28.318   5.377 -0.3088 -0.2323 -0.3301
  721BOLB   PO117282  14.809  27.884   5.217 -0.2991  0.4735  0.2290
  721BOLB   GL117283  14.808  27.589   5.511 -0.0384 -0.1776 -0.0151
  721BOLB   GL217284  14.982  27.427   5.458  0.1597 -0.2915 -0.1244
  721BOLB   C1A17285  14.450  27.468   5.647  0.0534 -0.1702 -0.4494
  721BOLB   C2A17286  14.143  27.257   5.660  0.1131 -0.0880  0.1275
  721BOLB   C3A17287  13.709  27.464   5.774 -0.0145 -0.0640 -0.2072
  721BOLB   C4A17288  13.615  27.904   5.898 -0.0056  0.0880 -0.2701
  721BOLB   C1B17289  14.654  27.082   5.403  0.3230  0.0879  0.3993
  721BOLB   C2B17290  14.483  26.701   5.581  0.0010  0.0855 -0.0453
  721BOLB   C3B17291  14.083  26.758   5.795  0.2264 -0.1266  0.1376
  721BOLB   C4B17292  13.720  26.935   5.860  0.0370 -0.0829 -0.0065
  721BOLB   NC217293  14.987  29.000   7.157 -0.2976 -0.2841 -0.2368
  721BOLB   PO217294  15.138  29.158   6.788 -0.2230 -0.1365 -0.1227
  721BOLB   GL317295  14.886  28.713   6.741 -0.2579 -0.2383  0.0943
  721BOLB   GL417296  14.586  28.739   7.014 -0.1374 -0.0658  0.1786
  721BOLB   C1C17297  14.667  28.298   6.695  0.2398 -0.2869  0.0184
  721BOLB   C2C17298  14.320  27.970   6.611  0.0053  0.1969  0.2993
  721BOLB   C3C17299  13.991  27.848   6.666 -0.2243  0.4050 -0.1639
  721BOLB   C4C17300  13.720  27.963   6.362  0.0610 -0.3761 -0.4323
  721BOLB   C1D17301  14.186  28.692   7.263  0.0453 -0.0198 -0.1708
  721BOLB   C2D17302  13.778  28.469   7.331  0.0094  0.0487  0.0922
  721BOLB   C3D17303  13.611  28.325   7.633 -0.1874  0.0177 -0.0660
  721BOLB   C4D17304  13.297  28.060   7.711  0.1031  0.2294 -0.1115
  722BOLB   NC117305  30.731  13.785  12.345  0.1893 -0.0710  0.1315
  722BOLB   PO117306  31.026  13.474  12.014  0.0653  0.0865  0.0152
  722BOLB   GL117307  31.462  13.620  12.057  0.0409  0.0517 -0.0163
  722BOLB   GL217308  31.360  13.832  11.928 -0.0517 -0.0407  0.1629
  722BOLB   C1A17309  31.880  13.788  12.253 -0.2504 -0.3257 -0.3167
  722BOLB   C2A17310  32.106  14.032  12.031 -0.0710  0.0162  0.0706
  722BOLB   C3A17311  32.316  14.309  11.701  0.1408 -0.4222  0.0463
  722BOLB   C4A17312  32.228  14.675  11.352 -0.0691 -0.1111 -0.2820
  722BOLB   C1B17313  31.584  14.139  12.254 -0.2804  0.0425 -0.0929
  722BOLB   C2B17314  32.039  14.241  12.459  0.0545 -0.1724 -0.1746
  722BOLB   C3B17315  32.413  14.058  12.486  0.3070 -0.0664  0.1213
  722BOLB   C4B17316  32.927  14.123  12.494 -0.1968 -0.2329 -0.1411
  722BOLB   NC217317  30.126  15.879   9.743  0.1137  0.1581 -0.0039
  722BOLB   PO217318  30.235  15.842  10.224  0.4253 -0.0081 -0.2387
  722BOLB   GL317319  30.613  15.942  10.365 -0.2007  0.1766 -0.1308
  722BOLB   GL417320  30.640  16.237  10.428 -0.1512  0.0648 -0.4906
  722BOLB   C1C17321  31.037  15.715  10.516 -0.1427  0.1077  0.1780
  722BOLB   C2C17322  31.381  15.404  10.708  0.1176 -0.1121  0.0779
  722BOLB   C3C17323  31.699  15.119  10.937 -0.2240 -0.0415  0.0780
  722BOLB   C4C17324  32.089  15.067  11.095 -0.0546  0.1510 -0.0422
  722BOLB   C1D17325  31.072  16.231  10.316  0.6112  0.2569  0.0253
  722BOLB   C2D17326  31.557  16.252  10.300 -0.1538  0.1216 -0.2046
  722BOLB   C3D17327  31.735  16.649  10.143  0.2865  0.2103  0.3313
  722BOLB   C4D17328  31.682  16.996   9.786 -0.1783 -0.1197 -0.1803
  723BOLB   NC117329   0.900  22.754  25.659  0.1453 -0.1501  0.1111
  723BOLB   PO117330   1.011  22.554  26.048  0.0603  0.2978  0.3789
  723BOLB   GL117331   1.275  22.676  26.416  0.0172 -0.0832 -0.1919
  723BOLB   GL217332   1.174  22.692  26.750 -0.0232 -0.0034 -0.0327
  723BOLB   C1A17333   1.329  23.175  26.634  0.1615 -0.0038 -0.1717
  723BOLB   C2A17334   1.502  23.388  27.028  0.3086  0.2078 -0.4548
  723BOLB   C3A17335   1.613  23.161  27.463 -0.0450  0.1481 -0.0345
  723BOLB   C4A17336   1.742  22.831  27.450  0.0161 -0.0042 -0.2349
  723BOLB   C1B17337   1.410  22.398  26.892  0.0368  0.0938 -0.3799
  723BOLB   C2B17338   1.497  22.090  27.138  0.0967 -0.2335  0.1870
  723BOLB   C3B17339   1.525  21.687  27.251 -0.0111 -0.2327 -0.5079
  723BOLB   C4B17340   1.681  21.261  27.542  0.0065 -0.0209  0.1140
  723BOLB   NC217341   1.798  22.634  25.535  0.0681 -0.0716  0.0446
  723BOLB   PO217342   2.263  22.814  25.582  0.2515 -0.1132 -0.0929
  723BOLB   GL317343   2.575  22.790  25.862  0.0746  0.0031  0.1017
  723BOLB   GL417344   2.652  22.494  25.949 -0.1542  0.2687  0.2427
  723BOLB   C1C17345   2.591  22.817  26.287 -0.0150  0.0271 -0.0118
  723BOLB   C2C17346   2.386  22.636  26.671 -0.0770  0.2237 -0.0426
  723BOLB   C3C17347   1.978  22.499  26.856 -0.0451 -0.2135  0.3706
  723BOLB   C4C17348   1.790  22.489  27.325 -0.1167 -0.2235  0.0013
  723BOLB   C1D17349   2.620  22.050  26.152  0.0085  0.0554  0.0370
  723BOLB   C2D17350   2.760  21.773  26.454  0.0805 -0.0317  0.1756
  723BOLB   C3D17351   2.887  21.627  26.786  0.2341 -0.1844  0.4439
  723BOLB   C4D17352   2.583  21.859  27.153  0.3860  0.2231  0.3366
  724BOLB   NC117353   6.358  25.073   4.718 -0.1129  0.1119 -0.2177
  724BOLB   PO117354   6.296  25.323   4.254 -0.0341 -0.2035  0.2037
  724BOLB   GL117355   6.097  25.536   3.879 -0.3495 -0.2937  0.1461
  724BOLB   GL217356   5.917  25.417   3.669 -0.1361  0.2172 -0.0655
  724BOLB   C1A17357   6.089  25.981   3.687 -0.0613  0.0256 -0.1635
  724BOLB   C2A17358   6.005  26.405   3.397 -0.2550 -0.2755  0.1515
  724BOLB   C3A17359   5.753  26.636   2.963  0.1482  0.1348  0.3499
  724BOLB   C4A17360   5.634  26.858   2.701 -0.2921 -0.1063  0.3427
  724BOLB   C1B17361   5.619  25.420   3.266  0.1981  0.1341 -0.1603
  724BOLB   C2B17362   5.435  25.678   2.914 -0.1507 -0.4616  0.1132
  724BOLB   C3B17363   5.393  25.960   2.551 -0.1242 -0.1960 -0.2250
  724BOLB   C4B17364   5.387  26.180   2.206  0.3535  0.0074  0.1177
  724BOLB   NC217365   6.168  28.155   1.183 -0.2756 -0.4003  0.2472
  724BOLB   PO217366   5.843  28.497   1.298  0.0196  0.0861  0.0883
  724BOLB   GL317367   6.253  28.339   1.655 -0.1345 -0.0265  0.2182
  724BOLB   GL417368   6.605  28.499   1.645  0.0388  0.3660  0.2834
  724BOLB   C1C17369   6.478  27.918   1.843 -0.1377 -0.1378  0.4541
  724BOLB   C2C17370   6.341  27.559   2.081 -0.2559  0.2511  0.5147
  724BOLB   C3C17371   6.022  27.251   2.100  0.2309  0.3520  0.2618
  724BOLB   C4C17372   5.896  26.998   2.374 -0.2876 -0.1448  0.0278
  724BOLB   C1D17373   6.489  28.679   2.095  0.0911 -0.1139  0.2408
  724BOLB   C2D17374   6.163  28.858   2.473  0.0332 -0.1665 -0.5365
  724BOLB   C3D17375   6.232  29.238   2.688 -0.0985 -0.3064  0.0417
  724BOLB   C4D17376   6.462  29.450   2.989 -0.0579 -0.0302 -0.0290
  725BOLB   NC117377   7.048  21.209   2.908 -0.0925 -0.3125  0.1504
  725BOLB   PO117378   7.002  21.047   2.460 -0.1024  0.0895 -0.0784
  725BOLB   GL117379   7.132  21.366   2.080 -0.0630 -0.3500 -0.0085
  725BOLB   GL217380   7.027  21.760   2.089  0.2856  0.0444  0.3971
  725BOLB   C1A17381   7.383  21.388   1.585  0.2580  0.3454 -0.2781
  725BOLB   C2A17382   7.360  21.683   1.145 -0.0312  0.0024 -0.1004
  725BOLB   C3A17383   7.164  21.964   0.802  0.1024  0.0808  0.1679
  725BOLB   C4A17384   7.162  22.265   0.463 -0.1885 -0.0118 -0.0591
  725BOLB   C1B17385   7.028  21.944   1.677 -0.2374 -0.1929  0.1569
  725BOLB   C2B17386   7.087  22.071   1.264 -0.2921  0.4045  0.0130
  725BOLB   C3B17387   6.892  22.343   1.023  0.1782  0.0824  0.1613
  725BOLB   C4B17388   7.007  22.588   0.794  0.0257 -0.0398  0.0753
  725BOLB   NC217389   7.792  22.840  -1.872 -0.0563 -0.4153  0.1486
  725BOLB   PO217390   7.728  23.188  -1.531 -0.1521  0.0552 -0.4291
  725BOLB   GL317391   7.268  23.124  -1.294 -0.1627  0.3099  0.0109
  725BOLB   GL417392   7.247  22.774  -1.044  0.0839  0.1014  0.3037
  725BOLB   C1C17393   7.055  23.269  -0.779 -0.2009 -0.2272 -0.0170
  725BOLB   C2C17394   6.944  23.141  -0.473  0.4009  0.0718 -0.0421
  725BOLB   C3C17395   6.937  23.074   0.007  0.0450 -0.1320  0.0075
  725BOLB   C4C17396   6.944  22.548   0.231 -0.3145 -0.1901 -0.0514
  725BOLB   C1D17397   7.439  22.948  -0.786 -0.0166  0.1405  0.2457
  725BOLB   C2D17398   7.691  22.886  -0.480  0.1895  0.3776  0.1007
  725BOLB   C3D17399   7.795  22.622  -0.071 -0.0072 -0.1383 -0.1638
  725BOLB   C4D17400   7.455  22.494   0.170  0.1389 -0.0755 -0.2326
  726BOLB   NC117401  29.560  15.571  11.291 -0.1536 -0.2029  0.0241
  726BOLB   PO117402  29.933  15.472  11.505  0.0252  0.0561 -0.0379
  726BOLB   GL117403  30.336  15.701  11.513 -0.1072 -0.0395 -0.0480
  726BOLB   GL217404  30.389  15.778  11.835 -0.0355  0.2036  0.1758
  726BOLB   C1A17405  30.499  16.143  11.481 -0.0688 -0.2027  0.3725
  726BOLB   C2A17406  30.910  16.347  11.370 -0.1140  0.2128 -0.0594
  726BOLB   C3A17407  31.153  16.563  11.150 -0.2421 -0.0651 -0.0715
  726BOLB   C4A17408  31.383  16.649  10.691  0.1948  0.1961 -0.0763
  726BOLB   C1B17409  30.710  16.052  11.942 -0.3937  0.1259  0.2123
  726BOLB   C2B17410  31.039  16.368  11.876  0.0907 -0.0192  0.5257
  726BOLB   C3B17411  30.818  16.737  11.881  0.4215 -0.2152  0.0252
  726BOLB   C4B17412  30.552  17.023  12.025  0.0783  0.0100 -0.1481
  726BOLB   NC217413  29.787  16.684  10.001  0.1512 -0.0736 -0.1788
  726BOLB   PO217414  29.957  16.414   9.613 -0.3626  0.0969  0.1840
  726BOLB   GL317415  30.382  16.398   9.652  0.0714  0.2229  0.3617
  726BOLB   GL417416  30.559  16.057   9.893  0.0999 -0.3224 -0.3118
  726BOLB   C1C17417  30.718  16.432   9.373  0.3046  0.0976 -0.1100
  726BOLB   C2C17418  31.071  16.530   9.552 -0.0046 -0.0182  0.0136
  726BOLB   C3C17419  31.279  16.713   9.856 -0.0883  0.1284  0.2418
  726BOLB   C4C17420  31.266  16.696  10.236  0.1208 -0.5969  0.2134
  726BOLB   C1D17421  30.828  16.306   9.923  0.2779 -0.0153  0.0056
  726BOLB   C2D17422  31.322  16.216   9.863  0.2840 -0.1339 -0.3198
  726BOLB   C3D17423  31.681  16.433   9.614 -0.0634  0.4904 -0.1336
  726BOLB   C4D17424  32.032  16.322   9.318 -0.3112 -0.1239  0.1621
  727BOLB   NC117425   5.364   9.258  15.657  0.2467 -0.1292 -0.3105
  727BOLB   PO117426   4.827   9.322  15.527  0.0297  0.0117  0.0507
  727BOLB   GL117427   4.541   9.533  15.211  0.1307  0.1912  0.1990
  727BOLB   GL217428   4.548   9.820  15.102 -0.1719 -0.1249 -0.0154
  727BOLB   C1A17429   4.156   9.800  15.415  0.1842  0.0491  0.0664
  727BOLB   C2A17430   3.929  10.009  15.785  0.0641  0.0576  0.2546
  727BOLB   C3A17431   3.932  10.374  16.038 -0.1835  0.1057 -0.2883
  727BOLB   C4A17432   3.669  10.595  16.322  0.2187  0.3836 -0.4146
  727BOLB   C1B17433   4.174   9.909  14.836  0.0666 -0.1684  0.0276
  727BOLB   C2B17434   4.011  10.341  14.784 -0.5810  0.0306  0.0557
  727BOLB   C3B17435   3.846  10.558  15.045  0.1221  0.0502  0.0292
  727BOLB   C4B17436   3.894  10.713  15.432 -0.2524 -0.4833  0.0887
  727BOLB   NC217437   2.772  10.024  18.478 -0.1912 -0.2331  0.6925
  727BOLB   PO217438   2.477   9.812  18.252  0.2077 -0.1838 -0.0361
  727BOLB   GL317439   2.553  10.232  17.986  0.1780 -0.3212 -0.0900
  727BOLB   GL417440   2.713  10.434  18.183 -0.0134  0.2162  0.0486
  727BOLB   C1C17441   2.535  10.494  17.626 -0.2615 -0.2686  0.4535
  727BOLB   C2C17442   2.719  10.595  17.325  0.0711  0.3916  0.0761
  727BOLB   C3C17443   3.096  10.767  17.037 -0.2535 -0.0903  0.1936
  727BOLB   C4C17444   3.406  10.683  16.674 -0.2640  0.1480 -0.2563
  727BOLB   C1D17445   2.358  10.738  18.039  0.0451  0.1273 -0.4227
  727BOLB   C2D17446   1.879  10.806  17.920  0.1638  0.1289 -0.3051
  727BOLB   C3D17447   1.357  10.706  17.768  0.2266  0.1072 -0.3621
  727BOLB   C4D17448   1.230  10.987  17.416 -0.4339 -0.1064 -0.1064
  728BOLB   NC117449   4.792  32.058  14.634 -0.2000 -0.1144 -0.1818
  728BOLB   PO117450   4.756  31.911  15.095  0.2179  0.3366 -0.3912
  728BOLB   GL117451   4.585  31.450  15.037 -0.3856  0.3257  0.2432
  728BOLB   GL217452   4.196  31.355  15.154 -0.0983  0.0487  0.3041
  728BOLB   C1A17453   4.690  31.148  14.870 -0.1680 -0.0824 -0.0373
  728BOLB   C2A17454   4.831  30.869  14.855 -0.1392  0.5142 -0.4805
  728BOLB   C3A17455   5.247  30.710  14.801 -0.0136  0.0873  0.3405
  728BOLB   C4A17456   5.535  30.583  14.662  0.0797  0.1449 -0.3825
  728BOLB   C1B17457   4.001  31.033  14.972 -0.2272 -0.4042 -0.0818
  728BOLB   C2B17458   4.128  30.657  15.050  0.0675 -0.0322  0.3893
  728BOLB   C3B17459   4.326  30.276  15.239  0.1380  0.2978  0.1963
  728BOLB   C4B17460   4.253  29.813  15.170  0.2161  0.2779  0.1036
  728BOLB   NC217461   5.611  32.421  14.172 -0.3019  0.0021 -0.0663
  728BOLB   PO217462   5.989  32.472  14.334 -0.1758  0.0853  0.0397
  728BOLB   GL317463   6.178  32.254  14.604  0.2608  0.3046 -0.0313
  728BOLB   GL417464   6.084  32.179  14.916 -0.0230  0.1655 -0.0734
  728BOLB   C1C17465   6.372  31.898  14.547 -0.0833  0.2372 -0.0077
  728BOLB   C2C17466   6.359  31.512  14.731 -0.2616 -0.1730  0.0502
  728BOLB   C3C17467   6.215  31.107  14.735  0.0354  0.2497  0.3332
  728BOLB   C4C17468   5.980  30.802  14.602 -0.0882  0.0426 -0.0702
  728BOLB   C1D17469   5.997  31.753  14.977  0.2227  0.1259 -0.1051
  728BOLB   C2D17470   5.777  31.420  14.860  0.0310  0.0751 -0.3101
  728BOLB   C3D17471   5.613  31.151  14.595  0.0318  0.0186  0.5086
  728BOLB   C4D17472   5.455  30.898  14.289  0.1404 -0.2138  0.1550
  729BOLB   NC117473  10.577  30.993   5.188 -0.1016 -0.0692 -0.3154
  729BOLB   PO117474  11.076  30.950   5.414 -0.0293  0.0486 -0.0900
  729BOLB   GL117475  10.951  30.638   5.670 -0.2330  0.0521 -0.3318
  729BOLB   GL217476  10.623  30.731   5.653  0.1940 -0.3397  0.0602
  729BOLB   C1A17477  10.954  30.447   6.038 -0.1626 -0.1574 -0.3933
  729BOLB   C2A17478  10.784  30.092   6.153  0.1387  0.1623  0.2021
  729BOLB   C3A17479  10.663  29.759   5.869 -0.1522  0.0254 -0.3043
  729BOLB   C4A17480  10.554  29.420   5.693 -0.0614 -0.3066  0.1558
  729BOLB   C1B17481  10.237  30.447   5.501 -0.0708  0.0154  0.1281
  729BOLB   C2B17482   9.914  30.183   5.705  0.0045  0.2582  0.0740
  729BOLB   C3B17483   9.755  30.059   6.080 -0.0536  0.2747  0.0061
  729BOLB   C4B17484   9.881  29.695   6.270 -0.2650  0.3974 -0.0735
  729BOLB   NC217485  12.235  29.962   3.513  0.0376  0.2808  0.0128
  729BOLB   PO217486  11.847  30.008   3.774  0.1463  0.1842  0.2228
  729BOLB   GL317487  11.883  29.651   4.120  0.1257  0.0256  0.2261
  729BOLB   GL417488  12.161  29.677   4.392  0.0763  0.0555  0.1643
  729BOLB   C1C17489  11.664  29.375   4.430  0.1400 -0.1119  0.0137
  729BOLB   C2C17490  11.447  29.303   4.799  0.0862 -0.0222  0.0448
  729BOLB   C3C17491  11.218  29.192   5.172  0.2516  0.0142  0.0478
  729BOLB   C4C17492  10.878  29.101   5.412  0.3789 -0.3193  0.2172
  729BOLB   C1D17493  12.090  29.328   4.614 -0.3751  0.3040 -0.0698
  729BOLB   C2D17494  11.894  29.113   4.946 -0.0903  0.0686 -0.2377
  729BOLB   C3D17495  11.640  29.023   5.207 -0.2506 -0.2098 -0.1723
  729BOLB   C4D17496  11.421  28.801   5.448  0.0750 -0.1387  0.0972
  730BOLB   NC117497   6.209  28.865   8.551  0.0529  0.2911 -0.1622
  730BOLB   PO117498   5.772  28.682   8.464  0.2304  0.1296 -0.0396
  730BOLB   GL117499   5.779  29.072   8.278  0.1069 -0.2223 -0.0633
  730BOLB   GL217500   6.083  29.152   8.134 -0.0491 -0.0629  0.1940
  730BOLB   C1A17501   5.631  29.455   8.000 -0.1065 -0.0907 -0.2237
  730BOLB   C2A17502   5.748  29.893   7.819  0.0723 -0.0328 -0.0071
  730BOLB   C3A17503   5.547  30.197   7.680 -0.1274  0.1149 -0.0029
  730BOLB   C4A17504   5.349  30.555   7.574 -0.1795 -0.0606 -0.1754
  730BOLB   C1B17505   6.161  29.646   8.018 -0.1210  0.0176 -0.0570
  730BOLB   C2B17506   6.202  30.136   7.947  0.0440  0.0862  0.0880
  730BOLB   C3B17507   6.054  30.327   7.557  0.2006  0.0339 -0.0422
  730BOLB   C4B17508   5.817  30.526   7.303  0.2014 -0.2777  0.0853
  730BOLB   NC217509   4.373  32.179   6.281  0.0015  0.4394  0.0610
  730BOLB   PO217510   4.240  31.843   5.971 -0.3492 -0.0314  0.3043
  730BOLB   GL317511   4.457  31.566   6.227 -0.1263  0.0209  0.3035
  730BOLB   GL417512   4.615  31.777   6.439 -0.0635  0.1473 -0.1009
  730BOLB   C1C17513   4.435  31.190   6.561 -0.2876  0.0386  0.0621
  730BOLB   C2C17514   4.692  31.108   6.834  0.1966  0.2199 -0.0584
  730BOLB   C3C17515   4.909  30.796   7.059 -0.0717  0.0003  0.0984
  730BOLB   C4C17516   5.019  30.685   7.414  0.1888 -0.0070  0.4490
  730BOLB   C1D17517   4.604  31.618   6.861  0.3084 -0.0345 -0.2148
  730BOLB   C2D17518   4.667  31.787   7.251 -0.0864 -0.0053  0.2421
  730BOLB   C3D17519   4.563  31.762   7.688  0.0306  0.2402 -0.2579
  730BOLB   C4D17520   4.615  31.946   8.073 -0.3753  0.4190  0.1207
  731BOLB   NC117521   7.965  20.870  23.095 -0.2282 -0.0292  0.0320
  731BOLB   PO117522   8.162  20.532  22.648  0.0960 -0.1847  0.1455
  731BOLB   GL117523   8.052  20.559  22.225  0.2508  0.1399 -0.2118
  731BOLB   GL217524   8.310  20.422  22.165 -0.3551 -0.1126  0.0232
  731BOLB   C1A17525   8.103  20.600  21.742 -0.2934  0.0596 -0.3029
  731BOLB   C2A17526   8.072  20.509  21.360  0.1381  0.2749  0.0672
  731BOLB   C3A17527   8.280  20.303  21.022 -0.1332  0.2304  0.1207
  731BOLB   C4A17528   8.589  20.199  20.768  0.2285  0.2306 -0.3132
  731BOLB   C1B17529   8.585  20.422  21.859 -0.1492  0.2257 -0.3154
  731BOLB   C2B17530   9.022  20.299  21.622 -0.2568 -0.2102 -0.2026
  731BOLB   C3B17531   9.275  20.440  21.472 -0.2258 -0.2714  0.0132
  731BOLB   C4B17532   9.019  20.824  21.345  0.0903  0.1218 -0.3496
  731BOLB   NC217533   8.887  20.555  18.422  0.0782 -0.0643 -0.0117
  731BOLB   PO217534   8.446  20.629  18.417  0.1647 -0.0877 -0.0943
  731BOLB   GL317535   8.500  20.455  18.824 -0.1084  0.0464 -0.0739
  731BOLB   GL417536   8.271  20.260  18.740  0.1211  0.1082  0.1389
  731BOLB   C1C17537   8.635  20.133  19.145 -0.2500 -0.0798 -0.1113
  731BOLB   C2C17538   8.693  20.140  19.559 -0.0581 -0.1364 -0.2602
  731BOLB   C3C17539   8.770  20.188  19.995  0.2515  0.3119  0.0775
  731BOLB   C4C17540   8.648  20.039  20.395  0.0553 -0.0257  0.0765
  731BOLB   C1D17541   8.144  20.189  19.071 -0.2731  0.2217 -0.0477
  731BOLB   C2D17542   8.212  20.247  19.510  0.1910  0.1179  0.1635
  731BOLB   C3D17543   8.186  20.378  19.890  0.1703 -0.2977 -0.1331
  731BOLB   C4D17544   8.368  20.375  20.220  0.1292 -0.1224  0.1801
  732BOLB   NC117545  29.127  19.880  13.043  0.2654  0.1821 -0.0673
  732BOLB   PO117546  28.944  20.221  13.204 -0.3192  0.0554 -0.2932
  732BOLB   GL117547  29.379  20.181  13.339  0.3721  0.3583  0.0216
  732BOLB   GL217548  29.529  20.469  13.383 -0.2257 -0.0629  0.0563
  732BOLB   C1A17549  29.758  20.094  13.033 -0.2224 -0.6269 -0.0060
  732BOLB   C2A17550  30.027  20.184  12.670  0.3243 -0.2713 -0.2860
  732BOLB   C3A17551  30.370  20.397  12.722 -0.2042 -0.1114  0.1675
  732BOLB   C4A17552  30.433  20.855  12.866  0.0938 -0.1749  0.3539
  732BOLB   C1B17553  29.881  20.456  13.339 -0.2013 -0.1660  0.0036
  732BOLB   C2B17554  30.263  20.242  13.227 -0.0201 -0.0685 -0.0297
  732BOLB   C3B17555  30.177  19.893  13.090  0.4531  0.2050 -0.0354
  732BOLB   C4B17556  30.004  19.555  13.292  0.1417  0.2068 -0.0049
  732BOLB   NC217557  29.075  23.234  13.838 -0.1173 -0.1516  0.1192
  732BOLB   PO217558  29.342  23.069  13.484  0.2187 -0.2622  0.0445
  732BOLB   GL317559  29.580  22.783  13.156 -0.0145  0.2589  0.2394
  732BOLB   GL417560  29.519  22.698  12.847 -0.3000 -0.2002 -0.1860
  732BOLB   C1C17561  29.954  22.453  13.150  0.2157  0.4240  0.2488
  732BOLB   C2C17562  30.198  22.068  13.163 -0.2173 -0.3607  0.1451
  732BOLB   C3C17563  30.283  21.642  13.040 -0.1086  0.2605  0.2119
  732BOLB   C4C17564  30.350  21.239  13.053 -0.1413  0.2278  0.0848
  732BOLB   C1D17565  29.838  22.460  12.626 -0.4033  0.1179  0.1471
  732BOLB   C2D17566  30.061  22.186  12.591  0.1274  0.1013  0.2452
  732BOLB   C3D17567  30.323  22.213  12.258 -0.0225 -0.0271  0.2932
  732BOLB   C4D17568  30.352  22.297  11.796 -0.3053 -0.0210  0.1548
  733BOLB   NC117569   9.106  28.467   1.318  0.3842  0.0772  0.2699
  733BOLB   PO117570   8.839  28.119   1.294 -0.1247 -0.0336  0.2702
  733BOLB   GL117571   8.903  28.062   1.734 -0.1566 -0.0831  0.1488
  733BOLB   GL217572   9.112  28.004   1.848  0.5015  0.2581  0.1754
  733BOLB   C1A17573   8.728  27.747   2.023  0.1432  0.0068 -0.1842
  733BOLB   C2A17574   8.611  27.304   2.109  0.3232 -0.2725 -0.1817
  733BOLB   C3A17575   8.656  26.846   2.086 -0.3145 -0.0739  0.1387
  733BOLB   C4A17576   8.307  26.550   1.954 -0.0544 -0.4778  0.0089
  733BOLB   C1B17577   9.149  28.141   2.209  0.2527 -0.1498 -0.3365
  733BOLB   C2B17578   8.785  28.086   2.596 -0.1781 -0.0836  0.2044
  733BOLB   C3B17579   8.852  27.825   2.931 -0.2110 -0.2594  0.0354
  733BOLB   C4B17580   8.608  27.632   3.212 -0.1894  0.0746  0.0496
  733BOLB   NC217581   9.271  25.857  -0.646 -0.2754 -0.0434 -0.1035
  733BOLB   PO217582   9.034  26.136  -0.314 -0.1797 -0.0119  0.1554
  733BOLB   GL317583   8.980  26.100   0.145  0.4688 -0.2177  0.0421
  733BOLB   GL417584   9.192  26.230   0.291  0.0248  0.0805 -0.0844
  733BOLB   C1C17585   8.689  25.956   0.537  0.1949  0.0488  0.0946
  733BOLB   C2C17586   8.656  26.098   0.911  0.2156 -0.0510  0.1442
  733BOLB   C3C17587   8.412  26.054   1.261  0.1703 -0.0534 -0.0335
  733BOLB   C4C17588   8.248  26.377   1.603  0.3318  0.1635 -0.0059
  733BOLB   C1D17589   9.176  25.935   0.631 -0.4368  0.0196  0.0941
  733BOLB   C2D17590   9.056  25.813   1.034 -0.2031 -0.0494  0.0575
  733BOLB   C3D17591   8.723  25.577   1.281  0.0759  0.4685 -0.1784
  733BOLB   C4D17592   8.760  25.616   1.805  0.2066  0.1459 -0.0633
  734BOLB   NC117593  32.982  13.364   4.252  0.0067 -0.2129  0.1656
  734BOLB   PO117594  32.705  13.688   4.475 -0.0564 -0.0043 -0.1239
  734BOLB   GL117595  32.909  14.008   4.738  0.0918 -0.0660  0.1790
  734BOLB   GL217596  32.905  14.405   4.791 -0.4479  0.1724  0.2230
  734BOLB   C1A17597  33.287  14.108   5.161  0.0617  0.0156  0.1912
  734BOLB   C2A17598  33.682  14.095   5.411 -0.0968  0.0244 -0.1480
  734BOLB   C3A17599  33.818  14.224   5.766  0.1678 -0.2266  0.0008
  734BOLB   C4A17600  33.845  14.607   6.031 -0.0146  0.0445 -0.1359
  734BOLB   C1B17601  33.345  14.317   4.646  0.0910  0.0022  0.0770
  734BOLB   C2B17602  33.697  14.390   5.006  0.3820  0.1156 -0.0473
  734BOLB   C3B17603  34.203  14.384   5.013 -0.1496 -0.1466  0.0392
  734BOLB   C4B17604  34.460  14.598   5.102 -0.1289  0.0070 -0.1635
  734BOLB   NC217605  31.391  14.159   6.553  0.0371  0.2056  0.0958
  734BOLB   PO217606  31.687  14.306   6.473 -0.0877 -0.2847  0.1171
  734BOLB   GL317607  32.009  14.497   6.645  0.0385  0.1116 -0.1628
  734BOLB   GL417608  31.937  14.784   6.618  0.1954 -0.2447  0.1197
  734BOLB   C1C17609  32.417  14.708   6.789  0.1041 -0.3122 -0.1821
  734BOLB   C2C17610  32.770  14.755   6.549  0.0958  0.3243 -0.1877
  734BOLB   C3C17611  33.094  14.655   6.396 -0.2174  0.3093  0.2341
  734BOLB   C4C17612  33.541  14.667   6.442  0.0211  0.0213 -0.1822
  734BOLB   C1D17613  32.165  15.197   6.824  0.1252  0.0748  0.4729
  734BOLB   C2D17614  32.206  15.422   7.166 -0.0607 -0.2766 -0.3097
  734BOLB   C3D17615  32.538  15.408   7.493  0.2379  0.1950 -0.1491
  734BOLB   C4D17616  32.952  15.456   7.403  0.0727  0.0426 -0.0689
  735BOLB   NC117617  13.578  26.012  12.664  0.0935 -0.2245  0.0867
  735BOLB   PO117618  13.786  25.659  12.726 -0.6807 -0.0617  0.2027
  735BOLB   GL117619  14.130  25.964  12.989  0.3421 -0.0697 -0.0233
  735BOLB   GL217620  13.855  26.295  12.940  0.0442  0.3585 -0.2238
  735BOLB   C1A17621  14.294  26.392  13.306  0.4119  0.0703  0.1250
  735BOLB   C2A17622  14.210  26.617  13.745 -0.1071  0.2809 -0.1560
  735BOLB   C3A17623  14.174  27.002  14.000 -0.1605  0.5314 -0.0367
  735BOLB   C4A17624  14.430  27.289  14.328  0.0118  0.4103 -0.0671
  735BOLB   C1B17625  13.737  26.096  13.333 -0.0548 -0.3262 -0.0726
  735BOLB   C2B17626  14.014  25.865  13.684 -0.0286  0.0229 -0.1319
  735BOLB   C3B17627  14.311  25.755  13.885  0.0266  0.1233  0.0317
  735BOLB   C4B17628  14.694  25.608  13.835 -0.0254  0.0697  0.0425
  735BOLB   NC217629  14.854  29.466  14.593  0.2155 -0.3122  0.3596
  735BOLB   PO217630  15.165  29.339  14.912  0.1915  0.0460 -0.0190
  735BOLB   GL317631  15.007  29.009  14.641  0.3370  0.1486 -0.0908
  735BOLB   GL417632  14.786  29.132  14.267  0.3137 -0.0004 -0.0566
  735BOLB   C1C17633  14.990  28.481  14.520  0.2495 -0.2116  0.1975
  735BOLB   C2C17634  15.062  28.157  14.186  0.0502 -0.0331 -0.0164
  735BOLB   C3C17635  14.956  27.722  14.293  0.0345  0.2334 -0.2100
  735BOLB   C4C17636  14.777  27.470  14.515  0.3917  0.2526 -0.4221
  735BOLB   C1D17637  14.583  28.676  14.296 -0.2709 -0.0329  0.1280
  735BOLB   C2D17638  14.538  28.158  14.344 -0.0057  0.3672 -0.0830
  735BOLB   C3D17639  14.477  27.778  14.088 -0.0260 -0.2242 -0.1368
  735BOLB   C4D17640  14.248  27.710  13.773  0.4703  0.1668 -0.1031
  736BOLB   NC117641  29.159  17.479  11.906  0.0473  0.0470 -0.1249
  736BOLB   PO117642  29.223  17.154  11.596 -0.2459  0.0708 -0.1917
  736BOLB   GL117643  29.654  17.010  11.473  0.1631  0.0079 -0.3176
  736BOLB   GL217644  29.692  16.910  11.175 -0.2330 -0.1040  0.0065
  736BOLB   C1A17645  30.057  17.038  11.567 -0.0353 -0.3492  0.1515
  736BOLB   C2A17646  30.437  16.955  11.526 -0.2222 -0.1762 -0.1841
  736BOLB   C3A17647  30.882  17.100  11.566  0.2609 -0.0824 -0.0405
  736BOLB   C4A17648  31.268  16.806  11.647  0.3833  0.3514  0.0510
  736BOLB   C1B17649  30.182  16.925  11.108  0.1409  0.2351 -0.0560
  736BOLB   C2B17650  30.446  17.388  11.127 -0.2701  0.1284 -0.1098
  736BOLB   C3B17651  30.835  17.680  11.349  0.0535  0.0381  0.0401
  736BOLB   C4B17652  31.277  17.613  11.218 -0.0088 -0.0400 -0.0155
  736BOLB   NC217653  29.824  15.603  12.055 -0.1616 -0.0007  0.0396
  736BOLB   PO217654  30.195  15.517  12.253  0.1766  0.1871 -0.0620
  736BOLB   GL317655  30.657  15.446  12.120  0.0713 -0.0745  0.1287
  736BOLB   GL417656  30.873  15.328  12.407 -0.1071 -0.0328  0.0982
  736BOLB   C1C17657  31.075  15.612  11.882 -0.0193  0.5564  0.2371
  736BOLB   C2C17658  31.294  15.970  12.005  0.0831 -0.1807  0.3084
  736BOLB   C3C17659  31.521  16.281  12.024  0.2154 -0.0634  0.4879
  736BOLB   C4C17660  31.493  16.640  11.978 -0.0203  0.2562 -0.0095
  736BOLB   C1D17661  31.313  15.212  12.379  0.1757  0.0325 -0.3073
  736BOLB   C2D17662  31.717  15.118  12.385 -0.1910  0.0161  0.0164
  736BOLB   C3D17663  32.040  14.983  12.179 -0.0215  0.2053 -0.0807
  736BOLB   C4D17664  32.287  14.944  11.800 -0.0810  0.0255 -0.1212
  737BOLB   NC117665   6.500  17.196  16.503 -0.0102  0.0513  0.2531
  737BOLB   PO117666   6.614  16.838  16.722 -0.0292 -0.0734  0.0926
  737BOLB   GL117667   6.572  16.539  17.144  0.0366  0.0959  0.1739
  737BOLB   GL217668   6.476  16.288  17.061  0.0274  0.0448  0.0500
  737BOLB   C1A17669   6.793  16.270  17.426 -0.2640 -0.1048  0.0518
  737BOLB   C2A17670   6.852  16.041  17.835  0.0836 -0.2777 -0.2761
  737BOLB   C3A17671   7.004  15.751  18.321 -0.1762 -0.1770  0.2123
  737BOLB   C4A17672   7.195  15.425  18.536 -0.2120 -0.3127  0.2709
  737BOLB   C1B17673   6.361  16.051  17.406  0.0348  0.2000 -0.2080
  737BOLB   C2B17674   6.275  15.905  17.901 -0.0000  0.2567  0.4331
  737BOLB   C3B17675   6.329  15.639  18.293 -0.2492 -0.0513  0.5184
  737BOLB   C4B17676   6.187  15.438  18.593  0.1266  0.5924 -0.2278
  737BOLB   NC217677   8.295  13.734  19.869  0.1047  0.0457  0.1107
  737BOLB   PO217678   8.538  13.656  19.453  0.0002 -0.1345  0.2723
  737BOLB   GL317679   8.350  13.871  19.241 -0.0540 -0.0644  0.0825
  737BOLB   GL417680   8.224  13.591  18.969  0.3363  0.0972 -0.0872
  737BOLB   C1C17681   8.098  14.001  18.764  0.1827  0.0997  0.2092
  737BOLB   C2C17682   8.040  14.389  18.601 -0.1259 -0.1198 -0.1213
  737BOLB   C3C17683   7.782  14.721  18.492 -0.2232 -0.1232 -0.1481
  737BOLB   C4C17684   7.493  15.047  18.490  0.0657 -0.0352  0.0317
  737BOLB   C1D17685   7.942  13.461  18.598 -0.0720  0.3468  0.0844
  737BOLB   C2D17686   7.626  13.728  18.257 -0.1722 -0.0004  0.2836
  737BOLB   C3D17687   7.572  14.024  17.937 -0.2209  0.3409 -0.0096
  737BOLB   C4D17688   7.516  14.394  17.766 -0.3829 -0.0385  0.0984
  738BOLB   NC117689  34.819  19.012  21.057  0.0736 -0.2235  0.0809
  738BOLB   PO117690  34.719  18.754  20.765  0.1290 -0.3698 -0.3219
  738BOLB   GL117691  35.105  18.522  20.552 -0.0546 -0.1333 -0.1770
  738BOLB   GL217692  35.328  18.322  20.783  0.1103 -0.0972  0.1166
  738BOLB   C1A17693  35.419  18.518  20.313  0.0058 -0.3880  0.2802
  738BOLB   C2A17694  35.966  18.531  20.172  0.1710 -0.0770  0.0086
  738BOLB   C3A17695  36.034  18.865  19.898 -0.0044  0.0106  0.3356
  738BOLB   C4A17696  35.810  19.232  19.708 -0.0339  0.1908 -0.2250
  738BOLB   C1B17697  35.630  18.131  20.450  0.0173  0.3168  0.0016
  738BOLB   C2B17698  35.546  17.803  20.301  0.0192  0.3111 -0.2149
  738BOLB   C3B17699  35.821  17.526  20.158 -0.2298 -0.0041 -0.0912
  738BOLB   C4B17700  35.730  17.140  19.981  0.1280  0.0770 -0.3274
  738BOLB   NC217701  34.868  20.897  19.962  0.1261  0.1212 -0.1321
  738BOLB   PO217702  35.185  21.133  19.877 -0.3190  0.1775  0.1064
  738BOLB   GL317703  35.194  20.798  19.577  0.1686  0.0032 -0.1364
  738BOLB   GL417704  34.963  20.952  19.384 -0.1784  0.0028 -0.0453
  738BOLB   C1C17705  35.552  20.572  19.363 -0.1645 -0.3590 -0.2845
  738BOLB   C2C17706  35.423  20.196  19.347 -0.4617 -0.1274  0.1702
  738BOLB   C3C17707  35.472  19.802  19.298  0.0768  0.1261 -0.0613
  738BOLB   C4C17708  35.720  19.591  19.503  0.0474  0.1606 -0.1611
  738BOLB   C1D17709  35.149  20.927  19.073 -0.0237 -0.1394 -0.0760
  738BOLB   C2D17710  35.613  20.983  18.994  0.1230 -0.1157 -0.0323
  738BOLB   C3D17711  35.842  20.701  18.591  0.0557 -0.1856 -0.0328
  738BOLB   C4D17712  36.313  20.681  18.313  0.0358 -0.1822 -0.0225
  739BOLB   NC117713  13.395  29.678   5.929  0.1231 -0.0356  0.1206
  739BOLB   PO117714  13.406  29.643   5.410  0.1956  0.0082  0.2807
  739BOLB   GL117715  13.098  29.382   5.498 -0.0875  0.0828  0.0888
  739BOLB   GL217716  13.109  29.285   5.878  0.0430  0.2578  0.0036
  739BOLB   C1A17717  13.227  28.910   5.515  0.1462  0.1539  0.1405
  739BOLB   C2A17718  13.139  28.482   5.403 -0.1361 -0.0643  0.0640
  739BOLB   C3A17719  12.675  28.540   5.220  0.2026 -0.1203  0.1699
  739BOLB   C4A17720  12.307  28.225   5.118  0.1247  0.0984  0.2654
  739BOLB   C1B17721  13.118  29.205   6.295  0.0409  0.2830  0.1724
  739BOLB   C2B17722  12.987  29.030   6.751 -0.0288 -0.0296  0.0170
  739BOLB   C3B17723  12.895  28.803   6.905 -0.2166 -0.2306 -0.1257
  739BOLB   C4B17724  12.713  28.489   7.265 -0.0984 -0.0100  0.2080
  739BOLB   NC217725  10.496  26.918   6.389 -0.2460 -0.1107  0.0956
  739BOLB   PO217726  10.311  26.617   6.055 -0.3948 -0.3673 -0.0374
  739BOLB   GL317727  10.660  26.882   5.843  0.1235  0.0407  0.0697
  739BOLB   GL417728  10.874  27.054   6.062  0.1520 -0.1958 -0.1542
  739BOLB   C1C17729  11.022  27.116   5.600  0.3576 -0.2103  0.0663
  739BOLB   C2C17730  11.245  27.488   5.506 -0.2374 -0.0869  0.1050
  739BOLB   C3C17731  11.659  27.802   5.429 -0.1418  0.3378  0.0188
  739BOLB   C4C17732  11.931  28.084   5.244  0.2888  0.4049  0.2396
  739BOLB   C1D17733  11.258  27.260   6.056 -0.1890 -0.0353  0.0221
  739BOLB   C2D17734  11.731  27.415   5.819 -0.2651  0.1752  0.1659
  739BOLB   C3D17735  12.096  27.583   5.598  0.0398 -0.0338  0.3797
  739BOLB   C4D17736  12.262  27.753   5.367 -0.1679 -0.0754 -0.0677
  740BOLB   NC117737   7.498  20.331   1.885  0.1656  0.0472  0.2784
  740BOLB   PO117738   7.810  20.066   2.168 -0.0861  0.0659  0.2326
  740BOLB   GL117739   7.776  19.918   1.762  0.0313 -0.0893 -0.0351
  740BOLB   GL217740   7.650  19.595   1.824 -0.1425  0.3235  0.1691
  740BOLB   C1A17741   7.959  19.723   1.431 -0.0426  0.1692 -0.2278
  740BOLB   C2A17742   7.906  19.701   0.995 -0.1736 -0.2574  0.1398
  740BOLB   C3A17743   7.967  19.724   0.499 -0.0714 -0.1300 -0.2937
  740BOLB   C4A17744   8.032  19.592   0.122 -0.3116 -0.2127 -0.2638
  740BOLB   C1B17745   7.437  19.468   1.431 -0.0510  0.1076 -0.0828
  740BOLB   C2B17746   7.429  19.505   0.999 -0.2967  0.1107 -0.2119
  740BOLB   C3B17747   7.423  19.412   0.539 -0.2537 -0.0602 -0.0816
  740BOLB   C4B17748   7.099  19.581   0.265 -0.2368  0.2879 -0.3096
  740BOLB   NC217749   7.737  19.083  -2.212  0.1046 -0.0916  0.2074
  740BOLB   PO217750   8.213  19.240  -2.130  0.2902 -0.0919  0.0413
  740BOLB   GL317751   8.192  19.400  -1.689  0.4202  0.0424  0.1244
  740BOLB   GL417752   7.845  19.361  -1.635 -0.5284 -0.0185 -0.1303
  740BOLB   C1C17753   8.287  19.514  -1.319 -0.2304 -0.0654  0.1075
  740BOLB   C2C17754   8.306  19.756  -1.030  0.2085 -0.4588 -0.2084
  740BOLB   C3C17755   8.273  19.767  -0.638  0.2035 -0.1979 -0.0726
  740BOLB   C4C17756   8.169  19.637  -0.253 -0.1102  0.0774  0.0977
  740BOLB   C1D17757   8.053  19.130  -1.283  0.0840  0.1054 -0.3106
  740BOLB   C2D17758   7.808  19.005  -0.824  0.5028  0.1352  0.3184
  740BOLB   C3D17759   7.828  18.712  -0.512  0.1003 -0.3575 -0.2217
  740BOLB   C4D17760   8.147  18.341  -0.597  0.2486 -0.1509 -0.1393
  741BOLB   NC117761   2.388  15.430   0.122 -0.1007 -0.0276  0.0491
  741BOLB   PO117762   1.949  15.611  -0.063 -0.3533 -0.3320 -0.0717
  741BOLB   GL117763   1.981  15.618   0.355  0.2045  0.0325  0.0112
  741BOLB   GL217764   1.869  15.450   0.405  0.1411 -0.0346 -0.3521
  741BOLB   C1A17765   2.023  15.585   0.878 -0.0177  0.0456 -0.1729
  741BOLB   C2A17766   1.724  15.458   1.085 -0.0827  0.0155  0.1062
  741BOLB   C3A17767   1.377  15.147   1.193 -0.2198 -0.3021  0.1597
  741BOLB   C4A17768   1.029  15.378   1.408  0.3210  0.0804  0.2804
  741BOLB   C1B17769   1.460  15.460   0.566  0.0252  0.1006  0.2001
  741BOLB   C2B17770   1.276  15.676   0.952 -0.1877  0.0208  0.2284
  741BOLB   C3B17771   0.982  15.937   1.199 -0.1720 -0.2335  0.1541
  741BOLB   C4B17772   0.635  16.072   1.508  0.1777 -0.2286  0.0770
  741BOLB   NC217773   0.180  16.454  -0.670 -0.0358  0.2771 -0.3254
  741BOLB   PO217774   0.221  15.953  -0.727  0.3245  0.1891 -0.2431
  741BOLB   GL317775   0.154  15.986  -0.329  0.1427 -0.2099  0.0226
  741BOLB   GL417776   0.307  16.187  -0.099  0.3336 -0.0130  0.0129
  741BOLB   C1C17777   0.109  15.642   0.062  0.0147 -0.0660  0.1109
  741BOLB   C2C17778   0.414  15.589   0.431  0.1298 -0.0649 -0.1382
  741BOLB   C3C17779   0.567  15.559   0.890 -0.0668 -0.1226 -0.2964
  741BOLB   C4C17780   0.707  15.566   1.365  0.2719  0.1166  0.2048
  741BOLB   C1D17781   0.597  16.146   0.184 -0.2488 -0.1387  0.3018
  741BOLB   C2D17782   0.955  16.331   0.376  0.5001  0.3371 -0.1800
  741BOLB   C3D17783   1.098  16.804   0.581 -0.2805 -0.0436  0.0117
  741BOLB   C4D17784   1.023  17.227   0.485 -0.0436 -0.1512  0.2235
  742BOLB   NC117785   7.470  16.005   3.844  0.4456  0.2402  0.2707
  742BOLB   PO117786   7.737  15.751   3.650  0.1967 -0.3200  0.3996
  742BOLB   GL117787   7.583  15.669   3.255  0.3846  0.0302  0.0233
  742BOLB   GL217788   7.909  15.655   3.014  0.1985 -0.3159  0.3440
  742BOLB   C1A17789   7.443  15.497   2.942  0.1537  0.1906  0.0209
  742BOLB   C2A17790   7.427  15.238   2.597 -0.1049  0.0312  0.0785
  742BOLB   C3A17791   7.455  15.452   2.285  0.1952  0.1650 -0.0887
  742BOLB   C4A17792   7.376  15.332   1.883 -0.1268 -0.2400 -0.2375
  742BOLB   C1B17793   7.817  15.602   2.629  0.0152  0.0036 -0.0289
  742BOLB   C2B17794   8.042  15.402   2.302  0.5392  0.1307  0.0608
  742BOLB   C3B17795   8.469  15.406   2.050 -0.0648  0.4764 -0.3707
  742BOLB   C4B17796   8.886  15.287   1.823  0.3659  0.2532  0.1343
  742BOLB   NC217797   7.645  13.267   0.055 -0.4265  0.2962 -0.1601
  742BOLB   PO217798   7.876  13.269   0.437  0.0473  0.1768 -0.0147
  742BOLB   GL317799   7.740  13.440   0.840 -0.2172  0.1066 -0.0584
  742BOLB   GL417800   7.665  13.232   1.062  0.1128  0.1759 -0.2908
  742BOLB   C1C17801   7.583  13.842   1.079 -0.0393  0.1831 -0.0436
  742BOLB   C2C17802   7.647  14.204   1.399 -0.2234  0.2553 -0.1529
  742BOLB   C3C17803   7.804  14.699   1.539 -0.1294  0.0067 -0.0394
  742BOLB   C4C17804   7.499  15.048   1.695 -0.0947 -0.0002  0.2168
  742BOLB   C1D17805   7.496  13.470   1.416 -0.2237 -0.1274  0.6423
  742BOLB   C2D17806   7.719  13.734   1.622  0.0518 -0.1609  0.1613
  742BOLB   C3D17807   7.862  14.155   1.785 -0.2504  0.1606 -0.0820
  742BOLB   C4D17808   7.694  14.461   2.072 -0.3463 -0.0208  0.4366
  743BOLB   NC117809  36.252  22.800   1.328 -0.2035 -0.0917  0.3016
  743BOLB   PO117810  36.630  22.701   1.589 -0.4522 -0.0534 -0.3611
  743BOLB   GL117811  37.011  22.895   1.837  0.0224 -0.3056  0.0201
  743BOLB   GL217812  36.823  22.937   2.162 -0.2646  0.0496 -0.1024
  743BOLB   C1A17813  37.370  23.003   2.035 -0.0189 -0.2176  0.1255
  743BOLB   C2A17814  37.810  23.098   2.017  0.2401  0.2112 -0.2985
  743BOLB   C3A17815  38.298  23.072   2.146  0.1303 -0.1698 -0.0112
  743BOLB   C4A17816  38.643  23.142   2.409 -0.0395  0.0850 -0.1249
  743BOLB   C1B17817  37.172  22.917   2.464  0.0922 -0.0344  0.0369
  743BOLB   C2B17818  37.568  22.939   2.556  0.2432  0.1329  0.0833
  743BOLB   C3B17819  37.951  22.959   2.486 -0.1030 -0.1712 -0.0099
  743BOLB   C4B17820  38.250  23.408   2.536  0.2226  0.0067  0.1035
  743BOLB   NC217821  40.147  22.866   4.713 -0.2583 -0.2369  0.2469
  743BOLB   PO217822  40.098  22.845   4.318  0.4121  0.0839  0.1263
  743BOLB   GL317823  39.841  23.064   4.135  0.2078 -0.0815  0.0891
  743BOLB   GL417824  39.597  23.184   4.193 -0.1280  0.3312 -0.0087
  743BOLB   C1C17825  39.745  23.208   3.757  0.0537  0.0503  0.1343
  743BOLB   C2C17826  39.674  23.382   3.333  0.1727 -0.1644 -0.0234
  743BOLB   C3C17827  39.323  23.293   2.983  0.1595 -0.1906 -0.2845
  743BOLB   C4C17828  38.857  23.251   2.789 -0.0950  0.0456  0.2167
  743BOLB   C1D17829  39.270  23.353   3.811  0.0592 -0.1585 -0.0008
  743BOLB   C2D17830  39.140  23.550   3.431  0.0495  0.0469 -0.1002
  743BOLB   C3D17831  38.903  23.644   3.078 -0.2056  0.1781 -0.0881
  743BOLB   C4D17832  38.518  23.593   2.946  0.0303 -0.2575 -0.1083
  744BOLB   NC117833  16.791  14.237  10.752  0.0222 -0.0203  0.0066
  744BOLB   PO117834  16.797  14.621  10.619  0.3034  0.1623 -0.0538
  744BOLB   GL117835  16.507  14.754  10.379  0.0083 -0.1908  0.3256
  744BOLB   GL217836  16.568  15.065  10.272  0.2447  0.0274 -0.0277
  744BOLB   C1A17837  16.005  14.857  10.240  0.0802 -0.0586  0.2285
  744BOLB   C2A17838  15.853  15.021   9.852  0.0480  0.4757 -0.1396
  744BOLB   C3A17839  15.862  15.456   9.698 -0.2637  0.1996 -0.2344
  744BOLB   C4A17840  15.866  15.837   9.738  0.1150 -0.2248  0.2204
  744BOLB   C1B17841  16.299  15.200  10.540  0.1753 -0.0299 -0.1071
  744BOLB   C2B17842  16.057  15.519  10.846  0.2209 -0.2354 -0.2340
  744BOLB   C3B17843  15.587  15.463  10.883 -0.0561 -0.2672  0.0423
  744BOLB   C4B17844  15.146  15.616  10.880 -0.1519 -0.3520  0.2454
  744BOLB   NC217845  17.672  15.214  11.311 -0.1549  0.0120  0.0189
  744BOLB   PO217846  17.346  15.322  11.008 -0.0117 -0.0106 -0.0604
  744BOLB   GL317847  16.986  15.441  11.066  0.0806  0.0789 -0.1605
  744BOLB   GL417848  16.887  15.685  11.269 -0.3085  0.0687  0.2248
  744BOLB   C1C17849  16.552  15.498  10.928 -0.0693  0.1489 -0.0617
  744BOLB   C2C17850  16.374  15.889  10.674  0.1249  0.1129 -0.0384
  744BOLB   C3C17851  16.293  16.186  10.403 -0.0662 -0.1260 -0.3889
  744BOLB   C4C17852  16.087  16.270  10.098  0.1245  0.2676  0.1309
  744BOLB   C1D17853  16.925  15.859  10.812  0.2101  0.0009 -0.1858
  744BOLB   C2D17854  17.083  15.971  10.425  0.0021 -0.0183 -0.0117
  744BOLB   C3D17855  17.103  15.899   9.961 -0.0551 -0.1765 -0.0766
  744BOLB   C4D17856  17.239  15.617   9.619  0.1885 -0.2686 -0.0383
  745BOLB   NC117857  29.619  17.944  15.423  0.0938  0.0329  0.2622
  745BOLB   PO117858  29.939  17.614  15.417 -0.1658 -0.3185 -0.1714
  745BOLB   GL117859  30.222  17.749  15.376  0.1519  0.1201  0.1949
  745BOLB   GL217860  30.334  17.813  15.750  0.3165  0.2686 -0.1136
  745BOLB   C1A17861  30.624  17.680  15.150  0.1214 -0.3715  0.2082
  745BOLB   C2A17862  31.131  17.700  15.175 -0.0923  0.1457 -0.2772
  745BOLB   C3A17863  31.492  17.524  15.518  0.0139  0.0153  0.1106
  745BOLB   C4A17864  31.918  17.535  15.617  0.1943  0.0458 -0.0979
  745BOLB   C1B17865  30.789  17.665  15.645 -0.2415  0.0803  0.1431
  745BOLB   C2B17866  31.055  17.334  15.489 -0.4468  0.2613  0.0407
  745BOLB   C3B17867  31.067  17.226  15.015 -0.0761 -0.4140  0.2881
  745BOLB   C4B17868  31.074  17.309  14.555 -0.2403 -0.1041 -0.2397
  745BOLB   NC217869  29.907  16.927  17.138  0.0292  0.0580 -0.0982
  745BOLB   PO217870  30.209  17.289  16.984  0.2232  0.3385 -0.0541
  745BOLB   GL317871  30.671  17.532  16.917 -0.1019 -0.1012  0.1342
  745BOLB   GL417872  30.938  17.391  16.759  0.1904  0.1332  0.2532
  745BOLB   C1C17873  31.073  17.899  16.755 -0.2772 -0.0572 -0.0971
  745BOLB   C2C17874  31.276  17.954  16.409 -0.1258 -0.3185 -0.2673
  745BOLB   C3C17875  31.521  18.059  16.016  0.0212 -0.1685 -0.3483
  745BOLB   C4C17876  31.923  17.923  15.876 -0.0946  0.1824  0.0702
  745BOLB   C1D17877  31.022  17.445  16.358 -0.0916  0.0821 -0.1153
  745BOLB   C2D17878  31.167  17.650  15.979 -0.2997 -0.2362  0.2533
  745BOLB   C3D17879  31.225  17.999  15.630 -0.4150  0.0967 -0.2566
  745BOLB   C4D17880  31.141  18.410  15.605 -0.2998  0.0145  0.1217
  746BOLB   NC117881  31.322  13.096   8.023 -0.1227 -0.2549 -0.0634
  746BOLB   PO117882  31.614  13.156   7.799 -0.0594 -0.1554  0.2617
  746BOLB   GL117883  31.895  13.386   8.139 -0.2173 -0.1890 -0.1910
  746BOLB   GL217884  31.797  13.487   8.402 -0.0988 -0.1685 -0.1985
  746BOLB   C1A17885  32.320  13.369   8.364  0.1686 -0.2440  0.2618
  746BOLB   C2A17886  32.623  13.560   8.593 -0.0627  0.3312 -0.0103
  746BOLB   C3A17887  32.760  13.497   9.051  0.2620 -0.0559  0.0261
  746BOLB   C4A17888  33.146  13.212   9.197 -0.5185 -0.1777 -0.0416
  746BOLB   C1B17889  32.172  13.761   8.671  0.0640 -0.3744 -0.0763
  746BOLB   C2B17890  32.510  13.947   9.020  0.0712  0.2470 -0.0035
  746BOLB   C3B17891  32.920  13.929   8.856 -0.0840 -0.1820 -0.3088
  746BOLB   C4B17892  33.319  14.014   8.663  0.2236  0.1574  0.0354
  746BOLB   NC217893  32.612  10.732  10.357  0.2975 -0.0748 -0.0218
  746BOLB   PO217894  32.897  11.040  10.128 -0.0960  0.0406 -0.1562
  746BOLB   GL317895  33.114  11.435  10.085 -0.1712 -0.2568 -0.1997
  746BOLB   GL417896  33.286  11.247   9.859 -0.0862 -0.0183 -0.0575
  746BOLB   C1C17897  33.288  11.886   9.852  0.1630 -0.0355  0.1761
  746BOLB   C2C17898  33.320  12.240   9.505  0.2687  0.2529 -0.3488
  746BOLB   C3C17899  33.557  12.491   9.217 -0.2869  0.2443 -0.0792
  746BOLB   C4C17900  33.258  12.837   9.141 -0.1311  0.0114 -0.0240
  746BOLB   C1D17901  33.557  11.465   9.749  0.0678 -0.0243 -0.0120
  746BOLB   C2D17902  33.830  11.922   9.909 -0.1695  0.3511 -0.4699
  746BOLB   C3D17903  34.105  12.016  10.204  0.1424  0.1884 -0.0732
  746BOLB   C4D17904  34.152  12.154  10.588  0.0013  0.1616 -0.0297
  747BOLB   NC117905   4.533  22.186   3.182  0.3877  0.0047  0.1896
  747BOLB   PO117906   4.552  22.151   2.833 -0.0499 -0.2717  0.0013
  747BOLB   GL117907   4.405  22.295   2.430  0.1590 -0.0797  0.0363
  747BOLB   GL217908   4.442  22.612   2.276  0.0193 -0.1324 -0.3766
  747BOLB   C1A17909   4.257  22.201   2.004  0.0998  0.0611  0.2773
  747BOLB   C2A17910   4.166  22.312   1.603  0.2146  0.1654  0.0761
  747BOLB   C3A17911   4.051  22.309   1.152  0.3450 -0.1679 -0.2268
  747BOLB   C4A17912   3.907  22.345   0.675 -0.0334  0.0510  0.0763
  747BOLB   C1B17913   4.697  22.485   1.917  0.1796  0.3533  0.1345
  747BOLB   C2B17914   4.731  22.358   1.495  0.4099 -0.0280  0.1494
  747BOLB   C3B17915   4.644  22.601   1.160  0.0089 -0.0377 -0.1082
  747BOLB   C4B17916   4.571  22.949   0.828  0.1052 -0.3415 -0.0765
  747BOLB   NC217917   3.387  23.607  -1.543  0.0838  0.2195  0.0320
  747BOLB   PO217918   3.448  23.941  -1.172  0.2090  0.2372 -0.0143
  747BOLB   GL317919   3.486  23.824  -0.712  0.1388  0.2128  0.1315
  747BOLB   GL417920   3.774  24.037  -0.558 -0.0822 -0.0753 -0.0098
  747BOLB   C1C17921   3.730  23.460  -0.511 -0.0764 -0.1297  0.0231
  747BOLB   C2C17922   3.795  23.177  -0.256 -0.3925 -0.1536 -0.3499
  747BOLB   C3C17923   3.799  22.988   0.150  0.1726  0.1141 -0.0204
  747BOLB   C4C17924   3.751  22.567   0.256 -0.1720 -0.2582 -0.0742
  747BOLB   C1D17925   3.712  23.920  -0.177  0.0703  0.1024  0.1004
  747BOLB   C2D17926   3.818  24.059   0.194  0.3575 -0.0940 -0.3428
  747BOLB   C3D17927   3.706  23.828   0.589 -0.0572  0.1925 -0.1222
  747BOLB   C4D17928   3.763  23.786   1.080  0.1071  0.0070 -0.0044
  748BOLB   NC117929  29.037  19.656  12.184  0.3095  0.1303 -0.0616
  748BOLB   PO117930  28.851  19.694  12.604 -0.0327 -0.3410 -0.1596
  748BOLB   GL117931  29.304  19.616  12.615  0.0358 -0.0094  0.0456
  748BOLB   GL217932  29.425  19.265  12.696  0.2077  0.0594 -0.0458
  748BOLB   C1A17933  29.856  19.673  12.659  0.0173  0.0677  0.2947
  748BOLB   C2A17934  30.211  19.515  12.620  0.0188  0.1818 -0.2278
  748BOLB   C3A17935  30.648  19.440  12.542  0.0198 -0.1767  0.2135
  748BOLB   C4A17936  30.845  19.461  12.079  0.2218 -0.2339  0.1447
  748BOLB   C1B17937  29.843  19.225  12.433  0.4519 -0.1552  0.0795
  748BOLB   C2B17938  29.815  19.260  11.915 -0.1628  0.1126 -0.1905
  748BOLB   C3B17939  30.046  19.514  11.648 -0.4300 -0.1617 -0.1222
  748BOLB   C4B17940  30.250  19.385  11.204 -0.2903 -0.1101 -0.1418
  748BOLB   NC217941  29.421  19.123  11.024 -0.3210  0.1298 -0.1907
  748BOLB   PO217942  29.350  18.889  10.704  0.1053 -0.1128  0.2120
  748BOLB   GL317943  29.729  18.779  10.960  0.1580  0.1637  0.2671
  748BOLB   GL417944  29.904  19.011  11.105 -0.3248 -0.0053 -0.1727
  748BOLB   C1C17945  30.193  18.680  10.856  0.1001 -0.0303 -0.1311
  748BOLB   C2C17946  30.480  18.842  11.070  0.2346  0.1126  0.2384
  748BOLB   C3C17947  30.610  19.110  11.416  0.1341  0.1209  0.0729
  748BOLB   C4C17948  30.569  19.446  11.702 -0.1573  0.0773 -0.1330
  748BOLB   C1D17949  30.172  19.022  11.499  0.0196 -0.1751  0.1357
  748BOLB   C2D17950  30.422  18.653  11.567  0.0340  0.3301  0.1036
  748BOLB   C3D17951  30.905  18.702  11.608  0.0427 -0.0549  0.3469
  748BOLB   C4D17952  31.343  18.603  11.739 -0.2766 -0.3747 -0.2320
  749BOLB   NC117953  30.843  14.303  14.350  0.1326 -0.3430  0.0401
  749BOLB   PO117954  30.551  14.559  14.256  0.2712 -0.0501 -0.0775
  749BOLB   GL117955  30.998  14.822  14.324  0.2312 -0.1860 -0.1669
  749BOLB   GL217956  31.179  14.916  13.916  0.2745  0.0247 -0.0774
  749BOLB   C1A17957  31.246  15.146  14.442 -0.0913 -0.0616  0.3104
  749BOLB   C2A17958  31.438  15.378  14.304  0.1858 -0.1045  0.0979
  749BOLB   C3A17959  31.593  15.597  13.951  0.3583 -0.1579 -0.0718
  749BOLB   C4A17960  31.435  15.394  13.604 -0.0796  0.0739  0.0429
  749BOLB   C1B17961  31.647  15.080  13.924  0.3703 -0.0193  0.1339
  749BOLB   C2B17962  31.947  15.245  13.671 -0.0610  0.0156 -0.0762
  749BOLB   C3B17963  32.377  15.436  13.596 -0.2446  0.3177  0.0447
  749BOLB   C4B17964  32.692  15.405  13.262  0.0340 -0.0088 -0.1344
  749BOLB   NC217965  30.685  14.321  12.786  0.3390 -0.1635 -0.1259
  749BOLB   PO217966  30.946  13.933  12.808 -0.1796  0.0543  0.1589
  749BOLB   GL317967  31.359  13.894  13.061 -0.0061 -0.2171 -0.3221
  749BOLB   GL417968  31.430  13.549  12.938  0.2765 -0.2306 -0.0610
  749BOLB   C1C17969  31.827  14.149  13.320  0.2545  0.1165  0.1925
  749BOLB   C2C17970  31.927  14.368  13.544 -0.2159  0.0542 -0.2049
  749BOLB   C3C17971  31.978  14.720  13.609  0.0534  0.0847 -0.2846
  749BOLB   C4C17972  31.505  14.989  13.490 -0.1344 -0.0178  0.0798
  749BOLB   C1D17973  31.719  13.385  12.659 -0.1122  0.0553  0.0313
  749BOLB   C2D17974  31.924  13.218  12.305 -0.0747 -0.0068 -0.0928
  749BOLB   C3D17975  32.020  13.467  11.894  0.2173 -0.3191  0.2267
  749BOLB   C4D17976  32.284  13.806  11.544  0.2540  0.1862  0.1923
  750BOLB   NC117977   1.003  26.166   8.072 -0.2065  0.3146  0.1405
  750BOLB   PO117978   1.045  26.112   7.611  0.2050 -0.1311 -0.1858
  750BOLB   GL117979   0.878  26.357   7.314 -0.2128 -0.1714 -0.2484
  750BOLB   GL217980   1.137  26.343   7.113 -0.4702 -0.0302 -0.2374
  750BOLB   C1A17981   0.749  26.678   7.053 -0.1977  0.1265 -0.2306
  750BOLB   C2A17982   0.431  26.987   6.831 -0.0867  0.2015 -0.0002
  750BOLB   C3A17983   0.321  27.278   6.538 -0.5887 -0.4266 -0.0281
  750BOLB   C4A17984   0.114  27.551   6.273  0.0964  0.2018  0.2335
  750BOLB   C1B17985   1.212  26.721   7.025  0.3149  0.1875 -0.2204
  750BOLB   C2B17986   1.057  27.078   6.738 -0.1346  0.2052  0.1141
  750BOLB   C3B17987   0.853  27.267   6.485  0.3212 -0.1730 -0.1078
  750BOLB   C4B17988   0.590  26.975   6.218 -0.0507 -0.0786  0.0685
  750BOLB   NC217989  -1.611  27.505   4.982 -0.2000  0.2741  0.2062
  750BOLB   PO217990  -1.531  27.770   4.606 -0.3060  0.0871  0.0146
  750BOLB   GL317991  -1.230  27.471   4.720 -0.1490 -0.1465 -0.0587
  750BOLB   GL417992  -0.866  27.405   4.556  0.1033  0.0177 -0.8130
  750BOLB   C1C17993  -0.907  27.557   5.086  0.0373 -0.3815 -0.1499
  750BOLB   C2C17994  -0.814  27.712   5.507  0.0178 -0.3300  0.0861
  750BOLB   C3C17995  -0.613  27.824   5.902 -0.1702 -0.1386  0.0018
  750BOLB   C4C17996  -0.220  27.805   6.225 -0.0215 -0.0454 -0.2451
  750BOLB   C1D17997  -0.543  27.298   4.854  0.0916  0.1219 -0.2335
  750BOLB   C2D17998  -0.589  27.226   5.309  0.2230 -0.0012  0.0810
  750BOLB   C3D17999  -0.606  27.136   5.688 -0.1895  0.0176 -0.2371
  750BOLB   C4D18000  -0.656  26.925   6.109  0.0045 -0.3335  0.2622
  751BOLB   NC118001   4.576  14.768  11.601  0.0422 -0.2183 -0.1859
  751BOLB   PO118002   4.295  14.516  11.652  0.0930 -0.0085  0.5333
  751BOLB   GL118003   4.042  14.254  11.399 -0.0431  0.1181 -0.0779
  751BOLB   GL218004   4.071  14.206  11.048 -0.0801  0.1789 -0.1456
  751BOLB   C1A18005   3.869  13.839  11.308  0.1861 -0.1502 -0.0203
  751BOLB   C2A18006   3.747  13.388  11.397  0.0438 -0.1025 -0.5210
  751BOLB   C3A18007   3.922  13.018  11.549 -0.1376 -0.0775  0.0797
  751BOLB   C4A18008   4.037  12.650  11.453  0.0470 -0.1832 -0.0304
  751BOLB   C1B18009   3.596  14.276  11.273 -0.1653 -0.1222 -0.2888
  751BOLB   C2B18010   3.122  14.303  11.340 -0.0403 -0.0944 -0.2104
  751BOLB   C3B18011   2.741  14.399  11.493  0.2616  0.3179  0.0264
  751BOLB   C4B18012   2.322  14.650  11.528 -0.0945  0.1237  0.3190
  751BOLB   NC218013   5.544  13.228  10.781  0.2605 -0.2654  0.1084
  751BOLB   PO218014   5.337  13.590  10.469  0.1143 -0.2511 -0.1328
  751BOLB   GL318015   5.033  13.291  10.510  0.0081 -0.3072  0.4030
  751BOLB   GL418016   5.279  13.057  10.365  0.1059  0.4830  0.0314
  751BOLB   C1C18017   4.775  13.011  10.362  0.2907  0.0835 -0.0550
  751BOLB   C2C18018   4.695  12.597  10.525  0.2836  0.2310 -0.0563
  751BOLB   C3C18019   4.596  12.367  10.900 -0.3365  0.3983  0.3113
  751BOLB   C4C18020   4.243  12.297  11.155 -0.0028 -0.2596 -0.1447
  751BOLB   C1D18021   5.170  12.606  10.370  0.2668  0.0537 -0.0128
  751BOLB   C2D18022   5.378  12.165  10.296 -0.1684  0.2475  0.3404
  751BOLB   C3D18023   5.485  11.732  10.011  0.2066  0.0229 -0.3987
  751BOLB   C4D18024   5.582  11.414  10.012  0.0360  0.1361 -0.1031
  752BOLB   NC118025   6.849  20.130   1.876 -0.2577  0.1323 -0.1029
  752BOLB   PO118026   7.059  20.444   1.672 -0.0715  0.2785 -0.0862
  752BOLB   GL118027   7.520  20.572   1.468  0.3578 -0.0892  0.0798
  752BOLB   GL218028   7.638  20.921   1.670 -0.2715 -0.1218  0.0498
  752BOLB   C1A18029   7.657  20.501   1.083 -0.3142 -0.1575  0.1754
  752BOLB   C2A18030   7.994  20.732   0.886 -0.4257  0.2505 -0.0010
  752BOLB   C3A18031   8.184  20.911   0.524 -0.0701 -0.4119 -0.3337
  752BOLB   C4A18032   8.225  21.081   0.170 -0.1859 -0.2350 -0.1933
  752BOLB   C1B18033   7.597  20.946   1.208  0.1593 -0.2644  0.1932
  752BOLB   C2B18034   7.673  21.250   0.983  0.2411  0.0746 -0.1352
  752BOLB   C3B18035   7.674  21.174   0.492  0.0063 -0.0798  0.1274
  752BOLB   C4B18036   7.760  21.196   0.023 -0.0825 -0.4220 -0.2204
  752BOLB   NC218037   8.970  22.290  -1.638 -0.0887  0.1524  0.1694
  752BOLB   PO218038   9.064  21.852  -1.713  0.0993 -0.1479 -0.0305
  752BOLB   GL318039   8.826  21.769  -1.484 -0.2265 -0.0658  0.0553
  752BOLB   GL418040   8.777  21.956  -1.260  0.0300 -0.1766 -0.1078
  752BOLB   C1C18041   8.557  21.350  -1.333 -0.2231 -0.2671 -0.0018
  752BOLB   C2C18042   8.215  21.012  -1.109  0.0816  0.0926  0.1470
  752BOLB   C3C18043   8.040  20.973  -0.737 -0.1378  0.0940  0.3267
  752BOLB   C4C18044   8.048  20.927  -0.265  0.2298 -0.3299 -0.0045
  752BOLB   C1D18045   8.603  22.286  -1.027  0.1944 -0.0610  0.0359
  752BOLB   C2D18046   8.349  22.108  -0.649 -0.1652 -0.0765  0.0388
  752BOLB   C3D18047   8.341  21.844  -0.293 -0.0281  0.2114 -0.1534
  752BOLB   C4D18048   8.130  21.515  -0.203 -0.2335 -0.3139  0.1307
  753BOLB   NC118049   9.162  13.436   8.257  0.1167  0.3346  0.2613
  753BOLB   PO118050   8.773  13.352   8.447  0.2842 -0.1109  0.0331
  753BOLB   GL118051   8.957  13.021   8.410  0.0882 -0.0867 -0.1118
  753BOLB   GL218052   9.232  12.898   8.465 -0.0568  0.3376  0.0301
  753BOLB   C1A18053   8.759  12.726   8.101 -0.3015 -0.0892  0.0343
  753BOLB   C2A18054   8.927  12.296   7.929 -0.1344 -0.0394  0.0436
  753BOLB   C3A18055   9.431  12.210   7.869 -0.2902  0.0414  0.1715
  753BOLB   C4A18056   9.845  12.108   7.585  0.3087  0.1422 -0.0136
  753BOLB   C1B18057   9.161  12.461   8.295 -0.1589  0.0918 -0.0306
  753BOLB   C2B18058   9.261  12.050   8.355 -0.0290 -0.0943 -0.0590
  753BOLB   C3B18059   9.161  11.804   8.142 -0.0874 -0.1323 -0.0905
  753BOLB   C4B18060   8.969  11.537   7.880 -0.3680  0.0358 -0.1223
  753BOLB   NC218061  11.153   9.779   8.043 -0.2484 -0.2109 -0.0756
  753BOLB   PO218062  11.537  10.087   8.145  0.2311 -0.3201  0.1304
  753BOLB   GL318063  11.195  10.444   8.021 -0.0948 -0.1622 -0.0783
  753BOLB   GL418064  11.295  10.651   7.765 -0.0615  0.1004  0.2073
  753BOLB   C1C18065  10.856  10.819   8.008 -0.0531  0.1713  0.2831
  753BOLB   C2C18066  10.640  11.087   7.880  0.0305 -0.0475 -0.2257
  753BOLB   C3C18067  10.322  11.390   7.761  0.0109 -0.0914  0.2400
  753BOLB   C4C18068  10.024  11.700   7.707  0.0723 -0.1719  0.1712
  753BOLB   C1D18069  11.648  10.889   7.437 -0.2136 -0.1939 -0.3514
  753BOLB   C2D18070  11.655  11.296   7.206 -0.1411 -0.0246  0.0182
  753BOLB   C3D18071  11.855  11.659   7.241  0.0864 -0.4071 -0.3462
  753BOLB   C4D18072  11.687  12.008   7.434  0.0677  0.0452  0.0668
  754BOLB   NC118073  31.872  14.920   4.437 -0.1856  0.0684  0.0367
  754BOLB   PO118074  32.057  14.551   4.402  0.3237  0.0836  0.0221
  754BOLB   GL118075  32.323  14.696   4.556  0.0322 -0.0629 -0.2301
  754BOLB   GL218076  32.500  14.764   4.256 -0.2835  0.2309  0.0171
  754BOLB   C1A18077  32.573  14.772   4.912  0.1042  0.0732  0.1566
  754BOLB   C2A18078  32.757  15.124   5.145 -0.2768  0.1577 -0.1089
  754BOLB   C3A18079  33.041  15.475   5.444  0.2925 -0.1338  0.1179
  754BOLB   C4A18080  33.141  15.946   5.313  0.0882 -0.1943  0.3194
  754BOLB   C1B18081  32.791  15.004   4.416 -0.0682 -0.2431  0.0078
  754BOLB   C2B18082  32.999  14.980   4.710  0.0480 -0.1837 -0.0097
  754BOLB   C3B18083  33.177  14.723   5.048 -0.1242  0.2497 -0.3075
  754BOLB   C4B18084  32.939  14.409   5.326 -0.1798 -0.0160  0.1560
  754BOLB   NC218085  31.631  15.993   3.668  0.2158  0.1398 -0.0441
  754BOLB   PO218086  31.790  15.573   3.642 -0.0512  0.3992 -0.0229
  754BOLB   GL318087  32.108  15.881   3.731 -0.2924  0.1769 -0.0782
  754BOLB   GL418088  32.335  15.876   4.068  0.1288 -0.0565 -0.0035
  754BOLB   C1C18089  32.105  16.287   4.084  0.1515  0.0619  0.0720
  754BOLB   C2C18090  32.451  16.410   4.464  0.1987  0.2717  0.1169
  754BOLB   C3C18091  32.821  16.482   4.667 -0.1091 -0.3069  0.0680
  754BOLB   C4C18092  33.032  16.369   5.080 -0.1056  0.1097  0.1348
  754BOLB   C1D18093  32.722  16.026   4.318 -0.0916  0.0852  0.0394
  754BOLB   C2D18094  33.040  15.974   4.570  0.1327 -0.2566 -0.0433
  754BOLB   C3D18095  33.104  15.726   4.904  0.1573  0.2852  0.0142
  754BOLB   C4D18096  33.205  15.290   5.024 -0.2109 -0.1466  0.3766
  755BOLB   NC118097  32.060  13.915   6.389  0.0293  0.0812  0.0413
  755BOLB   PO118098  32.346  13.575   6.287  0.3452  0.0521 -0.1051
  755BOLB   GL118099  32.618  13.821   6.520  0.1944  0.1686  0.0486
  755BOLB   GL218100  32.867  13.556   6.453 -0.1027 -0.1957 -0.2705
  755BOLB   C1A18101  32.912  14.072   6.806 -0.2122 -0.3243  0.1236
  755BOLB   C2A18102  33.054  14.487   6.928  0.1295 -0.0310 -0.2019
  755BOLB   C3A18103  33.289  14.680   7.192 -0.1291 -0.0622 -0.0519
  755BOLB   C4A18104  33.512  14.595   7.609 -0.3211  0.0105  0.0125
  755BOLB   C1B18105  33.071  13.648   6.715  0.2184  0.0900 -0.3020
  755BOLB   C2B18106  33.368  13.724   7.046 -0.0675  0.0205 -0.1211
  755BOLB   C3B18107  33.771  13.676   7.150  0.0651  0.2504 -0.2715
  755BOLB   C4B18108  33.995  13.840   7.516 -0.0104 -0.1793 -0.1457
  755BOLB   NC218109  32.670  12.403   7.231  0.0907  0.4716  0.0156
  755BOLB   PO218110  32.427  12.692   7.025 -0.1051  0.0438  0.1533
  755BOLB   GL318111  32.809  12.945   7.180 -0.4745  0.2070  0.0753
  755BOLB   GL418112  33.104  12.776   7.133  0.1190  0.1699  0.1872
  755BOLB   C1C18113  33.089  13.270   7.432 -0.0853 -0.0434 -0.0612
  755BOLB   C2C18114  33.480  13.493   7.506 -0.2478 -0.1962  0.1231
  755BOLB   C3C18115  33.567  13.804   7.738  0.1524  0.1369 -0.0067
  755BOLB   C4C18116  33.724  14.211   7.794 -0.0939  0.1994 -0.0294
  755BOLB   C1D18117  33.485  12.726   6.941  0.0763 -0.0260 -0.1084
  755BOLB   C2D18118  33.890  12.589   6.744 -0.1077  0.1686 -0.0896
  755BOLB   C3D18119  34.339  12.438   6.860 -0.1391  0.0361  0.2447
  755BOLB   C4D18120  34.512  12.697   7.174  0.0609 -0.2788 -0.1246
  756BOLB   NC118121   5.868  13.751  13.483  0.1425 -0.3525 -0.0225
  756BOLB   PO118122   6.307  13.852  13.534 -0.1193 -0.4747 -0.0272
  756BOLB   GL118123   6.215  13.743  13.936  0.0804 -0.2007 -0.2229
  756BOLB   GL218124   6.084  13.412  13.799  0.0511  0.1345  0.0219
  756BOLB   C1A18125   5.989  13.661  14.307 -0.1024 -0.0645  0.1595
  756BOLB   C2A18126   5.985  13.294  14.367  0.0945  0.0985 -0.1422
  756BOLB   C3A18127   5.947  12.855  14.295  0.2306 -0.0568  0.0931
  756BOLB   C4A18128   5.795  12.499  14.250  0.0431  0.2092  0.0885
  756BOLB   C1B18129   6.435  13.252  14.057 -0.4612  0.1059  0.2814
  756BOLB   C2B18130   6.500  12.821  14.227 -0.0490 -0.3859  0.0830
  756BOLB   C3B18131   6.794  12.591  14.079  0.1512  0.2488 -0.0786
  756BOLB   C4B18132   7.192  12.535  13.806  0.0554 -0.0986  0.1294
  756BOLB   NC218133   6.506   9.754  14.629 -0.2070  0.3981 -0.0170
  756BOLB   PO218134   6.140   9.952  14.776  0.0615 -0.0903 -0.0692
  756BOLB   GL318135   5.938  10.278  14.759 -0.2424 -0.1626 -0.0704
  756BOLB   GL418136   5.673  10.498  15.046  0.2439  0.0547 -0.0311
  756BOLB   C1C18137   5.854  10.707  14.618 -0.2588  0.1010  0.0916
  756BOLB   C2C18138   5.637  11.056  14.422  0.0650  0.1390 -0.2580
  756BOLB   C3C18139   5.774  11.515  14.348 -0.0730 -0.3966 -0.0265
  756BOLB   C4C18140   5.878  11.994  14.216  0.0596 -0.0633  0.3243
  756BOLB   C1D18141   5.482  10.796  14.852 -0.3438  0.1079  0.1507
  756BOLB   C2D18142   5.102  11.098  14.835  0.0301  0.2080  0.0421
  756BOLB   C3D18143   4.976  11.427  14.522  0.1524 -0.1675  0.0383
  756BOLB   C4D18144   4.950  11.857  14.800 -0.1707 -0.0064 -0.1689
  757BOLB   NC118145   5.575  32.177  15.224 -0.2849 -0.1007  0.3093
  757BOLB   PO118146   5.617  32.242  14.737 -0.0129 -0.0046 -0.0770
  757BOLB   GL118147   5.621  31.816  14.649 -0.1289 -0.1062  0.1042
  757BOLB   GL218148   5.779  31.966  14.334  0.0393  0.1698  0.1344
  757BOLB   C1A18149   5.463  31.492  14.264 -0.0787 -0.1049 -0.0773
  757BOLB   C2A18150   5.621  31.360  13.901  0.0693  0.1616  0.3413
  757BOLB   C3A18151   5.570  30.952  13.719  0.1885 -0.1418 -0.1909
  757BOLB   C4A18152   5.841  30.594  13.705  0.0712  0.2017  0.0030
  757BOLB   C1B18153   5.979  31.488  14.382  0.2254 -0.1072 -0.0334
  757BOLB   C2B18154   5.934  31.022  14.139 -0.2976 -0.0818  0.1895
  757BOLB   C3B18155   5.839  30.551  14.205  0.0917 -0.1544  0.0571
  757BOLB   C4B18156   5.872  30.034  14.197  0.5123 -0.0310 -0.1342
  757BOLB   NC218157   5.789  28.221  13.733 -0.1026  0.0367 -0.2249
  757BOLB   PO218158   5.581  28.331  13.380  0.3021  0.0558  0.0488
  757BOLB   GL318159   5.568  28.659  13.663 -0.1091 -0.2617  0.0000
  757BOLB   GL418160   5.205  28.776  13.821 -0.1215  0.3554  0.3067
  757BOLB   C1C18161   5.604  29.093  13.762 -0.0403  0.1561 -0.1072
  757BOLB   C2C18162   5.780  29.454  13.684 -0.2821  0.0377  0.2158
  757BOLB   C3C18163   6.037  29.754  13.711 -0.1021  0.0847  0.1877
  757BOLB   C4C18164   6.065  30.208  13.688  0.0790  0.2175  0.2364
  757BOLB   C1D18165   5.229  29.135  14.172  0.1398  0.0022  0.0010
  757BOLB   C2D18166   5.166  29.490  14.266 -0.1459  0.0102 -0.2651
  757BOLB   C3D18167   5.127  29.849  14.442  0.2601 -0.1245  0.2641
  757BOLB   C4D18168   5.409  30.137  14.341  0.3901  0.4276 -0.0224
  758BOLB   NC118169   1.560  22.776  16.897  0.0693  0.1049  0.2284
  758BOLB   PO118170   1.589  23.260  16.849  0.0907 -0.1205  0.1145
  758BOLB   GL118171   1.230  23.511  17.035 -0.2682 -0.4724 -0.0423
  758BOLB   GL218172   1.074  23.698  16.806 -0.1405  0.0512 -0.2516
  758BOLB   C1A18173   0.975  23.380  17.245 -0.0101 -0.1040  0.0663
  758BOLB   C2A18174   0.871  23.536  17.545 -0.0012  0.0543 -0.1798
  758BOLB   C3A18175   0.658  23.649  17.875 -0.1160 -0.4656  0.1006
  758BOLB   C4A18176   0.639  24.049  18.198 -0.0076  0.0501  0.0004
  758BOLB   C1B18177   0.975  23.916  17.211  0.1658  0.0158 -0.1107
  758BOLB   C2B18178   0.731  24.055  17.520 -0.3677 -0.1800  0.0969
  758BOLB   C3B18179   0.303  24.019  17.838 -0.2887  0.0121 -0.1560
  758BOLB   C4B18180  -0.221  23.946  17.929  0.3549 -0.2503  0.1175
  758BOLB   NC218181  -1.150  26.152  18.476  0.0297 -0.4259 -0.0362
  758BOLB   PO218182  -0.970  25.838  18.664  0.2801 -0.0604 -0.1435
  758BOLB   GL318183  -0.682  25.555  18.614 -0.2862 -0.1115  0.2360
  758BOLB   GL418184  -0.443  25.776  18.586  0.1061 -0.0857  0.0631
  758BOLB   C1C18185  -0.639  25.140  18.474  0.4227 -0.2278  0.1368
  758BOLB   C2C18186  -0.327  24.972  18.331  0.1635 -0.3362  0.1264
  758BOLB   C3C18187   0.022  24.650  18.271 -0.0102 -0.0252  0.0535
  758BOLB   C4C18188   0.372  24.322  18.305 -0.3685 -0.0881 -0.1711
  758BOLB   C1D18189  -0.275  25.620  18.283  0.2853  0.1054 -0.1428
  758BOLB   C2D18190  -0.185  25.252  17.907  0.3382  0.0529 -0.1126
  758BOLB   C3D18191   0.018  24.810  17.790 -0.0302 -0.0963  0.1846
  758BOLB   C4D18192  -0.097  24.388  17.815 -0.1620  0.1336 -0.0197
  759BOLB   NC118193  11.261  21.788  21.668 -0.1923 -0.2092  0.1552
  759BOLB   PO118194  11.020  21.566  21.966 -0.1266  0.1793  0.1650
  759BOLB   GL118195  10.732  21.615  21.639  0.1424  0.1654  0.2969
  759BOLB   GL218196  10.479  21.334  21.576  0.0289 -0.4082  0.0851
  759BOLB   C1A18197  10.631  21.657  21.249  0.1530 -0.0403  0.2511
  759BOLB   C2A18198  10.608  21.388  20.797  0.0697 -0.1330 -0.0131
  759BOLB   C3A18199  10.636  21.244  20.340  0.2994 -0.0113  0.0312
  759BOLB   C4A18200  10.763  21.525  20.202 -0.0917 -0.0603 -0.0374
  759BOLB   C1B18201  10.150  21.656  21.393 -0.2849 -0.2320 -0.0441
  759BOLB   C2B18202  10.112  21.617  20.972 -0.0275  0.5243  0.0007
  759BOLB   C3B18203  10.069  21.384  20.639  0.2185  0.4464 -0.1986
  759BOLB   C4B18204  10.260  21.005  20.544 -0.1883 -0.2046  0.0199
  759BOLB   NC218205  11.096  22.404  22.233  0.2046 -0.0094 -0.2140
  759BOLB   PO218206  11.352  22.335  21.862 -0.3460  0.2939 -0.0597
  759BOLB   GL318207  11.160  22.330  21.474 -0.2397  0.0632  0.1324
  759BOLB   GL418208  10.950  22.009  21.374 -0.0137 -0.0686  0.0674
  759BOLB   C1C18209  11.364  22.500  21.164  0.0756  0.0329  0.2920
  759BOLB   C2C18210  11.376  22.352  20.723  0.1640 -0.0610  0.1132
  759BOLB   C3C18211  11.140  22.249  20.380  0.0496 -0.2072  0.1212
  759BOLB   C4C18212  11.064  21.922  20.124  0.3088  0.1891 -0.2246
  759BOLB   C1D18213  11.003  22.057  20.941 -0.0475 -0.1902 -0.0600
  759BOLB   C2D18214  10.797  21.810  20.636 -0.0798 -0.2421 -0.2589
  759BOLB   C3D18215  10.421  21.729  20.471 -0.0985 -0.0942 -0.0303
  759BOLB   C4D18216  10.192  21.692  20.036 -0.0143 -0.3035 -0.2293
  760BOLB   NC118217  30.258  24.933   9.466  0.3494 -0.2863  0.1869
  760BOLB   PO118218  30.416  25.156   9.032  0.0347  0.0032 -0.1392
  760BOLB   GL118219  30.529  24.675   8.930  0.0451  0.0468 -0.0862
  760BOLB   GL218220  30.457  24.554   9.161 -0.1297 -0.1088  0.4021
  760BOLB   C1A18221  30.745  24.430   8.607  0.0467 -0.0893 -0.4588
  760BOLB   C2A18222  31.042  24.322   8.286 -0.0209 -0.0621  0.0272
  760BOLB   C3A18223  31.365  24.075   8.226  0.2225 -0.1665  0.0263
  760BOLB   C4A18224  31.499  23.609   8.063 -0.1904  0.0611 -0.5340
  760BOLB   C1B18225  30.618  24.152   9.166 -0.4074 -0.1277  0.1236
  760BOLB   C2B18226  30.623  23.707   9.368  0.4471  0.1143  0.1246
  760BOLB   C3B18227  30.671  23.377   9.626 -0.1899 -0.2178 -0.2530
  760BOLB   C4B18228  30.801  23.215  10.020 -0.0884 -0.2865 -0.0556
  760BOLB   NC218229  29.917  23.911   6.840 -0.3905 -0.1949 -0.1335
  760BOLB   PO218230  29.924  24.351   6.614 -0.1401 -0.0902 -0.0127
  760BOLB   GL318231  30.277  24.304   6.834 -0.0112  0.1315 -0.0573
  760BOLB   GL418232  30.355  24.405   7.169 -0.2622  0.0260  0.1509
  760BOLB   C1C18233  30.712  24.022   6.931  0.0981 -0.1410 -0.1088
  760BOLB   C2C18234  30.854  23.701   7.126 -0.1604 -0.0236  0.3173
  760BOLB   C3C18235  31.285  23.601   7.314 -0.1380 -0.3173  0.0021
  760BOLB   C4C18236  31.514  23.496   7.681  0.0569  0.2233 -0.3951
  760BOLB   C1D18237  30.620  24.162   7.429 -0.3216  0.0655  0.0811
  760BOLB   C2D18238  30.917  23.949   7.533 -0.1340 -0.0554 -0.0889
  760BOLB   C3D18239  31.082  23.755   7.891 -0.0423  0.0997 -0.5112
  760BOLB   C4D18240  30.882  23.641   8.174  0.2774 -0.1488 -0.4905
  761BOLB   NC118241  32.008  15.278  18.450  0.0600 -0.1549 -0.0835
  761BOLB   PO118242  32.061  14.817  18.436 -0.1280  0.2078 -0.2472
  761BOLB   GL118243  32.444  15.014  18.483 -0.3668  0.0164  0.0502
  761BOLB   GL218244  32.783  14.882  18.538 -0.3703  0.1338 -0.0741
  761BOLB   C1A18245  32.719  15.277  18.236 -0.2867  0.1345  0.3142
  761BOLB   C2A18246  33.031  15.603  18.160  0.3051  0.0316  0.2031
  761BOLB   C3A18247  33.456  15.515  18.147 -0.2308  0.3717  0.1108
  761BOLB   C4A18248  33.794  15.108  18.026 -0.5174  0.0875 -0.3824
  761BOLB   C1B18249  32.962  14.723  18.195 -0.0731 -0.0968 -0.0742
  761BOLB   C2B18250  32.957  14.258  18.072  0.0281 -0.2722  0.1164
  761BOLB   C3B18251  32.945  13.883  17.751 -0.0065  0.0326  0.3143
  761BOLB   C4B18252  32.767  13.673  17.404 -0.2972 -0.2389  0.1331
  761BOLB   NC218253  33.817  13.120  20.036 -0.1762 -0.0767  0.1897
  761BOLB   PO218254  33.690  13.221  19.560 -0.1648  0.3196 -0.3698
  761BOLB   GL318255  33.856  13.646  19.301  0.0160 -0.0775 -0.2595
  761BOLB   GL418256  33.829  13.659  18.898 -0.1282  0.1419 -0.0603
  761BOLB   C1C18257  34.206  13.823  19.119 -0.1592 -0.0970 -0.4258
  761BOLB   C2C18258  34.171  14.111  18.692  0.2141 -0.1387 -0.0224
  761BOLB   C3C18259  33.993  14.379  18.303  0.0910 -0.0695  0.0647
  761BOLB   C4C18260  34.018  14.759  18.055 -0.0697 -0.0571 -0.0421
  761BOLB   C1D18261  34.141  13.594  18.656  0.0051 -0.2111  0.0847
  761BOLB   C2D18262  34.520  13.509  18.318  0.1877 -0.0520 -0.3118
  761BOLB   C3D18263  34.876  13.709  18.257  0.1909  0.1600  0.1822
  761BOLB   C4D18264  35.315  13.849  18.203 -0.0082  0.1479  0.0387
  762BOLB   NC118265  13.317  11.115   8.497  0.3160  0.1117 -0.1145
  762BOLB   PO118266  13.138  11.048   8.857 -0.3243  0.0570  0.0676
  762BOLB   GL118267  12.946  11.326   8.719  0.0682  0.0212  0.0880
  762BOLB   GL218268  12.672  11.355   8.996 -0.1348 -0.0460 -0.1357
  762BOLB   C1A18269  12.870  11.744   8.625  0.0987  0.1445  0.1034
  762BOLB   C2A18270  12.618  12.115   8.293 -0.0216 -0.2468  0.1397
  762BOLB   C3A18271  12.215  12.335   8.354  0.0350  0.1536  0.1914
  762BOLB   C4A18272  11.852  12.388   8.396 -0.4685  0.1354  0.0196
  762BOLB   C1B18273  12.509  11.635   9.114 -0.2786  0.0208 -0.2423
  762BOLB   C2B18274  12.143  11.748   9.070 -0.2954  0.0287 -0.0379
  762BOLB   C3B18275  11.849  11.583   8.872  0.1240  0.3642 -0.0998
  762BOLB   C4B18276  11.477  11.799   8.661  0.0297  0.1910  0.0206
  762BOLB   NC218277  12.038  10.197   8.090  0.1670  0.0865 -0.5303
  762BOLB   PO218278  12.280  10.390   7.777 -0.0207 -0.1618 -0.0499
  762BOLB   GL318279  12.255  10.799   7.853  0.2878  0.2375 -0.1509
  762BOLB   GL418280  12.069  10.871   8.183  0.0821 -0.1000  0.2201
  762BOLB   C1C18281  12.093  11.122   7.545  0.0268 -0.0847 -0.4143
  762BOLB   C2C18282  11.994  11.561   7.701  0.2440  0.0877 -0.0047
  762BOLB   C3C18283  11.619  11.710   8.041  0.0400  0.0547  0.0357
  762BOLB   C4C18284  11.663  12.083   8.333  0.0407 -0.1766 -0.1578
  762BOLB   C1D18285  11.791  11.109   7.971 -0.0056 -0.1325  0.0889
  762BOLB   C2D18286  11.506  11.402   7.650  0.0281 -0.1894 -0.2570
  762BOLB   C3D18287  11.362  11.629   7.384 -0.0513  0.0108  0.0935
  762BOLB   C4D18288  10.915  11.765   7.100 -0.0706 -0.2727  0.2605
  763BOLB   NC118289  32.812  16.548   2.017 -0.1015 -0.1447  0.1556
  763BOLB   PO118290  32.830  16.165   2.280  0.1397 -0.3128  0.1231
  763BOLB   GL118291  32.791  16.502   2.547  0.2231 -0.0919 -0.1412
  763BOLB   GL218292  32.525  16.659   2.438 -0.2950 -0.0176 -0.0364
  763BOLB   C1A18293  33.096  16.631   2.875 -0.2230 -0.1537 -0.0216
  763BOLB   C2A18294  33.480  16.717   3.042 -0.0541  0.0046  0.1353
  763BOLB   C3A18295  33.798  16.858   2.782 -0.3236 -0.2847 -0.0908
  763BOLB   C4A18296  34.075  16.944   2.385  0.0712  0.0030 -0.1498
  763BOLB   C1B18297  33.017  16.966   2.527  0.0090 -0.3129  0.0131
  763BOLB   C2B18298  33.344  17.062   2.740 -0.0085 -0.3623 -0.0866
  763BOLB   C3B18299  33.306  17.187   3.160  0.0277  0.1035  0.5408
  763BOLB   C4B18300  33.196  17.085   3.482 -0.0354 -0.1751  0.1714
  763BOLB   NC218301  33.378  17.790   0.712 -0.0649  0.1474 -0.1432
  763BOLB   PO218302  33.696  18.021   0.429 -0.1428 -0.0112 -0.4693
  763BOLB   GL318303  33.971  17.914   0.633  0.0482  0.1683  0.0221
  763BOLB   GL418304  34.162  18.292   0.628  0.0155 -0.0504 -0.1026
  763BOLB   C1C18305  34.206  17.997   1.038  0.0919 -0.1769  0.0603
  763BOLB   C2C18306  34.011  17.910   1.492 -0.2686  0.0330 -0.1961
  763BOLB   C3C18307  33.988  17.696   1.865 -0.0597  0.3288 -0.0254
  763BOLB   C4C18308  33.977  17.270   2.091  0.0715 -0.1863 -0.3455
  763BOLB   C1D18309  34.480  18.562   0.761 -0.0177 -0.1326 -0.0841
  763BOLB   C2D18310  34.481  19.020   0.840 -0.1227  0.0022  0.0289
  763BOLB   C3D18311  34.450  19.309   0.598  0.3334 -0.0812 -0.0563
  763BOLB   C4D18312  34.732  19.656   0.528 -0.1577  0.1565 -0.0667
  764BOLB   NC118313  36.870  11.999  20.957  0.0982  0.1151  0.2416
  764BOLB   PO118314  36.687  12.167  20.537  0.2212  0.4016 -0.0912
  764BOLB   GL118315  36.688  12.197  20.198 -0.0721 -0.0993 -0.3301
  764BOLB   GL218316  36.499  12.076  20.012  0.0322  0.1082 -0.2342
  764BOLB   C1A18317  36.780  12.550  19.939  0.2569  0.0146  0.1296
  764BOLB   C2A18318  36.991  12.677  19.557 -0.0616 -0.0704 -0.1150
  764BOLB   C3A18319  37.227  13.025  19.393  0.2994 -0.0498  0.0536
  764BOLB   C4A18320  37.533  12.919  19.165 -0.3198 -0.1579 -0.0744
  764BOLB   C1B18321  36.391  12.476  19.687 -0.0329 -0.0940  0.0020
  764BOLB   C2B18322  36.079  12.753  19.454 -0.2582  0.0968  0.0696
  764BOLB   C3B18323  35.889  13.081  19.416 -0.1191 -0.1079 -0.1117
  764BOLB   C4B18324  35.568  13.259  19.355 -0.2287 -0.0989 -0.0118
  764BOLB   NC218325  39.757  12.314  20.476  0.0805 -0.1917  0.1930
  764BOLB   PO218326  39.770  12.317  19.997 -0.0564  0.2689 -0.1848
  764BOLB   GL318327  39.400  12.182  19.732 -0.0487  0.0313 -0.1098
  764BOLB   GL418328  39.312  11.870  19.522 -0.0413  0.0803 -0.1520
  764BOLB   C1C18329  38.966  12.240  19.642 -0.0321  0.1342  0.1662
  764BOLB   C2C18330  38.590  12.377  19.529 -0.1963  0.0401 -0.1535
  764BOLB   C3C18331  38.259  12.371  19.370 -0.1122 -0.3867 -0.0031
  764BOLB   C4C18332  37.944  12.624  19.286  0.2498 -0.1561  0.1361
  764BOLB   C1D18333  39.070  11.647  19.291  0.0072  0.1359 -0.0149
  764BOLB   C2D18334  38.792  11.490  19.160  0.2644 -0.1441 -0.1648
  764BOLB   C3D18335  38.463  11.768  18.957 -0.0632 -0.1513  0.0895
  764BOLB   C4D18336  38.365  12.215  18.835  0.1563  0.0315 -0.0167
  765BOLB   NC118337  14.557  21.983   8.032 -0.2995  0.0841  0.0899
  765BOLB   PO118338  15.035  22.148   8.050  0.1214  0.1355  0.0916
  765BOLB   GL118339  15.457  22.259   7.998 -0.2977 -0.2856  0.2832
  765BOLB   GL218340  15.609  21.976   8.054 -0.1334 -0.0362 -0.0631
  765BOLB   C1A18341  15.969  22.405   7.846  0.0723 -0.1611 -0.0071
  765BOLB   C2A18342  16.449  22.358   8.062 -0.2741  0.1060  0.3837
  765BOLB   C3A18343  16.627  22.664   8.232 -0.2956  0.1475  0.2678
  765BOLB   C4A18344  16.967  22.894   8.161  0.0391 -0.1909 -0.0098
  765BOLB   C1B18345  15.977  22.072   8.236 -0.2503  0.0318 -0.0167
  765BOLB   C2B18346  16.346  22.046   8.455  0.0746  0.1343 -0.0057
  765BOLB   C3B18347  16.763  21.870   8.720 -0.1447  0.2831 -0.2939
  765BOLB   C4B18348  17.095  21.981   9.061 -0.4572 -0.3009 -0.0879
  765BOLB   NC218349  19.203  23.522   8.668 -0.1740 -0.2973  0.0998
  765BOLB   PO218350  19.197  23.813   8.275 -0.1610  0.1141  0.1828
  765BOLB   GL318351  18.803  23.567   8.413  0.0778 -0.0357 -0.1144
  765BOLB   GL418352  18.661  23.302   8.603  0.0815 -0.3188 -0.1211
  765BOLB   C1C18353  18.331  23.607   8.363  0.1730 -0.0620  0.2686
  765BOLB   C2C18354  17.953  23.601   8.170 -0.1175  0.1935  0.1817
  765BOLB   C3C18355  17.594  23.450   8.198 -0.1456 -0.1642  0.0615
  765BOLB   C4C18356  17.200  23.219   8.115 -0.0809  0.1495 -0.2151
  765BOLB   C1D18357  18.316  23.021   8.676  0.0114  0.1050 -0.3907
  765BOLB   C2D18358  17.937  22.742   8.689  0.2008 -0.0600 -0.0301
  765BOLB   C3D18359  17.583  22.612   8.821 -0.2217 -0.0493  0.0392
  765BOLB   C4D18360  17.304  22.671   8.609  0.1232 -0.1644 -0.0786
  766BOLB   NC118361   8.245  15.827   3.518 -0.0908  0.2809 -0.0589
  766BOLB   PO118362   8.542  16.032   3.372  0.0482  0.0681  0.1468
  766BOLB   GL118363   8.443  15.772   3.032  0.0086 -0.3363 -0.0427
  766BOLB   GL218364   8.350  15.498   3.136 -0.0160 -0.1582  0.0242
  766BOLB   C1A18365   8.272  15.782   2.634 -0.1545  0.1193  0.1383
  766BOLB   C2A18366   8.147  15.809   2.157 -0.4383 -0.2344 -0.0289
  766BOLB   C3A18367   7.824  15.549   1.866  0.3895 -0.1546  0.0148
  766BOLB   C4A18368   7.662  15.620   1.540 -0.1723  0.1752  0.1137
  766BOLB   C1B18369   8.328  15.265   2.643 -0.2143  0.3974  0.0424
  766BOLB   C2B18370   8.426  14.960   2.273  0.1677 -0.2191  0.1894
  766BOLB   C3B18371   8.736  14.718   1.965 -0.1003  0.1046  0.0060
  766BOLB   C4B18372   9.023  14.449   1.771 -0.1803 -0.0022  0.1825
  766BOLB   NC218373   7.383  14.699  -1.202 -0.1505 -0.1582  0.1206
  766BOLB   PO218374   7.594  14.928  -0.953  0.1554 -0.3422  0.0502
  766BOLB   GL318375   7.437  15.090  -0.514  0.2963  0.1573  0.1511
  766BOLB   GL418376   7.416  15.481  -0.335  0.0325  0.5689  0.0031
  766BOLB   C1C18377   7.521  15.043   0.103  0.2279  0.2905 -0.1643
  766BOLB   C2C18378   7.469  15.086   0.471 -0.2463 -0.0691  0.0378
  766BOLB   C3C18379   7.553  15.152   0.937 -0.0554  0.0871 -0.1671
  766BOLB   C4C18380   7.431  15.315   1.291  0.1576  0.2228  0.3197
  766BOLB   C1D18381   7.459  15.556   0.166  0.1823  0.5043 -0.1819
  766BOLB   C2D18382   7.624  15.642   0.559  0.0970 -0.3307 -0.2987
  766BOLB   C3D18383   7.841  15.522   0.971  0.0424 -0.3827  0.0557
  766BOLB   C4D18384   7.966  15.209   1.254 -0.0880 -0.2155  0.2746
  767BOLB   NC118385   8.511  14.384  20.473  0.2101 -0.2103 -0.0231
  767BOLB   PO118386   8.539  14.640  20.201  0.1827  0.4134 -0.2045
  767BOLB   GL118387   8.475  14.904  19.951  0.0993 -0.1382 -0.2355
  767BOLB   GL218388   8.312  15.133  20.141  0.1821  0.0513  0.0812
  767BOLB   C1A18389   8.341  14.957  19.598 -0.0544 -0.1054  0.0232
  767BOLB   C2A18390   8.351  15.129  19.153 -0.1828 -0.0750 -0.0495
  767BOLB   C3A18391   8.674  15.163  18.889 -0.2335  0.1555  0.0780
  767BOLB   C4A18392   8.845  15.506  18.666 -0.0876 -0.0636 -0.0365
  767BOLB   C1B18393   8.245  15.395  19.839  0.2371  0.1197 -0.0159
  767BOLB   C2B18394   8.106  15.858  19.578  0.1280 -0.1528 -0.1406
  767BOLB   C3B18395   8.096  16.183  19.241 -0.1874  0.1505 -0.0739
  767BOLB   C4B18396   7.938  16.438  18.898 -0.4493 -0.1891  0.0479
  767BOLB   NC218397   9.563  14.187  19.874 -0.0970  0.3173  0.3507
  767BOLB   PO218398   9.427  14.111  19.517 -0.0732  0.1216 -0.4319
  767BOLB   GL318399   9.489  14.278  19.071  0.2676  0.1382  0.0293
  767BOLB   GL418400   9.684  14.557  19.116 -0.1099 -0.2646  0.0827
  767BOLB   C1C18401   9.484  14.605  18.638 -0.0008  0.2283 -0.2265
  767BOLB   C2C18402   9.536  14.967  18.670  0.0224 -0.2506  0.2324
  767BOLB   C3C18403   9.478  15.350  18.445 -0.2761  0.2817 -0.0381
  767BOLB   C4C18404   9.287  15.706  18.544  0.2356 -0.1434 -0.2105
  767BOLB   C1D18405   9.269  14.752  19.179  0.0284 -0.2870  0.1762
  767BOLB   C2D18406   8.813  14.747  19.081  0.1617  0.0689 -0.3398
  767BOLB   C3D18407   8.404  14.735  18.825  0.0637  0.0188  0.0715
  767BOLB   C4D18408   8.253  14.840  18.485 -0.1518 -0.5085 -0.2844
  768BOLB   NC118409  35.324  13.269   0.237  0.0673  0.0583 -0.3962
  768BOLB   PO118410  35.818  13.324   0.381  0.0163  0.1676 -0.0424
  768BOLB   GL118411  35.909  13.231   0.812 -0.0329  0.1953 -0.0779
  768BOLB   GL218412  36.215  13.340   1.028  0.0503 -0.0443  0.2348
  768BOLB   C1A18413  35.733  13.370   1.227 -0.2083  0.1222  0.0304
  768BOLB   C2A18414  35.475  13.478   1.511  0.0947 -0.0467 -0.1107
  768BOLB   C3A18415  35.418  13.352   1.967  0.2199 -0.2147 -0.1182
  768BOLB   C4A18416  35.118  13.521   2.356 -0.1112 -0.0712 -0.0078
  768BOLB   C1B18417  36.266  13.604   1.358 -0.3720 -0.3883  0.0721
  768BOLB   C2B18418  36.251  13.969   1.594 -0.1392  0.1192  0.2076
  768BOLB   C3B18419  36.220  14.264   1.877 -0.1638 -0.1758  0.1102
  768BOLB   C4B18420  36.295  14.360   2.349 -0.0712  0.0369 -0.1166
  768BOLB   NC218421  33.099  13.372   2.625 -0.1848  0.1686 -0.0748
  768BOLB   PO218422  33.216  13.870   2.596 -0.3044 -0.0033 -0.0352
  768BOLB   GL318423  33.584  14.087   2.789 -0.1002 -0.1550  0.1234
  768BOLB   GL418424  33.613  14.317   3.001 -0.0033  0.1719  0.2913
  768BOLB   C1C18425  34.027  14.231   2.752  0.1288 -0.1476 -0.2386
  768BOLB   C2C18426  34.426  14.139   2.676 -0.0706  0.2305 -0.0160
  768BOLB   C3C18427  34.752  14.244   2.527 -0.1007 -0.0190  0.0554
  768BOLB   C4C18428  35.018  13.983   2.516 -0.1099 -0.3293 -0.2993
  768BOLB   C1D18429  33.927  14.493   3.221  0.0472  0.0437 -0.1366
  768BOLB   C2D18430  33.907  14.819   3.509 -0.0845  0.0984 -0.2996
  768BOLB   C3D18431  33.937  15.143   3.701  0.4313 -0.0763 -0.0047
  768BOLB   C4D18432  34.002  15.493   3.907  0.0403  0.0310  0.0813
  769BOLB   NC118433   8.348  14.566  12.710  0.0032  0.1601  0.1592
  769BOLB   PO118434   8.246  14.163  12.483  0.0871 -0.0488 -0.0519
  769BOLB   GL118435   8.381  13.640  12.590  0.0224 -0.2044  0.0051
  769BOLB   GL218436   8.525  13.493  12.934  0.0052  0.0429 -0.1308
  769BOLB   C1A18437   8.569  13.231  12.514 -0.1664  0.1024  0.3204
  769BOLB   C2A18438   8.855  12.929  12.630  0.1098 -0.1416 -0.2001
  769BOLB   C3A18439   9.037  12.857  12.990 -0.1017  0.0185 -0.0690
  769BOLB   C4A18440   9.409  12.592  13.233 -0.0025 -0.1427  0.1480
  769BOLB   C1B18441   8.506  13.079  12.982  0.2740  0.0749 -0.3611
  769BOLB   C2B18442   8.645  12.896  13.351  0.0654  0.1352  0.1003
  769BOLB   C3B18443   8.832  12.604  13.591  0.0593 -0.2678  0.1626
  769BOLB   C4B18444   8.608  12.281  13.634  0.2188  0.4115  0.0135
  769BOLB   NC218445  10.291  10.497  13.777  0.2284 -0.4209 -0.0437
  769BOLB   PO218446   9.886  10.352  13.879  0.0184 -0.0280  0.1651
  769BOLB   GL318447   9.854  10.789  13.729  0.1760 -0.0060  0.0768
  769BOLB   GL418448  10.073  10.785  13.366 -0.0294 -0.2835 -0.0036
  769BOLB   C1C18449   9.521  11.115  13.727  0.2922  0.1518 -0.0453
  769BOLB   C2C18450   9.544  11.531  13.691 -0.0644  0.1720  0.1570
  769BOLB   C3C18451   9.320  11.762  13.512  0.1017  0.5469 -0.0106
  769BOLB   C4C18452   9.393  12.257  13.408 -0.1601 -0.2030 -0.5049
  769BOLB   C1D18453   9.987  11.274  13.078  0.0919 -0.0043 -0.3598
  769BOLB   C2D18454   9.688  11.603  12.960  0.0909 -0.2428  0.0534
  769BOLB   C3D18455   9.627  11.960  12.931  0.2099  0.0437  0.0225
  769BOLB   C4D18456   9.362  12.158  12.910  0.0754  0.1723  0.0031
  770BOLB   NC118457  28.422  18.891  13.234 -0.3095 -0.0694  0.2173
  770BOLB   PO118458  28.910  18.853  13.301 -0.1666 -0.1354 -0.0535
  770BOLB   GL118459  29.399  18.893  13.309  0.2958 -0.1279  0.0354
  770BOLB   GL218460  29.442  19.070  13.185  0.1786 -0.2824  0.2534
  770BOLB   C1A18461  29.853  18.727  13.343  0.0789  0.2104  0.0140
  770BOLB   C2A18462  30.332  18.707  13.169 -0.2221 -0.0466  0.1178
  770BOLB   C3A18463  30.687  18.646  13.350  0.0996 -0.1789 -0.2682
  770BOLB   C4A18464  30.933  18.686  13.765 -0.2211 -0.1593 -0.3534
  770BOLB   C1B18465  29.898  19.097  12.992  0.1686  0.2891 -0.4188
  770BOLB   C2B18466  30.295  19.231  13.059  0.0045  0.1558 -0.5606
  770BOLB   C3B18467  30.702  19.437  13.110 -0.1926 -0.2366 -0.0489
  770BOLB   C4B18468  30.996  19.681  12.808 -0.1824  0.2370 -0.2099
  770BOLB   NC218469  29.453  19.890  15.380 -0.3480 -0.2186 -0.0121
  770BOLB   PO218470  29.629  19.697  14.997 -0.1690  0.3124  0.2903
  770BOLB   GL318471  29.999  19.714  14.812  0.0577 -0.3888  0.2073
  770BOLB   GL418472  30.133  19.904  14.539  0.0098 -0.1313  0.0430
  770BOLB   C1C18473  30.224  19.497  14.805  0.0881  0.0309  0.2663
  770BOLB   C2C18474  30.206  19.302  14.417 -0.0627  0.0786  0.0987
  770BOLB   C3C18475  30.334  19.121  14.081 -0.0734  0.0005 -0.0060
  770BOLB   C4C18476  30.597  18.761  14.042  0.3474 -0.4123  0.3050
  770BOLB   C1D18477  30.353  19.760  14.212  0.0597  0.0435  0.0888
  770BOLB   C2D18478  30.700  19.482  14.069 -0.0912  0.1438  0.1824
  770BOLB   C3D18479  31.106  19.630  14.021  0.1694 -0.0285  0.4252
  770BOLB   C4D18480  31.275  19.982  13.816 -0.2013 -0.0382  0.1080
  771BOLB   NC118481   0.893  27.316  10.893 -0.0591  0.0004 -0.1468
  771BOLB   PO118482   0.952  26.969  10.638 -0.2165 -0.0953  0.5312
  771BOLB   GL118483   0.532  27.100  10.568 -0.0137  0.2087 -0.3032
  771BOLB   GL218484   0.278  26.961  10.719 -0.0907  0.0682  0.1339
  771BOLB   C1A18485   0.258  27.463  10.497  0.1284  0.1809 -0.2265
  771BOLB   C2A18486   0.229  27.920  10.483  0.2087 -0.3393 -0.1334
  771BOLB   C3A18487  -0.128  28.223  10.452  0.0240 -0.0357 -0.0743
  771BOLB   C4A18488  -0.178  28.719  10.424 -0.0960 -0.0366  0.1972
  771BOLB   C1B18489  -0.048  27.104  10.968  0.2481  0.3441  0.1239
  771BOLB   C2B18490  -0.214  27.435  11.105  0.3024 -0.1706  0.0913
  771BOLB   C3B18491  -0.212  27.850  11.223  0.2818  0.1611 -0.0181
  771BOLB   C4B18492  -0.084  28.253  11.385  0.1809 -0.1045 -0.0266
  771BOLB   NC218493  -1.240  29.875   8.754 -0.1315  0.0359  0.1700
  771BOLB   PO218494  -0.944  29.733   8.944 -0.0591 -0.2857 -0.1364
  771BOLB   GL318495  -1.166  29.353   9.085 -0.4523 -0.2340 -0.1662
  771BOLB   GL418496  -0.970  29.074   8.895  0.0740 -0.0426  0.3657
  771BOLB   C1C18497  -1.277  29.064   9.501  0.1862 -0.2076 -0.0631
  771BOLB   C2C18498  -1.124  28.979   9.935  0.0309  0.2157 -0.3866
  771BOLB   C3C18499  -0.826  29.072  10.146 -0.0495  0.1045  0.0303
  771BOLB   C4C18500  -0.401  29.041  10.173  0.1570 -0.0113 -0.1449
  771BOLB   C1D18501  -0.909  28.789   9.237 -0.2626  0.0386 -0.0180
  771BOLB   C2D18502  -0.600  28.751   9.630  0.0765 -0.1616  0.2735
  771BOLB   C3D18503  -0.213  28.719   9.810  0.0923  0.1203  0.2943
  771BOLB   C4D18504   0.150  28.759   9.604 -0.1542  0.0451 -0.0213
  772BOLB   NC118505   9.327  19.863  22.355 -0.1634 -0.1368 -0.1342
  772BOLB   PO118506   9.604  19.498  22.311 -0.0189 -0.0167  0.1531
  772BOLB   GL118507   9.600  19.422  21.871 -0.1841  0.3891 -0.1247
  772BOLB   GL218508   9.899  19.528  21.807  0.0974 -0.1590 -0.1317
  772BOLB   C1A18509   9.289  19.451  21.597  0.2382 -0.0204  0.2092
  772BOLB   C2A18510   8.984  19.447  21.285 -0.0024 -0.4967  0.2017
  772BOLB   C3A18511   8.672  19.607  20.990 -0.1235  0.0958  0.1198
  772BOLB   C4A18512   8.350  19.638  20.757 -0.0517  0.0595 -0.1365
  772BOLB   C1B18513   9.968  19.649  21.352 -0.0814  0.2081 -0.2089
  772BOLB   C2B18514  10.100  19.555  20.926  0.3937  0.3555  0.0502
  772BOLB   C3B18515  10.367  19.815  20.646 -0.1013  0.1003  0.1567
  772BOLB   C4B18516  10.622  19.725  20.276 -0.2870 -0.1803 -0.1210
  772BOLB   NC218517   6.671  18.826  22.795  0.1471 -0.0238  0.1980
  772BOLB   PO218518   7.110  19.012  22.526  0.1258 -0.0605 -0.4570
  772BOLB   GL318519   7.402  19.060  22.186 -0.2211 -0.0182 -0.5340
  772BOLB   GL418520   7.271  19.452  22.187  0.2984  0.2337 -0.0368
  772BOLB   C1C18521   7.597  19.317  21.822  0.2017  0.3374  0.0760
  772BOLB   C2C18522   7.647  19.538  21.497  0.1427 -0.0942  0.1653
  772BOLB   C3C18523   7.604  19.505  21.112  0.1091 -0.1285 -0.1210
  772BOLB   C4C18524   7.862  19.675  20.789  0.0844 -0.4572 -0.0249
  772BOLB   C1D18525   7.166  19.168  21.749 -0.1488  0.0491 -0.0298
  772BOLB   C2D18526   7.211  19.223  21.409  0.0359 -0.1876  0.2828
  772BOLB   C3D18527   7.100  19.586  21.226 -0.1084 -0.1160  0.0534
  772BOLB   C4D18528   6.609  19.660  21.313  0.0313 -0.3405  0.0855
  773BOLB   NC118529   3.035  28.321  10.056 -0.0221 -0.2541  0.0901
  773BOLB   PO118530   2.977  28.232   9.585  0.1644 -0.1302 -0.0683
  773BOLB   GL118531   2.798  28.657   9.717  0.1259 -0.0261 -0.1229
  773BOLB   GL218532   2.395  28.670   9.685  0.1274  0.0051 -0.1451
  773BOLB   C1A18533   2.660  29.039   9.505  0.0503  0.2377  0.0471
  773BOLB   C2A18534   2.583  29.378   9.372 -0.2292 -0.1593 -0.1086
  773BOLB   C3A18535   2.488  29.758   9.183  0.2832  0.2721 -0.0253
  773BOLB   C4A18536   2.305  30.165   9.267  0.0914  0.1820  0.0924
  773BOLB   C1B18537   2.323  28.976   9.898 -0.0067  0.2461 -0.1228
  773BOLB   C2B18538   2.353  29.352   9.957 -0.1088 -0.3337 -0.0779
  773BOLB   C3B18539   2.121  29.606  10.061 -0.1477  0.2373  0.0651
  773BOLB   C4B18540   1.856  30.007  10.042  0.0794 -0.3181 -0.0751
  773BOLB   NC218541   2.821  32.638  10.004 -0.0856  0.4538 -0.2016
  773BOLB   PO218542   2.956  32.492   9.610 -0.2006 -0.0223  0.0390
  773BOLB   GL318543   2.923  32.036   9.535  0.0999 -0.2494 -0.0833
  773BOLB   GL418544   3.022  31.753   9.717  0.0892 -0.0880 -0.0723
  773BOLB   C1C18545   2.554  31.791   9.278 -0.1010  0.0349  0.0285
  773BOLB   C2C18546   2.584  31.368   9.221  0.0937  0.2134 -0.0494
  773BOLB   C3C18547   2.615  30.962   9.296 -0.0114  0.2003 -0.0139
  773BOLB   C4C18548   2.392  30.520   9.355  0.3365 -0.4159  0.1056
  773BOLB   C1D18549   3.084  31.354   9.813 -0.2365  0.4212 -0.0142
  773BOLB   C2D18550   3.337  31.027   9.848  0.1389 -0.0180 -0.1828
  773BOLB   C3D18551   3.642  30.800  10.054 -0.2226 -0.1051  0.2163
  773BOLB   C4D18552   3.738  30.471  10.295 -0.0417  0.0264  0.2453
  774BOLB   NC118553  33.720  14.055   1.517  0.2022  0.4540  0.1381
  774BOLB   PO118554  33.802  14.401   1.822 -0.1046  0.0164 -0.0074
  774BOLB   GL118555  33.893  14.604   2.193 -0.4027  0.0250  0.1732
  774BOLB   GL218556  33.937  14.878   2.278  0.3864 -0.1271 -0.1991
  774BOLB   C1A18557  34.259  14.575   2.506  0.3946  0.2192  0.1522
  774BOLB   C2A18558  34.396  14.625   2.861  0.3185  0.0445 -0.2450
  774BOLB   C3A18559  34.651  14.883   2.737  0.1634 -0.0821 -0.0473
  774BOLB   C4A18560  34.966  14.822   2.449  0.0076  0.1189  0.1254
  774BOLB   C1B18561  34.314  15.007   2.280  0.0408  0.0402 -0.0526
  774BOLB   C2B18562  34.741  15.184   2.179 -0.0631  0.1210  0.0655
  774BOLB   C3B18563  34.897  15.668   2.029  0.2414  0.0686 -0.2585
  774BOLB   C4B18564  35.003  16.082   2.133  0.3308 -0.1452  0.1994
  774BOLB   NC218565  34.859  14.747   0.552  0.3100  0.0117  0.1225
  774BOLB   PO218566  34.992  14.311   0.414 -0.0292 -0.1869  0.1414
  774BOLB   GL318567  35.298  14.269   0.804  0.3267  0.0720  0.0202
  774BOLB   GL418568  35.602  14.268   0.743  0.2600  0.3244 -0.1097
  774BOLB   C1C18569  35.397  14.391   1.182  0.2084  0.0696 -0.2888
  774BOLB   C2C18570  35.447  14.572   1.464  0.1831 -0.2122 -0.1240
  774BOLB   C3C18571  35.323  14.684   1.840 -0.5298  0.4046 -0.0030
  774BOLB   C4C18572  35.116  14.775   2.091  0.1053  0.2682 -0.0774
  774BOLB   C1D18573  35.991  14.290   0.766 -0.0266  0.3359 -0.1375
  774BOLB   C2D18574  36.433  14.333   0.802  0.1509  0.0113  0.1657
  774BOLB   C3D18575  36.716  14.594   1.079  0.2671  0.1278 -0.0549
  774BOLB   C4D18576  36.929  15.055   1.086  0.1737 -0.3466 -0.0327
  775BOLB   NC118577  32.914  12.773  18.059 -0.1485  0.0590  0.1526
  775BOLB   PO118578  33.217  12.656  17.695 -0.0940  0.1338  0.0904
  775BOLB   GL118579  33.319  13.002  17.445 -0.0587  0.1660  0.1488
  775BOLB   GL218580  33.512  13.059  17.497 -0.2077 -0.1493 -0.4108
  775BOLB   C1A18581  33.568  13.260  17.073  0.1421  0.1887 -0.1820
  775BOLB   C2A18582  33.952  13.230  16.868 -0.0160  0.0711 -0.1578
  775BOLB   C3A18583  34.274  13.319  16.672 -0.1556 -0.0412 -0.1951
  775BOLB   C4A18584  34.553  13.257  16.425  0.4496 -0.2105  0.2315
  775BOLB   C1B18585  33.878  13.311  17.517  0.2286  0.0109  0.0225
  775BOLB   C2B18586  33.931  13.579  17.313  0.1274  0.4716 -0.1714
  775BOLB   C3B18587  33.973  13.792  16.928 -0.0312 -0.0477 -0.3239
  775BOLB   C4B18588  34.307  13.812  16.730  0.3239  0.1681  0.0777
  775BOLB   NC218589  34.654  10.783  17.449 -0.1167 -0.1981 -0.3354
  775BOLB   PO218590  34.365  11.163  17.383  0.1474 -0.0336 -0.0787
  775BOLB   GL318591  34.540  11.412  17.168 -0.0763 -0.2056 -0.1685
  775BOLB   GL418592  34.303  11.737  17.256 -0.1236  0.0069 -0.3216
  775BOLB   C1C18593  34.785  11.741  17.072 -0.0303 -0.0405  0.2046
  775BOLB   C2C18594  34.833  12.162  16.861  0.2508  0.0551  0.2264
  775BOLB   C3C18595  34.919  12.595  16.707  0.2169  0.1005  0.0239
  775BOLB   C4C18596  34.859  13.009  16.613 -0.1275 -0.1104 -0.2071
  775BOLB   C1D18597  34.364  12.119  16.942  0.2865 -0.2008 -0.2031
  775BOLB   C2D18598  34.409  12.399  16.652  0.0053  0.0165 -0.1445
  775BOLB   C3D18599  34.484  12.745  16.418 -0.0439 -0.2048  0.1399
  775BOLB   C4D18600  34.133  12.941  16.184  0.1038  0.0787  0.0681
  776BOLB   NC118601  29.356  17.317  11.154  0.0121 -0.2459  0.1455
  776BOLB   PO118602  29.302  17.548  10.659 -0.1874 -0.0493  0.1313
  776BOLB   GL118603  29.659  17.896  10.598 -0.1778 -0.1056  0.1737
  776BOLB   GL218604  29.907  17.750  10.421 -0.0249  0.0875  0.1755
  776BOLB   C1A18605  30.138  18.159  10.653  0.0839 -0.1158  0.0316
  776BOLB   C2A18606  30.420  18.392  10.426  0.0794 -0.2359 -0.1656
  776BOLB   C3A18607  30.725  18.618  10.706  0.0718 -0.1359  0.2281
  776BOLB   C4A18608  30.857  18.448  11.029  0.1323  0.0272 -0.0079
  776BOLB   C1B18609  30.385  17.624  10.589 -0.1160  0.0028  0.2097
  776BOLB   C2B18610  30.720  17.604  10.364  0.1529 -0.1954 -0.0917
  776BOLB   C3B18611  31.144  17.507  10.316 -0.2145  0.4411 -0.0497
  776BOLB   C4B18612  31.424  17.181  10.189  0.0786 -0.1038 -0.1366
  776BOLB   NC218613  29.620  17.665  12.077  0.0954 -0.0483 -0.2164
  776BOLB   PO218614  29.323  17.349  12.384  0.1033  0.0612  0.0342
  776BOLB   GL318615  29.783  17.228  12.424  0.1552  0.1850  0.0447
  776BOLB   GL418616  29.891  17.492  12.552 -0.1761 -0.0075 -0.1586
  776BOLB   C1C18617  30.108  17.246  12.074 -0.0010  0.1987 -0.1164
  776BOLB   C2C18618  30.463  17.398  11.690  0.1920  0.2362 -0.3217
  776BOLB   C3C18619  30.345  17.815  11.417  0.0703 -0.3039  0.0623
  776BOLB   C4C18620  30.723  18.226  11.397  0.1351  0.2562 -0.3728
  776BOLB   C1D18621  30.063  17.313  12.928 -0.0651  0.0142 -0.0047
  776BOLB   C2D18622  30.358  17.178  13.270  0.1198 -0.1384  0.1680
  776BOLB   C3D18623  30.667  16.885  13.224  0.1327  0.2413 -0.1108
  776BOLB   C4D18624  31.002  16.861  13.013  0.3506 -0.0121 -0.2079
  777BOLB   NC118625  10.066  32.263  11.623  0.1813 -0.0500 -0.1733
  777BOLB   PO118626  10.391  32.356  11.869 -0.1515  0.2608 -0.0044
  777BOLB   GL118627  10.377  31.920  11.736  0.2282 -0.3187  0.0606
  777BOLB   GL218628  10.679  31.889  11.619  0.0595 -0.0095 -0.4706
  777BOLB   C1A18629  10.439  31.494  11.770  0.0927 -0.0254 -0.2311
  777BOLB   C2A18630  10.420  31.139  11.531  0.0827  0.0308  0.1175
  777BOLB   C3A18631  10.556  30.744  11.517  0.1324 -0.1166  0.1579
  777BOLB   C4A18632  10.918  30.710  11.271 -0.3107  0.2737 -0.0192
  777BOLB   C1B18633  10.391  31.666  11.317  0.3431 -0.3536 -0.1327
  777BOLB   C2B18634  10.061  31.384  11.284  0.3123 -0.4311  0.4171
  777BOLB   C3B18635   9.798  30.981  11.048  0.0428  0.1558 -0.2288
  777BOLB   C4B18636   9.500  30.597  10.915  0.0449  0.0402  0.1503
  777BOLB   NC218637  12.780  31.795  10.193  0.4354 -0.0670  0.1376
  777BOLB   PO218638  12.576  31.979  10.598 -0.1288  0.2106 -0.0475
  777BOLB   GL318639  12.586  31.536  10.760 -0.1283  0.0992 -0.2066
  777BOLB   GL418640  12.748  31.326  10.969 -0.0185 -0.3691  0.0108
  777BOLB   C1C18641  12.249  31.281  11.002  0.2100  0.4504  0.2117
  777BOLB   C2C18642  11.936  31.213  11.204  0.2135  0.0760 -0.1880
  777BOLB   C3C18643  11.526  31.246  11.427  0.1227  0.2845  0.1196
  777BOLB   C4C18644  11.237  30.873  11.388  0.0244 -0.1647  0.0040
  777BOLB   C1D18645  12.545  30.919  10.921  0.1472  0.0757 -0.0857
  777BOLB   C2D18646  12.120  30.736  11.086  0.4205 -0.0898  0.3760
  777BOLB   C3D18647  11.794  30.363  11.058  0.0885  0.1014  0.4011
  777BOLB   C4D18648  11.478  30.079  11.097 -0.0843  0.1408  0.2991
  778BOLB   NC118649   2.624  31.757  13.895 -0.0985 -0.0013  0.1945
  778BOLB   PO118650   2.808  31.572  14.270  0.0711  0.0717 -0.0941
  778BOLB   GL118651   2.973  31.115  14.325 -0.1287 -0.0732  0.2969
  778BOLB   GL218652   2.792  31.096  14.609 -0.1170 -0.0517  0.3514
  778BOLB   C1A18653   3.268  30.781  14.221  0.2178 -0.0622 -0.1025
  778BOLB   C2A18654   3.417  30.586  13.804 -0.0761 -0.0228  0.0400
  778BOLB   C3A18655   3.414  30.168  13.780 -0.0454 -0.0978  0.3379
  778BOLB   C4A18656   3.185  29.853  14.084  0.1904 -0.0422 -0.0702
  778BOLB   C1B18657   2.940  30.748  14.656  0.0354  0.1004 -0.3707
  778BOLB   C2B18658   3.200  30.282  14.522 -0.3845 -0.4617 -0.2964
  778BOLB   C3B18659   3.527  30.275  14.770  0.0367 -0.1378  0.0082
  778BOLB   C4B18660   3.874  30.090  14.984 -0.2268  0.1068 -0.1484
  778BOLB   NC218661   2.426  31.293  15.152  0.0957  0.3988 -0.2140
  778BOLB   PO218662   2.119  31.072  15.117 -0.0111 -0.0229  0.2275
  778BOLB   GL318663   2.314  30.762  15.163  0.0002  0.3260  0.1009
  778BOLB   GL418664   2.432  30.726  14.890  0.0466  0.0609  0.0393
  778BOLB   C1C18665   2.485  30.340  15.162 -0.0973  0.2182 -0.2664
  778BOLB   C2C18666   2.645  29.903  15.078 -0.0338  0.1838  0.1555
  778BOLB   C3C18667   2.814  29.682  14.774  0.1734 -0.0595 -0.4559
  778BOLB   C4C18668   3.065  29.617  14.535 -0.0706  0.3866  0.0771
  778BOLB   C1D18669   2.464  30.627  14.425 -0.1876 -0.2367  0.0823
  778BOLB   C2D18670   2.360  30.789  14.024  0.2216  0.0302  0.0389
  778BOLB   C3D18671   2.415  30.691  13.612  0.1448 -0.4126  0.0610
  778BOLB   C4D18672   2.749  30.578  13.389  0.0687 -0.2197 -0.1756
  779BOLB   NC118673  14.002  12.269   6.056 -0.0517  0.1157  0.1816
  779BOLB   PO118674  14.240  12.546   5.889  0.1536 -0.1219 -0.1292
  779BOLB   GL118675  14.086  12.766   6.116  0.0172  0.0909 -0.0619
  779BOLB   GL218676  14.240  13.045   5.947  0.0838  0.2471  0.0522
  779BOLB   C1A18677  14.185  12.854   6.554 -0.1175 -0.2800  0.0790
  779BOLB   C2A18678  14.025  13.140   6.805 -0.2744 -0.4362 -0.3041
  779BOLB   C3A18679  13.736  13.095   7.025  0.0332 -0.2895 -0.1776
  779BOLB   C4A18680  13.784  13.472   7.371  0.1377 -0.2062  0.0638
  779BOLB   C1B18681  13.946  13.193   6.309 -0.1601 -0.0884 -0.2421
  779BOLB   C2B18682  13.623  13.381   6.569  0.2248  0.1185 -0.0911
  779BOLB   C3B18683  13.556  13.612   6.888  0.2597  0.2249  0.0300
  779BOLB   C4B18684  13.328  13.938   6.969 -0.0714 -0.0652  0.0858
  779BOLB   NC218685  15.413  12.937   8.332  0.0734  0.6054 -0.1561
  779BOLB   PO218686  15.419  12.858   7.940 -0.0949 -0.1719 -0.1352
  779BOLB   GL318687  15.192  13.115   7.893 -0.1436 -0.0358  0.1409
  779BOLB   GL418688  14.978  13.150   8.127 -0.0472  0.0697  0.1979
  779BOLB   C1C18689  15.136  13.619   7.771 -0.0495  0.2321  0.1474
  779BOLB   C2C18690  14.759  13.803   7.660  0.1807  0.1397 -0.0314
  779BOLB   C3C18691  14.436  13.951   7.492 -0.3026 -0.0317 -0.1588
  779BOLB   C4C18692  13.994  13.870   7.601  0.0050  0.0920  0.2281
  779BOLB   C1D18693  14.668  13.359   7.920 -0.3238  0.4198  0.2023
  779BOLB   C2D18694  14.248  13.293   8.053  0.0481 -0.0550 -0.2764
  779BOLB   C3D18695  14.052  12.965   7.972  0.0870  0.2641  0.0747
  779BOLB   C4D18696  13.789  12.631   7.884 -0.1044  0.0314 -0.0823
  780BOLB   NC118697   0.204  19.448  25.980 -0.1443  0.0519  0.1867
  780BOLB   PO118698   0.102  19.860  26.036 -0.4660  0.1748  0.2080
  780BOLB   GL118699   0.166  19.693  26.495  0.1784  0.1733 -0.0944
  780BOLB   GL218700   0.181  19.333  26.678 -0.0709 -0.2016 -0.0616
  780BOLB   C1A18701   0.111  19.806  26.937 -0.0544  0.1119 -0.3847
  780BOLB   C2A18702   0.034  19.676  27.361 -0.2887 -0.0180  0.1269
  780BOLB   C3A18703   0.263  19.370  27.666  0.0265 -0.0902  0.0038
  780BOLB   C4A18704   0.331  18.898  27.859  0.5171  0.0864 -0.0397
  780BOLB   C1B18705  -0.011  19.208  27.031  0.3216  0.1825  0.0468
  780BOLB   C2B18706  -0.143  19.167  27.452  0.3559  0.0395  0.2117
  780BOLB   C3B18707  -0.464  19.357  27.741  0.0435  0.1554  0.1483
  780BOLB   C4B18708  -0.790  19.639  27.627 -0.1383 -0.0291 -0.2833
  780BOLB   NC218709  -0.211  17.898  25.788  0.0657  0.1227  0.0926
  780BOLB   PO218710  -0.021  18.034  26.003  0.0980  0.0817 -0.0499
  780BOLB   GL318711  -0.253  18.059  26.292 -0.1337  0.1866  0.0694
  780BOLB   GL418712  -0.607  18.095  26.319 -0.2811 -0.1984  0.1595
  780BOLB   C1C18713  -0.284  18.004  26.785  0.0076 -0.3328 -0.0192
  780BOLB   C2C18714  -0.344  18.200  27.106  0.1430  0.0103  0.2594
  780BOLB   C3C18715  -0.192  18.141  27.489 -0.1243  0.2109 -0.1585
  780BOLB   C4C18716   0.047  18.519  27.826  0.2417 -0.3339  0.0435
  780BOLB   C1D18717  -0.604  18.391  26.687 -0.1104 -0.3198 -0.0148
  780BOLB   C2D18718  -0.765  18.456  27.108  0.0548 -0.3611 -0.0836
  780BOLB   C3D18719  -0.699  18.197  27.459  0.0971 -0.0939  0.2472
  780BOLB   C4D18720  -0.613  17.771  27.690  0.0053  0.0961  0.1062
  781BOLB   NC118721  38.163  11.618  20.409 -0.0545 -0.0461 -0.0171
  781BOLB   PO118722  37.950  11.835  20.229 -0.2058 -0.2555 -0.0011
  781BOLB   GL118723  37.753  11.994  19.833 -0.0791  0.3183  0.1719
  781BOLB   GL218724  37.588  12.207  20.098 -0.0301 -0.0584  0.2415
  781BOLB   C1A18725  37.413  12.027  19.607  0.0255  0.0020  0.1078
  781BOLB   C2A18726  37.270  12.248  19.228  0.0875  0.1186 -0.3675
  781BOLB   C3A18727  37.187  12.653  19.005 -0.3325 -0.2299 -0.1523
  781BOLB   C4A18728  37.092  13.044  18.726  0.1179 -0.3149 -0.0405
  781BOLB   C1B18729  37.227  12.373  19.907  0.1152  0.0283 -0.2361
  781BOLB   C2B18730  36.931  12.126  19.612 -0.3035 -0.1691 -0.1326
  781BOLB   C3B18731  36.477  11.960  19.516  0.2258 -0.0509 -0.1606
  781BOLB   C4B18732  36.116  12.212  19.374  0.1885  0.0842 -0.2527
  781BOLB   NC218733  35.608  11.816  20.295 -0.0123 -0.2716  0.0348
  781BOLB   PO218734  35.536  12.276  20.170  0.2617 -0.0694 -0.2337
  781BOLB   GL318735  35.572  12.455  19.736 -0.0566  0.1138 -0.2194
  781BOLB   GL418736  35.262  12.694  19.670 -0.3117  0.2002  0.0014
  781BOLB   C1C18737  35.719  12.478  19.273 -0.2448 -0.0528  0.0520
  781BOLB   C2C18738  35.975  12.763  18.980  0.1810  0.3736  0.1203
  781BOLB   C3C18739  36.365  12.899  18.727 -0.1818 -0.2965 -0.0240
  781BOLB   C4C18740  36.737  13.042  18.574 -0.3283 -0.0261  0.0926
  781BOLB   C1D18741  35.448  12.840  19.178 -0.0140  0.5060 -0.2175
  781BOLB   C2D18742  35.446  12.904  18.770  0.0347 -0.0644 -0.3435
  781BOLB   C3D18743  35.295  12.741  18.424 -0.1725  0.2145 -0.2486
  781BOLB   C4D18744  35.185  12.647  18.069 -0.0312  0.1115  0.0313
  782BOLB   NC118745  35.046   8.433  14.776 -0.0969 -0.1821 -0.1487
  782BOLB   PO118746  35.324   8.652  14.924 -0.1016  0.3302 -0.3197
  782BOLB   GL118747  35.714   8.913  14.831  0.0018 -0.2747  0.1745
  782BOLB   GL218748  35.977   8.788  14.747  0.0421 -0.0010 -0.1058
  782BOLB   C1A18749  36.074   9.262  14.760 -0.2457  0.2842 -0.0152
  782BOLB   C2A18750  36.409   9.483  14.852  0.0028  0.0768 -0.0026
  782BOLB   C3A18751  36.753   9.768  14.911 -0.1566  0.0471  0.1268
  782BOLB   C4A18752  37.149   9.537  15.154 -0.0523  0.0154  0.0090
  782BOLB   C1B18753  36.215   8.837  14.410 -0.1334  0.0921  0.0355
  782BOLB   C2B18754  36.372   9.220  14.279 -0.2979  0.0910  0.0291
  782BOLB   C3B18755  36.501   9.345  13.873 -0.2784  0.0997 -0.0712
  782BOLB   C4B18756  36.568   9.458  13.401  0.0899  0.0762  0.2038
  782BOLB   NC218757  37.021   9.112  17.372  0.1090  0.0944 -0.0115
  782BOLB   PO218758  37.206   8.861  17.045 -0.1353 -0.2009 -0.2791
  782BOLB   GL318759  37.127   9.371  16.850 -0.2221 -0.0836 -0.1148
  782BOLB   GL418760  36.883   9.509  17.030 -0.1495 -0.0367 -0.1801
  782BOLB   C1C18761  37.262   9.647  16.672 -0.0742 -0.1408 -0.0362
  782BOLB   C2C18762  37.363   9.679  16.281 -0.1034  0.2671 -0.0182
  782BOLB   C3C18763  37.419   9.562  15.801 -0.0879  0.0402  0.0799
  782BOLB   C4C18764  37.227   9.451  15.563  0.0331  0.0763  0.2662
  782BOLB   C1D18765  37.052   9.947  17.105 -0.1454 -0.1872  0.2248
  782BOLB   C2D18766  37.320  10.124  16.921 -0.0447  0.4714  0.1236
  782BOLB   C3D18767  37.557  10.125  16.486  0.1065  0.0729 -0.3601
  782BOLB   C4D18768  37.626  10.046  15.975 -0.1398 -0.1525  0.1255
  783BOLB   NC118769  32.405  13.857   3.446 -0.1529 -0.2782  0.3026
  783BOLB   PO118770  32.812  13.918   3.547  0.0492 -0.4278  0.2296
  783BOLB   GL118771  33.330  14.015   3.723 -0.0393  0.1704  0.1602
  783BOLB   GL218772  33.555  14.171   3.535 -0.0352 -0.0373 -0.0391
  783BOLB   C1A18773  33.442  14.106   4.151 -0.0233  0.0647  0.1401
  783BOLB   C2A18774  33.665  14.485   4.332 -0.3333 -0.1733  0.0911
  783BOLB   C3A18775  33.992  14.627   4.597 -0.1043 -0.0889 -0.1423
  783BOLB   C4A18776  33.907  14.868   4.981 -0.1459 -0.0728  0.0251
  783BOLB   C1B18777  33.741  14.409   3.801 -0.0642  0.3054 -0.1383
  783BOLB   C2B18778  34.080  14.578   3.937  0.0037 -0.3177 -0.1992
  783BOLB   C3B18779  34.121  14.963   4.115  0.2979 -0.0275 -0.1821
  783BOLB   C4B18780  34.129  15.383   4.423  0.0699 -0.1448  0.0952
  783BOLB   NC218781  32.013  13.853   5.350 -0.3369  0.1910 -0.3358
  783BOLB   PO218782  32.078  14.117   5.263 -0.0656  0.0223  0.1527
  783BOLB   GL318783  32.302  14.550   5.563 -0.1081 -0.0147 -0.0936
  783BOLB   GL418784  32.179  14.774   5.814 -0.2166  0.2056 -0.2355
  783BOLB   C1C18785  32.636  14.776   5.466  0.1907  0.3820  0.0664
  783BOLB   C2C18786  33.139  14.973   5.489 -0.1019  0.1490 -0.0880
  783BOLB   C3C18787  33.505  15.280   5.527  0.0743 -0.0248 -0.1131
  783BOLB   C4C18788  33.638  15.022   5.303  0.1830  0.0926 -0.1011
  783BOLB   C1D18789  32.595  14.731   5.949 -0.0615 -0.1146  0.3008
  783BOLB   C2D18790  32.886  14.459   5.885 -0.1970 -0.1114  0.0865
  783BOLB   C3D18791  33.298  14.490   5.973 -0.1918  0.0644  0.4673
  783BOLB   C4D18792  33.425  14.934   5.951  0.4088  0.0144 -0.0625
  784BOLB   NC118793  31.947  16.100  19.146  0.1799 -0.0666 -0.1745
  784BOLB   PO118794  31.889  16.493  19.005 -0.3534  0.0688  0.0485
  784BOLB   GL118795  32.071  16.519  18.621 -0.2629  0.3079  0.0102
  784BOLB   GL218796  32.252  16.262  18.730 -0.0241 -0.1335 -0.2248
  784BOLB   C1A18797  32.372  16.529  18.269 -0.2680 -0.0248  0.0313
  784BOLB   C2A18798  32.630  16.326  18.010  0.0668  0.1422 -0.3358
  784BOLB   C3A18799  32.706  16.206  17.513 -0.1658  0.0609  0.1519
  784BOLB   C4A18800  32.486  16.176  17.122  0.1352 -0.0287  0.0069
  784BOLB   C1B18801  32.574  16.062  18.561  0.0181  0.0965 -0.6303
  784BOLB   C2B18802  33.067  15.989  18.486 -0.2742 -0.2434 -0.0012
  784BOLB   C3B18803  33.418  15.740  18.583  0.0443  0.0988 -0.2357
  784BOLB   C4B18804  33.856  15.834  18.690 -0.2349 -0.0993  0.1895
  784BOLB   NC218805  31.204  14.339  17.431 -0.0317  0.0865 -0.0974
  784BOLB   PO218806  31.630  14.423  17.244  0.2435 -0.0015  0.1611
  784BOLB   GL318807  31.880  14.789  17.001 -0.2501 -0.1231 -0.1858
  784BOLB   GL418808  31.942  15.074  17.287 -0.1077  0.1419  0.0426
  784BOLB   C1C18809  32.191  15.121  16.814  0.5520 -0.0681 -0.1798
  784BOLB   C2C18810  32.423  15.397  16.786 -0.0096  0.0505 -0.2546
  784BOLB   C3C18811  32.670  15.785  16.625 -0.0707 -0.3829 -0.2568
  784BOLB   C4C18812  32.695  16.143  16.786 -0.1393 -0.2620  0.1235
  784BOLB   C1D18813  32.466  15.176  17.278  0.1914 -0.0967 -0.3504
  784BOLB   C2D18814  32.849  15.338  17.140 -0.0568 -0.0834 -0.2374
  784BOLB   C3D18815  33.276  15.487  17.025  0.0938 -0.1534  0.0278
  784BOLB   C4D18816  33.457  15.366  16.623  0.0210  0.0832 -0.1057
  785BOLB   NC118817  32.531  13.596  18.459 -0.0602 -0.1260 -0.2645
  785BOLB   PO118818  32.715  13.255  18.134  0.2535  0.0489  0.1001
  785BOLB   GL118819  33.020  13.430  17.759 -0.0921  0.1709  0.2186
  785BOLB   GL218820  33.332  13.298  17.935  0.1591 -0.4148 -0.1620
  785BOLB   C1A18821  33.433  13.580  17.521 -0.0264  0.1243  0.0235
  785BOLB   C2A18822  33.553  13.896  17.253  0.0403 -0.0220  0.1179
  785BOLB   C3A18823  33.790  14.278  17.093 -0.0748 -0.1860  0.0002
  785BOLB   C4A18824  33.654  14.542  16.762  0.1210  0.0969 -0.3950
  785BOLB   C1B18825  33.737  13.293  18.025  0.0634 -0.0589 -0.2020
  785BOLB   C2B18826  34.100  13.430  17.903  0.1267 -0.0716  0.1109
  785BOLB   C3B18827  34.272  13.698  17.615 -0.0933 -0.0647  0.2822
  785BOLB   C4B18828  34.271  13.975  17.261 -0.0954 -0.1046  0.3602
  785BOLB   NC218829  31.151  14.779  16.531 -0.0199 -0.2368 -0.1045
  785BOLB   PO218830  31.224  14.392  16.389 -0.1940 -0.0018 -0.2810
  785BOLB   GL318831  31.599  14.599  16.526  0.1571 -0.2927 -0.2874
  785BOLB   GL418832  31.843  14.514  16.243 -0.1254 -0.0032  0.0996
  785BOLB   C1C18833  32.103  14.664  16.562  0.3075 -0.1779 -0.0946
  785BOLB   C2C18834  32.530  14.881  16.602 -0.5602  0.2656 -0.2542
  785BOLB   C3C18835  32.900  14.843  16.847 -0.1544  0.2008  0.0156
  785BOLB   C4C18836  33.423  14.846  16.780  0.2866 -0.2199 -0.0117
  785BOLB   C1D18837  32.329  14.458  16.169  0.2876 -0.2528  0.1161
  785BOLB   C2D18838  32.607  14.323  15.907 -0.1707  0.0659 -0.0448
  785BOLB   C3D18839  32.967  14.175  16.004  0.0105  0.3138 -0.1750
  785BOLB   C4D18840  33.296  14.124  15.831  0.1378  0.0216 -0.0471
  786BOLB   NC118841  10.216   9.787  11.478  0.2560  0.1541  0.3208
  786BOLB   PO118842   9.758   9.753  11.524 -0.5899 -0.3480  0.1666
  786BOLB   GL118843   9.469   9.971  11.341 -0.2669  0.1290  0.0974
  786BOLB   GL218844   9.312  10.171  11.523  0.2174 -0.0045  0.1903
  786BOLB   C1A18845   9.315  10.409  11.120  0.0416  0.0225  0.0067
  786BOLB   C2A18846   9.222  10.791  10.857  0.3720 -0.2976  0.1042
  786BOLB   C3A18847   9.149  11.052  10.563 -0.1169 -0.1039  0.2581
  786BOLB   C4A18848   8.792  11.267  10.502  0.3231  0.0326 -0.0522
  786BOLB   C1B18849   9.562  10.536  11.526  0.1090  0.1420 -0.1832
  786BOLB   C2B18850   9.550  10.882  11.251 -0.0872  0.1454 -0.0190
  786BOLB   C3B18851   9.259  11.219  11.078  0.2484 -0.1810 -0.2818
  786BOLB   C4B18852   9.143  11.534  10.791  0.0212  0.1105 -0.0834
  786BOLB   NC218853   8.029  13.612  10.414  0.0978 -0.1686  0.2029
  786BOLB   PO218854   8.366  13.423  10.314 -0.0086  0.1792 -0.0087
  786BOLB   GL318855   8.360  13.121  10.262 -0.2210  0.2158  0.2427
  786BOLB   GL418856   8.661  12.935  10.489  0.0107 -0.2676  0.1619
  786BOLB   C1C18857   8.372  12.669  10.138  0.2816 -0.2003 -0.1408
  786BOLB   C2C18858   8.470  12.239  10.128 -0.1880  0.0979  0.0034
  786BOLB   C3C18859   8.734  11.990  10.328  0.2619 -0.0381  0.0266
  786BOLB   C4C18860   8.673  11.675  10.616 -0.2747  0.1845 -0.1131
  786BOLB   C1D18861   8.632  12.465  10.568  0.1882 -0.0357 -0.2945
  786BOLB   C2D18862   8.593  12.119  10.778 -0.2799  0.0513  0.2488
  786BOLB   C3D18863   8.885  11.977  11.020  0.0676 -0.1876 -0.0210
  786BOLB   C4D18864   9.277  11.887  11.108 -0.2021 -0.3001 -0.2357
  787BOLB   NC118865  17.784  24.788   5.079  0.1320  0.2672  0.0248
  787BOLB   PO118866  17.837  25.144   5.336 -0.0071 -0.0197  0.1378
  787BOLB   GL118867  17.688  24.837   5.669 -0.3072  0.1680 -0.1646
  787BOLB   GL218868  17.464  24.604   5.456 -0.0252  0.1374 -0.2603
  787BOLB   C1A18869  17.597  24.520   5.981  0.0255  0.2560  0.3510
  787BOLB   C2A18870  17.780  24.445   6.448 -0.2977  0.2396  0.0306
  787BOLB   C3A18871  17.413  24.403   6.688  0.1371  0.0624 -0.1042
  787BOLB   C4A18872  17.318  24.368   7.133  0.0051  0.3986  0.0246
  787BOLB   C1B18873  17.147  24.447   5.752  0.1049  0.2783 -0.0361
  787BOLB   C2B18874  16.774  24.332   5.946  0.0291 -0.3293  0.3079
  787BOLB   C3B18875  16.473  24.057   6.002  0.1117  0.2278 -0.0674
  787BOLB   C4B18876  16.188  23.746   5.763  0.2198 -0.0626  0.2053
  787BOLB   NC218877  18.840  24.224   9.159  0.1106 -0.1972  0.3169
  787BOLB   PO218878  18.569  24.653   9.297 -0.0027 -0.0098  0.4149
  787BOLB   GL318879  18.551  24.445   8.864  0.1274 -0.0694  0.3100
  787BOLB   GL418880  18.674  24.458   8.575 -0.0856  0.1452 -0.0554
  787BOLB   C1C18881  18.162  24.395   8.653  0.1017  0.1671 -0.1639
  787BOLB   C2C18882  17.880  24.397   8.411  0.1034 -0.2786 -0.0544
  787BOLB   C3C18883  17.669  24.282   8.172 -0.1669 -0.0489  0.2551
  787BOLB   C4C18884  17.324  24.253   7.718 -0.0065 -0.2345 -0.2879
  787BOLB   C1D18885  18.422  24.378   8.248 -0.1870 -0.2502 -0.0818
  787BOLB   C2D18886  18.170  24.027   8.139  0.2088  0.1265  0.2958
  787BOLB   C3D18887  18.065  23.847   7.722  0.0441  0.0085  0.0687
  787BOLB   C4D18888  18.269  23.904   7.396  0.2842  0.1901  0.0478
  788BOLB   NC118889   8.450  21.263  24.497  0.1201  0.0757 -0.1429
  788BOLB   PO118890   8.543  20.894  24.421 -0.0355 -0.1154 -0.1314
  788BOLB   GL118891   8.796  20.764  24.744  0.0758  0.3805 -0.1024
  788BOLB   GL218892   8.850  20.502  24.854  0.1073 -0.0263  0.0100
  788BOLB   C1A18893   8.811  20.939  25.164  0.0628  0.1284 -0.0014
  788BOLB   C2A18894   8.978  20.976  25.543 -0.1623  0.3206  0.0339
  788BOLB   C3A18895   9.164  20.965  26.017  0.1104 -0.0954  0.1121
  788BOLB   C4A18896   9.025  20.842  26.453  0.2287  0.0863  0.1616
  788BOLB   C1B18897   8.977  20.447  25.323  0.2098 -0.1041 -0.0189
  788BOLB   C2B18898   9.033  20.419  25.743  0.1580 -0.4563 -0.0389
  788BOLB   C3B18899   8.773  20.636  25.994  0.0750  0.2416  0.0353
  788BOLB   C4B18900   8.389  20.536  26.003 -0.1225  0.1160 -0.0120
  788BOLB   NC218901   8.761  21.132  28.975 -0.0931  0.0702 -0.1820
  788BOLB   PO218902   8.852  20.949  28.601  0.1556 -0.1700 -0.0712
  788BOLB   GL318903   8.941  20.987  28.210 -0.2068  0.0546 -0.2782
  788BOLB   GL418904   9.189  21.143  28.169  0.2346  0.0740  0.1800
  788BOLB   C1C18905   8.754  21.174  27.740 -0.0225  0.2088 -0.1196
  788BOLB   C2C18906   8.942  21.309  27.307 -0.3652  0.1873 -0.2900
  788BOLB   C3C18907   8.916  21.366  26.852  0.4052  0.0459 -0.0014
  788BOLB   C4C18908   8.995  21.239  26.537 -0.0116  0.0578  0.2543
  788BOLB   C1D18909   9.274  21.124  27.744 -0.2274 -0.0170  0.0824
  788BOLB   C2D18910   9.559  21.268  27.488  0.1944 -0.0835  0.1532
  788BOLB   C3D18911   9.413  21.285  27.032  0.1908  0.0136  0.3142
  788BOLB   C4D18912   9.501  21.458  26.795 -0.3073  0.0482  0.0201
  789BOLB   NC118913  14.914  19.803   6.573 -0.0940  0.0418  0.0322
  789BOLB   PO118914  15.118  19.983   6.921  0.1405 -0.1693  0.3163
  789BOLB   GL118915  15.623  20.215   6.715 -0.0835  0.0643 -0.0242
  789BOLB   GL218916  15.724  20.351   6.483 -0.0692  0.4210  0.1044
  789BOLB   C1A18917  15.937  20.608   6.857 -0.1375 -0.2461  0.1120
  789BOLB   C2A18918  16.128  20.713   7.113  0.3498  0.3185 -0.1782
  789BOLB   C3A18919  16.443  20.818   7.436 -0.1597 -0.1611 -0.1021
  789BOLB   C4A18920  16.887  20.924   7.443  0.2644 -0.1435 -0.0566
  789BOLB   C1B18921  16.095  20.567   6.283 -0.1439 -0.0023  0.3009
  789BOLB   C2B18922  16.457  20.807   6.165 -0.0416  0.3684 -0.0210
  789BOLB   C3B18923  16.831  20.960   6.343 -0.0232 -0.0242  0.0170
  789BOLB   C4B18924  17.114  21.083   6.614 -0.0440  0.1127 -0.0138
  789BOLB   NC218925  19.315  21.786   8.063  0.0096  0.3990 -0.1858
  789BOLB   PO218926  19.326  21.966   7.604  0.1286  0.0314 -0.0763
  789BOLB   GL318927  18.957  21.924   7.753 -0.0248 -0.1004 -0.0796
  789BOLB   GL418928  18.891  21.619   7.866 -0.0012 -0.5957  0.1102
  789BOLB   C1C18929  18.457  21.822   7.713  0.1183  0.0916 -0.3401
  789BOLB   C2C18930  18.045  21.700   7.780  0.0295 -0.2536  0.4620
  789BOLB   C3C18931  17.753  21.364   7.637  0.2257 -0.0720 -0.0445
  789BOLB   C4C18932  17.228  21.267   7.608 -0.0310  0.0636 -0.0818
  789BOLB   C1D18933  18.461  21.330   8.000 -0.0266 -0.3614  0.0468
  789BOLB   C2D18934  17.985  21.151   8.063  0.2056 -0.1226  0.1629
  789BOLB   C3D18935  17.539  20.977   7.988  0.0514 -0.3774  0.3775
  789BOLB   C4D18936  17.019  20.882   7.937  0.4612 -0.0088 -0.1233
  790BOLB   NC118937   8.356  16.827   3.167  0.3807 -0.0410 -0.1035
  790BOLB   PO118938   8.538  17.252   2.926  0.1173 -0.0575  0.2954
  790BOLB   GL118939   8.387  17.194   2.485  0.3057  0.1647  0.3863
  790BOLB   GL218940   8.308  17.375   2.274 -0.1448 -0.0044  0.0320
  790BOLB   C1A18941   8.666  16.920   2.265  0.0201 -0.3679  0.0596
  790BOLB   C2A18942   8.628  16.552   1.949 -0.2427 -0.1695  0.2233
  790BOLB   C3A18943   8.956  16.388   1.609 -0.0602  0.1057 -0.2385
  790BOLB   C4A18944   9.085  16.083   1.276  0.4006  0.1611  0.1833
  790BOLB   C1B18945   8.346  17.287   1.901 -0.0355 -0.1781  0.2013
  790BOLB   C2B18946   8.710  17.091   1.808  0.0666  0.3224  0.2272
  790BOLB   C3B18947   8.934  16.884   1.530  0.2551 -0.0287  0.1809
  790BOLB   C4B18948   9.292  16.804   1.284 -0.0156  0.0723  0.1519
  790BOLB   NC218949   9.953  14.816  -0.613  0.1908  0.1815 -0.0489
  790BOLB   PO218950   9.523  14.778  -0.539  0.0329  0.1774 -0.0340
  790BOLB   GL318951   9.381  14.674  -0.063  0.0427 -0.0579 -0.2656
  790BOLB   GL418952   9.499  14.596   0.223  0.1775  0.0731 -0.1461
  790BOLB   C1C18953   9.031  14.891   0.093  0.1559  0.1979 -0.0727
  790BOLB   C2C18954   9.074  15.150   0.295 -0.1569 -0.2779 -0.0704
  790BOLB   C3C18955   9.069  15.296   0.777  0.1549 -0.0893  0.0913
  790BOLB   C4C18956   8.985  15.669   0.958 -0.1005  0.3416  0.4569
  790BOLB   C1D18957   9.582  15.092   0.453 -0.0347 -0.3110 -0.0180
  790BOLB   C2D18958   9.515  15.490   0.694 -0.1895  0.0012 -0.1300
  790BOLB   C3D18959   9.713  15.881   0.461 -0.3134 -0.2458  0.0707
  790BOLB   C4D18960  10.113  15.987   0.429 -0.1329  0.2336  0.3345
  791BOLB   NC118961   3.031  31.111  16.231  0.1854  0.1866 -0.1619
  791BOLB   PO118962   3.403  31.229  16.058  0.0144  0.0511  0.1582
  791BOLB   GL118963   3.419  30.797  15.993  0.2315  0.2394 -0.0215
  791BOLB   GL218964   3.691  30.596  16.098 -0.0201  0.2792 -0.0966
  791BOLB   C1A18965   3.481  30.363  15.726 -0.0532  0.3413  0.2749
  791BOLB   C2A18966   3.359  30.202  15.441  0.1312 -0.1881  0.0969
  791BOLB   C3A18967   3.359  29.915  15.114  0.0594 -0.0898 -0.2226
  791BOLB   C4A18968   3.576  29.786  14.739 -0.0164  0.1230 -0.0381
  791BOLB   C1B18969   3.779  30.242  16.112 -0.2546 -0.1138 -0.3341
  791BOLB   C2B18970   4.012  29.933  16.015  0.1578 -0.1037 -0.2883
  791BOLB   C3B18971   4.314  29.832  15.721  0.4294 -0.0020 -0.0434
  791BOLB   C4B18972   4.700  29.527  15.673  0.2247  0.0154  0.0824
  791BOLB   NC218973   3.254  31.785  14.520  0.2870 -0.4038  0.3734
  791BOLB   PO218974   3.508  31.708  14.838 -0.0721 -0.2551 -0.2075
  791BOLB   GL318975   3.631  31.393  14.570  0.0516 -0.1855  0.0758
  791BOLB   GL418976   3.635  31.484  14.285  0.0625 -0.0045  0.1680
  791BOLB   C1C18977   3.866  31.042  14.403  0.0743 -0.0676  0.1005
  791BOLB   C2C18978   3.713  30.788  14.103 -0.2060  0.2509 -0.2758
  791BOLB   C3C18979   3.577  30.364  14.233  0.0970 -0.0245  0.2640
  791BOLB   C4C18980   3.639  29.961  14.268 -0.0663  0.4185  0.3268
  791BOLB   C1D18981   3.380  31.244  13.993 -0.2196  0.0234 -0.3143
  791BOLB   C2D18982   3.218  31.018  13.596  0.0256  0.0640  0.0355
  791BOLB   C3D18983   3.252  30.599  13.345 -0.1246 -0.1254 -0.0867
  791BOLB   C4D18984   3.063  30.224  13.359 -0.1352  0.0358 -0.1682
  792BOLB   NC118985   8.510  28.493   9.133 -0.0699 -0.2492 -0.3503
  792BOLB   PO118986   8.398  28.936   9.300  0.2527  0.2447 -0.1410
  792BOLB   GL118987   8.508  29.248   9.124  0.1346  0.2192 -0.0596
  792BOLB   GL218988   8.855  29.264   8.965  0.0882  0.1355  0.0552
  792BOLB   C1A18989   8.520  29.655   8.820 -0.1565 -0.0452  0.3437
  792BOLB   C2A18990   8.674  30.115   8.712  0.1864  0.0647  0.3906
  792BOLB   C3A18991   9.020  30.387   8.526  0.2799  0.2261 -0.1033
  792BOLB   C4A18992   9.395  30.652   8.352 -0.2523  0.3251  0.1604
  792BOLB   C1B18993   9.022  29.566   8.872  0.1697 -0.3357  0.0552
  792BOLB   C2B18994   9.147  30.003   8.747  0.0878  0.2426  0.0454
  792BOLB   C3B18995   9.469  30.244   8.717 -0.2155 -0.2398  0.0090
  792BOLB   C4B18996  10.000  30.213   8.812 -0.3655  0.1903 -0.1766
  792BOLB   NC218997   9.886  32.475   7.738  0.3652 -0.2292  0.0819
  792BOLB   PO218998  10.216  32.291   7.458  0.0808 -0.1323 -0.2806
  792BOLB   GL318999  10.230  31.948   7.463 -0.1363 -0.1914  0.0459
  792BOLB   GL419000  10.068  31.806   7.179  0.2521  0.1150  0.2392
  792BOLB   C1C19001  10.402  31.526   7.594 -0.2979  0.0666  0.2079
  792BOLB   C2C19002  10.365  31.154   7.792  0.1162 -0.0893  0.2477
  792BOLB   C3C19003   9.988  30.951   7.863 -0.0678  0.1172  0.1311
  792BOLB   C4C19004   9.689  30.915   8.143 -0.2365 -0.1742 -0.2350
  792BOLB   C1D19005   9.751  31.536   7.144  0.1612 -0.0520 -0.2729
  792BOLB   C2D19006   9.406  31.330   6.900 -0.0450  0.1178 -0.1722
  792BOLB   C3D19007   9.424  31.004   6.696  0.1898 -0.0446 -0.0475
  792BOLB   C4D19008   9.263  30.826   6.293 -0.0908  0.1656 -0.1367
  793BOLB   NC119009  13.780  20.179  13.275 -0.0275 -0.2676  0.1560
  793BOLB   PO119010  13.824  19.826  13.486 -0.1352 -0.1209  0.0690
  793BOLB   GL119011  14.200  19.709  13.537 -0.0360 -0.1376  0.0191
  793BOLB   GL219012  14.365  20.014  13.711  0.0424  0.1864  0.0403
  793BOLB   C1A19013  14.578  19.594  13.671  0.0396  0.0226  0.1461
  793BOLB   C2A19014  14.984  19.743  13.785 -0.0539  0.0847  0.2038
  793BOLB   C3A19015  15.361  19.996  13.965 -0.2300 -0.0196  0.2860
  793BOLB   C4A19016  15.700  20.161  14.161 -0.2343  0.1351 -0.0780
  793BOLB   C1B19017  14.548  19.892  14.039  0.2838 -0.0473  0.1704
  793BOLB   C2B19018  14.490  19.552  14.262  0.0326 -0.2616 -0.2604
  793BOLB   C3B19019  14.631  19.195  14.467 -0.3291 -0.3429  0.2247
  793BOLB   C4B19020  14.909  18.895  14.387  0.0783 -0.2092 -0.1609
  793BOLB   NC219021  17.188  18.551  15.552  0.0244  0.1694 -0.1306
  793BOLB   PO219022  17.293  18.928  15.432 -0.0746 -0.0126 -0.0019
  793BOLB   GL319023  17.168  19.197  15.225 -0.0962 -0.0825  0.1531
  793BOLB   GL419024  17.063  19.474  15.456 -0.0539 -0.0474  0.1448
  793BOLB   C1C19025  16.944  19.299  14.892  0.0253 -0.0533 -0.2262
  793BOLB   C2C19026  16.728  19.613  14.609  0.0701 -0.2358  0.3789
  793BOLB   C3C19027  16.627  19.984  14.337  0.2654  0.2541  0.0873
  793BOLB   C4C19028  16.152  20.070  14.298  0.0165  0.0694  0.1933
  793BOLB   C1D19029  16.734  19.550  15.228  0.1200 -0.0563  0.2784
  793BOLB   C2D19030  16.367  19.494  15.025 -0.2163 -0.0917 -0.2299
  793BOLB   C3D19031  15.992  19.524  15.126  0.4987  0.2143  0.0067
  793BOLB   C4D19032  15.605  19.522  14.870 -0.1432  0.1729 -0.3690
  794BOLB   NC119033  29.781  17.283  16.351 -0.2491 -0.0699  0.0389
  794BOLB   PO119034  29.848  17.638  16.402  0.0933  0.1622 -0.1600
  794BOLB   GL119035  30.254  17.624  16.171  0.1370 -0.2594 -0.2219
  794BOLB   GL219036  30.294  17.324  16.200  0.1618  0.0554 -0.2058
  794BOLB   C1A19037  30.600  17.897  16.176  0.2556 -0.0426 -0.1386
  794BOLB   C2A19038  30.914  18.214  15.975 -0.2600  0.0175 -0.1023
  794BOLB   C3A19039  31.238  18.539  16.068 -0.2662  0.2927 -0.1288
  794BOLB   C4A19040  31.317  18.980  16.251 -0.2402  0.4219 -0.1749
  794BOLB   C1B19041  30.349  17.254  15.725 -0.0326 -0.0382 -0.2376
  794BOLB   C2B19042  30.589  17.192  15.433  0.0887 -0.1013 -0.1302
  794BOLB   C3B19043  30.517  17.017  14.991 -0.0920 -0.2424 -0.2351
  794BOLB   C4B19044  30.793  16.929  14.650 -0.0070 -0.0835  0.0257
  794BOLB   NC219045  31.265  20.001  17.940 -0.0391 -0.0962 -0.0201
  794BOLB   PO219046  30.835  20.107  17.681 -0.0669 -0.2422 -0.0529
  794BOLB   GL319047  31.070  19.864  17.514 -0.0934  0.0799 -0.3042
  794BOLB   GL419048  31.355  20.060  17.450 -0.3248 -0.3145 -0.2891
  794BOLB   C1C19049  31.065  19.803  17.080  0.0662  0.2282 -0.1059
  794BOLB   C2C19050  30.890  20.028  16.826  0.2536 -0.3927  0.2761
  794BOLB   C3C19051  31.008  19.776  16.512  0.1327  0.4036 -0.2170
  794BOLB   C4C19052  31.052  19.366  16.372 -0.0275  0.0657 -0.0568
  794BOLB   C1D19053  31.847  20.082  17.596  0.0407  0.0629  0.4809
  794BOLB   C2D19054  32.202  20.309  17.685 -0.2734  0.3164 -0.0383
  794BOLB   C3D19055  32.755  20.286  17.439  0.0902 -0.1540  0.1190
  794BOLB   C4D19056  33.192  20.110  17.282 -0.0655 -0.5818 -0.0107
  795BOLB   NC119057   5.926  13.203   9.076  0.1773  0.4744 -0.1662
  795BOLB   PO119058   6.022  12.886   8.773  0.0353  0.0480 -0.2983
  795BOLB   GL119059   5.864  12.456   8.628  0.3313  0.0592 -0.1351
  795BOLB   GL219060   6.217  12.365   8.472 -0.1752  0.1861  0.0316
  795BOLB   C1A19061   5.678  12.151   8.346  0.0895 -0.0270 -0.0713
  795BOLB   C2A19062   5.419  11.812   8.326  0.2565 -0.3436 -0.2398
  795BOLB   C3A19063   5.535  11.460   8.466  0.1373 -0.2669 -0.0926
  795BOLB   C4A19064   5.676  11.078   8.392  0.1047 -0.0575  0.1599
  795BOLB   C1B19065   6.144  11.902   8.199 -0.0527  0.0971  0.1881
  795BOLB   C2B19066   5.815  11.734   8.066  0.0165 -0.0344  0.1181
  795BOLB   C3B19067   5.493  11.382   7.956  0.2403  0.1243  0.1238
  795BOLB   C4B19068   5.127  11.223   8.220  0.0381  0.1297  0.1119
  795BOLB   NC219069   6.368   8.378   8.194 -0.1733  0.0028 -0.1683
  795BOLB   PO219070   6.393   8.783   8.279  0.0830 -0.2723 -0.1020
  795BOLB   GL319071   6.305   9.228   8.392 -0.1980  0.1139 -0.0123
  795BOLB   GL419072   6.457   9.341   8.689  0.1230 -0.1306  0.0159
  795BOLB   C1C19073   6.470   9.699   8.433  0.2856 -0.0812 -0.1529
  795BOLB   C2C19074   6.426  10.074   8.454  0.1211 -0.2817  0.3136
  795BOLB   C3C19075   6.337  10.413   8.375  0.1704 -0.0522  0.4386
  795BOLB   C4C19076   6.004  10.833   8.281  0.3722 -0.3044  0.2155
  795BOLB   C1D19077   6.426   9.744   8.902 -0.0666  0.0718  0.1231
  795BOLB   C2D19078   6.265  10.217   8.929  0.0078 -0.0477 -0.2937
  795BOLB   C3D19079   6.240  10.425   9.265 -0.1087 -0.0413  0.1058
  795BOLB   C4D19080   6.502  10.576   9.578  0.2327  0.2174  0.0881
  796BOLB   NC119081   1.464  26.092   7.429 -0.1424  0.3426  0.1928
  796BOLB   PO119082   1.479  26.521   7.569 -0.2265 -0.1184 -0.1505
  796BOLB   GL119083   1.469  26.923   7.398 -0.3279  0.2841 -0.4935
  796BOLB   GL219084   1.570  27.079   7.659 -0.0936  0.0021  0.3556
  796BOLB   C1A19085   1.319  27.261   7.177  0.0288 -0.1024  0.0375
  796BOLB   C2A19086   1.108  27.519   6.917 -0.0090 -0.0287  0.0253
  796BOLB   C3A19087   1.084  27.682   6.490 -0.2166 -0.0398  0.0834
  796BOLB   C4A19088   0.699  27.711   6.251  0.1108  0.1861  0.1170
  796BOLB   C1B19089   1.499  27.409   7.797 -0.0145 -0.1281 -0.1484
  796BOLB   C2B19090   1.292  27.765   7.908 -0.0593 -0.2918 -0.1712
  796BOLB   C3B19091   1.291  28.221   7.944 -0.1347 -0.1455 -0.0674
  796BOLB   C4B19092   1.091  28.579   7.800  0.1243 -0.1603  0.3642
  796BOLB   NC219093  -0.921  28.847   5.168  0.0553 -0.1286 -0.0255
  796BOLB   PO219094  -0.912  29.154   5.553  0.2396 -0.1848 -0.2964
  796BOLB   GL319095  -0.539  28.853   5.511 -0.2748  0.0464  0.3392
  796BOLB   GL419096  -0.194  28.982   5.408  0.0132 -0.0283 -0.0054
  796BOLB   C1C19097  -0.211  28.532   5.535  0.0182 -0.1817 -0.1405
  796BOLB   C2C19098   0.187  28.426   5.710 -0.1202 -0.1827  0.3215
  796BOLB   C3C19099   0.406  28.401   5.938  0.2094 -0.2263  0.0729
  796BOLB   C4C19100   0.572  28.093   5.965 -0.1792 -0.2572  0.0749
  796BOLB   C1D19101   0.104  28.779   5.248  0.0452  0.2717  0.1727
  796BOLB   C2D19102   0.257  28.402   5.136 -0.1476  0.0185 -0.1200
  796BOLB   C3D19103   0.379  28.022   5.338 -0.0532  0.2817 -0.1008
  796BOLB   C4D19104   0.747  27.914   5.265 -0.0370 -0.0255  0.0508
  797BOLB   NC119105   9.756  25.069  25.845 -0.1125  0.3295  0.0304
  797BOLB   PO119106   9.550  24.820  25.956  0.0896 -0.0557 -0.0929
  797BOLB   GL119107   9.537  24.715  26.321 -0.1955  0.2046  0.1068
  797BOLB   GL219108   9.492  24.348  26.376  0.0881  0.2028  0.1581
  797BOLB   C1A19109   9.722  24.894  26.706 -0.1018 -0.4281  0.0229
  797BOLB   C2A19110   9.695  24.959  27.150 -0.0901 -0.0932  0.1897
  797BOLB   C3A19111   9.714  24.765  27.364 -0.0154 -0.4670 -0.1872
  797BOLB   C4A19112   9.705  24.619  27.728 -0.3312  0.1022 -0.0164
  797BOLB   C1B19113   9.428  24.051  26.821 -0.0758  0.0832 -0.0822
  797BOLB   C2B19114   9.321  23.581  26.818  0.1849  0.1420  0.2377
  797BOLB   C3B19115   9.137  23.215  26.766  0.2324 -0.0420 -0.0368
  797BOLB   C4B19116   8.973  22.785  26.890 -0.1783  0.0093  0.3640
  797BOLB   NC219117  11.811  25.535  26.968  0.2285  0.5852  0.0951
  797BOLB   PO219118  11.422  25.723  26.715 -0.3444 -0.1345 -0.1968
  797BOLB   GL319119  11.272  25.507  27.053  0.1441 -0.1018 -0.1535
  797BOLB   GL419120  11.461  25.500  27.341 -0.0825 -0.0464 -0.0828
  797BOLB   C1C19121  10.988  25.458  27.393 -0.0608  0.0967  0.0348
  797BOLB   C2C19122  10.712  25.196  27.519 -0.1913 -0.2175 -0.0454
  797BOLB   C3C19123  10.471  24.857  27.795  0.0445  0.5511  0.1793
  797BOLB   C4C19124  10.061  24.738  27.980  0.1726  0.0194  0.0705
  797BOLB   C1D19125  11.428  25.675  27.644  0.1008 -0.1109  0.1259
  797BOLB   C2D19126  11.748  25.712  28.000 -0.1293 -0.0681  0.1755
  797BOLB   C3D19127  11.725  25.611  28.425  0.3692  0.3149  0.1422
  797BOLB   C4D19128  11.425  25.923  28.615 -0.0071 -0.0551 -0.2132
  798BOLB   NC119129  14.758  23.599  10.710 -0.1413  0.1407 -0.1957
  798BOLB   PO119130  14.642  23.749  11.188 -0.2122  0.0651  0.2159
  798BOLB   GL119131  14.890  23.914  11.048  0.0192 -0.0347  0.1104
  798BOLB   GL219132  14.936  24.140  11.313  0.0005 -0.0685  0.1473
  798BOLB   C1A19133  15.331  23.888  11.077  0.0390 -0.0210  0.1691
  798BOLB   C2A19134  15.606  24.258  11.133 -0.0135  0.0341  0.2854
  798BOLB   C3A19135  16.000  24.263  11.285 -0.3087 -0.0733 -0.1159
  798BOLB   C4A19136  16.306  24.107  11.595  0.2332 -0.1568  0.3706
  798BOLB   C1B19137  15.152  24.440  11.067 -0.1896  0.3078  0.2393
  798BOLB   C2B19138  15.446  24.717  11.034  0.1273  0.1271 -0.1898
  798BOLB   C3B19139  15.656  25.019  10.965 -0.0408  0.2792 -0.3183
  798BOLB   C4B19140  15.941  25.057  10.721  0.0360 -0.1519  0.0555
  798BOLB   NC219141  18.716  25.683  12.723  0.1348  0.1630  0.1936
  798BOLB   PO219142  18.318  25.422  12.513  0.1213 -0.1540  0.0804
  798BOLB   GL319143  17.979  25.192  12.232 -0.3628 -0.0691  0.5855
  798BOLB   GL419144  17.859  25.187  11.838  0.0178 -0.4447  0.1250
  798BOLB   C1C19145  17.785  24.732  12.084  0.1106  0.0732 -0.0456
  798BOLB   C2C19146  17.644  24.334  12.086 -0.2949 -0.2480  0.4538
  798BOLB   C3C19147  17.199  24.232  11.818 -0.0552  0.2763  0.1092
  798BOLB   C4C19148  16.745  24.118  11.738  0.3431 -0.4579 -0.1963
  798BOLB   C1D19149  17.554  24.969  11.605 -0.0388  0.1517  0.0752
  798BOLB   C2D19150  17.486  24.576  11.590 -0.2871 -0.3837  0.0513
  798BOLB   C3D19151  17.530  24.172  11.500  0.0128  0.0045  0.0254
  798BOLB   C4D19152  17.621  23.891  11.278  0.0656  0.2331 -0.1548
  799BOLB   NC119153   0.904  24.024  15.985  0.2367  0.0526  0.1008
  799BOLB   PO119154   1.259  24.239  16.126 -0.0650  0.1370  0.2246
  799BOLB   GL119155   0.873  24.325  16.405 -0.1771 -0.0491  0.1314
  799BOLB   GL219156   0.999  24.386  16.611  0.0630 -0.1893 -0.2094
  799BOLB   C1A19157   0.504  24.635  16.613  0.0538  0.0210  0.0942
  799BOLB   C2A19158   0.158  24.717  16.869  0.0412  0.0982  0.2976
  799BOLB   C3A19159  -0.037  25.087  16.926 -0.0460  0.0193  0.3752
  799BOLB   C4A19160   0.171  25.468  17.113  0.2684  0.0593  0.0206
  799BOLB   C1B19161   0.932  24.847  16.721 -0.3704  0.2003 -0.0325
  799BOLB   C2B19162   0.757  24.855  17.076 -0.3403  0.0838  0.0150
  799BOLB   C3B19163   0.480  24.550  17.252 -0.2046 -0.1994  0.3980
  799BOLB   C4B19164   0.385  24.461  17.646 -0.1973 -0.3505  0.0562
  799BOLB   NC219165   0.046  27.440  19.537  0.1327  0.1596 -0.1818
  799BOLB   PO219166  -0.088  27.251  19.013  0.1070  0.0626  0.0511
  799BOLB   GL319167   0.213  26.866  18.684 -0.1588 -0.1974  0.1194
  799BOLB   GL419168   0.594  26.853  18.648  0.1758 -0.2528  0.1657
  799BOLB   C1C19169   0.201  26.572  18.314  0.0523 -0.0393 -0.0405
  799BOLB   C2C19170   0.368  26.437  18.025 -0.2905 -0.1357  0.1114
  799BOLB   C3C19171   0.557  25.967  17.873 -0.1190 -0.2886  0.2343
  799BOLB   C4C19172   0.378  25.731  17.481 -0.0474 -0.1224  0.3251
  799BOLB   C1D19173   0.745  26.522  18.407  0.0004 -0.1213 -0.1275
  799BOLB   C2D19174   0.904  26.261  18.132 -0.2728  0.0237  0.0730
  799BOLB   C3D19175   1.202  26.247  17.774 -0.0165 -0.0033  0.2783
  799BOLB   C4D19176   1.385  25.995  17.494 -0.2065 -0.1123 -0.1346
  800BOLB   NC119177   3.193  23.925   3.967  0.1479 -0.0215  0.1075
  800BOLB   PO119178   2.805  24.200   3.818 -0.2636  0.1339 -0.0647
  800BOLB   GL119179   2.811  24.483   3.448 -0.0681  0.1597  0.0943
  800BOLB   GL219180   3.083  24.473   3.202  0.2528  0.1517 -0.2762
  800BOLB   C1A19181   2.608  24.714   3.197  0.0405 -0.1377  0.0100
  800BOLB   C2A19182   2.676  24.878   2.793  0.1397 -0.1779  0.3434
  800BOLB   C3A19183   2.678  25.184   2.482 -0.4163  0.0380  0.2014
  800BOLB   C4A19184   2.425  25.274   2.137 -0.2557 -0.1038  0.1263
  800BOLB   C1B19185   3.188  24.695   2.870 -0.1369  0.0270 -0.0080
  800BOLB   C2B19186   3.114  24.904   2.498  0.0027 -0.0783 -0.1506
  800BOLB   C3B19187   3.102  25.257   2.137 -0.0476  0.2062 -0.0614
  800BOLB   C4B19188   2.797  25.616   2.058  0.0974 -0.1357 -0.1298
  800BOLB   NC219189   2.688  26.882   0.530  0.1229  0.0737 -0.1765
  800BOLB   PO219190   2.396  26.569   0.533  0.0633 -0.0203 -0.0873
  800BOLB   GL319191   2.456  26.090   0.433  0.0698  0.0201  0.0766
  800BOLB   GL419192   2.728  25.899   0.380 -0.2382 -0.3847  0.0042
  800BOLB   C1C19193   2.572  25.982   0.869  0.3416  0.0445 -0.1870
  800BOLB   C2C19194   2.833  25.864   1.262  0.2201 -0.1170 -0.0894
  800BOLB   C3C19195   2.661  25.873   1.647  0.2125  0.0428 -0.0546
  800BOLB   C4C19196   2.259  25.647   1.845  0.2666 -0.3884  0.0392
  800BOLB   C1D19197   2.693  25.486   0.593 -0.4757 -0.0734  0.0249
  800BOLB   C2D19198   2.979  25.200   0.826 -0.0661 -0.1047  0.1948
  800BOLB   C3D19199   3.110  24.850   1.057  0.1391 -0.1983  0.0158
  800BOLB   C4D19200   3.201  24.617   1.426  0.3126 -0.1241  0.1068
  801BOLB   NC119201   3.804  27.081   7.427  0.0303 -0.0059  0.2807
  801BOLB   PO119202   3.516  27.286   7.220  0.1402 -0.1119  0.2638
  801BOLB   GL119203   3.225  27.509   6.989  0.1246  0.1350  0.0072
  801BOLB   GL219204   3.142  27.499   6.629  0.0159 -0.1996  0.0379
  801BOLB   C1A19205   2.900  27.894   7.020 -0.3468 -0.3864 -0.0003
  801BOLB   C2A19206   2.879  28.235   7.238  0.1508 -0.3505 -0.0484
  801BOLB   C3A19207   2.673  28.534   7.093 -0.2862 -0.0212  0.0485
  801BOLB   C4A19208   2.557  28.923   6.887 -0.3255  0.1806  0.3729
  801BOLB   C1B19209   3.027  27.887   6.535 -0.1635 -0.2427  0.1616
  801BOLB   C2B19210   3.202  28.104   6.170 -0.0505  0.1004  0.0295
  801BOLB   C3B19211   3.505  28.456   5.956  0.2063 -0.1825  0.3473
  801BOLB   C4B19212   3.541  28.918   5.840  0.0687  0.1816 -0.1446
  801BOLB   NC219213   2.170  30.723   5.116  0.1896  0.1065  0.0745
  801BOLB   PO219214   1.844  30.287   5.061 -0.1033 -0.1312  0.1976
  801BOLB   GL319215   1.907  29.946   5.328  0.1050  0.0303 -0.3816
  801BOLB   GL419216   2.281  29.794   5.233 -0.4188 -0.3022 -0.1951
  801BOLB   C1C19217   2.037  29.893   5.775  0.1775 -0.0234  0.0648
  801BOLB   C2C19218   2.020  29.663   6.128 -0.2703 -0.1508  0.0204
  801BOLB   C3C19219   2.109  29.317   6.326 -0.0178  0.4860  0.2688
  801BOLB   C4C19220   2.381  29.043   6.527  0.1108  0.0440 -0.1109
  801BOLB   C1D19221   2.352  29.297   5.252 -0.1514  0.1775  0.0922
  801BOLB   C2D19222   2.454  28.892   5.453  0.0551 -0.3380  0.1673
  801BOLB   C3D19223   2.669  28.592   5.632 -0.4749 -0.1010  0.1507
  801BOLB   C4D19224   3.111  28.405   5.638 -0.0218  0.1002  0.1744
  802BOLB   NC119225  36.175  29.775  11.110 -0.2018 -0.1332  0.0903
  802BOLB   PO119226  36.450  29.978  11.155  0.3562  0.1208 -0.3995
  802BOLB   GL119227  36.837  29.687  11.076 -0.1643  0.1913  0.2481
  802BOLB   GL219228  37.062  29.640  11.409  0.1190  0.3606  0.1286
  802BOLB   C1A19229  37.055  29.384  10.730 -0.1888 -0.0326  0.0438
  802BOLB   C2A19230  37.172  29.060  10.455  0.0358 -0.1153 -0.0411
  802BOLB   C3A19231  37.638  28.823  10.598 -0.0577  0.1315  0.1724
  802BOLB   C4A19232  37.733  28.417  10.565 -0.3127  0.2436  0.1588
  802BOLB   C1B19233  37.331  29.534  11.856  0.0384  0.2014  0.4513
  802BOLB   C2B19234  37.798  29.358  11.797  0.1771 -0.0990 -0.1091
  802BOLB   C3B19235  38.206  29.160  11.813  0.0754 -0.0250 -0.0611
  802BOLB   C4B19236  38.207  28.828  11.706 -0.0872  0.1913  0.4440
  802BOLB   NC219237  36.045  29.276   9.654 -0.2235 -0.2714  0.0851
  802BOLB   PO219238  36.221  28.882   9.831 -0.2064  0.3270  0.0400
  802BOLB   GL319239  36.397  28.574   9.967  0.0987 -0.3148  0.0201
  802BOLB   GL419240  36.764  28.725   9.980 -0.0424  0.0174 -0.0502
  802BOLB   C1C19241  36.639  28.293   9.938 -0.0251  0.2731 -0.0462
  802BOLB   C2C19242  37.035  28.078   9.903 -0.1732 -0.0740  0.1364
  802BOLB   C3C19243  37.301  27.930  10.121  0.2442 -0.1384 -0.2432
  802BOLB   C4C19244  37.422  28.151  10.476 -0.0587 -0.1123 -0.0900
  802BOLB   C1D19245  37.109  28.503  10.150 -0.0577 -0.0877 -0.3873
  802BOLB   C2D19246  37.500  28.448  10.114 -0.1000  0.0045 -0.0287
  802BOLB   C3D19247  37.912  28.457  10.119 -0.0331 -0.2424  0.2476
  802BOLB   C4D19248  38.144  28.191   9.883 -0.1155  0.1425 -0.1300
  803BOLB   NC119249   4.609  28.370  11.739 -0.0393  0.3077  0.3365
  803BOLB   PO119250   4.652  28.781  11.829  0.1578  0.1482  0.1692
  803BOLB   GL119251   4.676  29.239  11.825 -0.0760  0.4378 -0.0299
  803BOLB   GL219252   4.445  29.331  11.675  0.0191  0.0063 -0.0191
  803BOLB   C1A19253   4.814  29.709  11.780  0.1832 -0.0409 -0.0951
  803BOLB   C2A19254   4.779  30.092  11.755  0.0345  0.0528 -0.0344
  803BOLB   C3A19255   4.574  30.413  12.011  0.0921 -0.1182 -0.2156
  803BOLB   C4A19256   4.619  30.783  12.301 -0.0246  0.0940 -0.1761
  803BOLB   C1B19257   4.261  29.619  11.949  0.0283  0.4330  0.0774
  803BOLB   C2B19258   3.993  29.753  12.246  0.0141  0.0812 -0.1676
  803BOLB   C3B19259   3.535  29.966  12.126  0.0738 -0.1059  0.0487
  803BOLB   C4B19260   3.178  29.746  11.841  0.3497  0.1007  0.1317
  803BOLB   NC219261   4.298  32.624  13.360 -0.0351 -0.0873  0.0793
  803BOLB   PO219262   3.882  32.489  13.192 -0.3065  0.0268  0.2225
  803BOLB   GL319263   4.184  32.043  13.207  0.1883 -0.0145 -0.0490
  803BOLB   GL419264   4.405  31.955  13.437 -0.1520 -0.1101 -0.0088
  803BOLB   C1C19265   4.232  31.742  12.965  0.2110 -0.0160  0.0414
  803BOLB   C2C19266   4.501  31.629  12.670  0.2302  0.2946 -0.0979
  803BOLB   C3C19267   4.776  31.404  12.520 -0.5521  0.0828  0.0939
  803BOLB   C4C19268   4.989  31.073  12.362 -0.0859 -0.3773 -0.1244
  803BOLB   C1D19269   4.646  31.734  13.334 -0.0481 -0.1144  0.0675
  803BOLB   C2D19270   4.659  31.379  13.591  0.1394  0.1221  0.2370
  803BOLB   C3D19271   4.642  31.056  13.799  0.0383  0.3497 -0.1321
  803BOLB   C4D19272   4.727  30.575  13.894 -0.0513 -0.1261 -0.1470
  804BOLB   NC119273   7.060  13.237  10.526 -0.1545  0.1659 -0.1835
  804BOLB   PO119274   6.670  13.175  10.261 -0.1393 -0.1047 -0.1320
  804BOLB   GL119275   6.768  12.788  10.364 -0.0386 -0.0730  0.0016
  804BOLB   GL219276   6.792  12.685  10.677 -0.1694 -0.2867  0.3015
  804BOLB   C1A19277   6.780  12.310  10.060 -0.3758 -0.2057 -0.1263
  804BOLB   C2A19278   6.940  11.925  10.200  0.1443  0.2685 -0.2866
  804BOLB   C3A19279   6.920  11.420  10.248  0.1656  0.0370 -0.0109
  804BOLB   C4A19280   6.899  10.973  10.380  0.1836  0.2041 -0.0415
  804BOLB   C1B19281   6.599  12.369  10.854  0.2697  0.1323 -0.1769
  804BOLB   C2B19282   6.500  12.009  10.843 -0.3207 -0.0492 -0.1568
  804BOLB   C3B19283   6.393  11.887  10.466  0.1104  0.1820 -0.3130
  804BOLB   C4B19284   6.106  11.558  10.201  0.1231 -0.2232 -0.2473
  804BOLB   NC219285   8.582   9.506  11.044  0.0187 -0.0875 -0.0541
  804BOLB   PO219286   8.389   9.215  10.856  0.1281 -0.2547  0.2217
  804BOLB   GL319287   8.096   9.456  10.707 -0.3097 -0.1347 -0.2375
  804BOLB   GL419288   8.237   9.801  10.707  0.2199 -0.0967  0.2723
  804BOLB   C1C19289   7.741   9.653  10.856  0.2603 -0.1169 -0.3078
  804BOLB   C2C19290   7.392   9.815  10.669 -0.0865  0.2481 -0.3404
  804BOLB   C3C19291   7.151  10.245  10.532  0.2092 -0.1649  0.1240
  804BOLB   C4C19292   7.254  10.706  10.439  0.1325 -0.1974  0.1844
  804BOLB   C1D19293   8.132   9.969  11.036 -0.1213 -0.0798  0.2910
  804BOLB   C2D19294   8.044  10.391  11.167 -0.0077  0.3197  0.1521
  804BOLB   C3D19295   7.817  10.792  11.050 -0.2121 -0.0650 -0.0752
  804BOLB   C4D19296   7.879  11.191  10.872  0.2418 -0.1667  0.3028
  805BOLB   NC119297   3.504  23.110  17.869  0.3743 -0.2617  0.0781
  805BOLB   PO119298   3.023  23.201  17.653  0.0178  0.0169  0.0405
  805BOLB   GL119299   2.735  23.332  17.987  0.1634 -0.3494 -0.1160
  805BOLB   GL219300   2.693  23.598  17.957  0.0195  0.0704  0.0450
  805BOLB   C1A19301   2.325  23.279  18.018 -0.4211  0.3367  0.0305
  805BOLB   C2A19302   2.092  23.358  18.352 -0.1794 -0.1156 -0.0573
  805BOLB   C3A19303   1.796  23.445  18.626  0.1535  0.0918 -0.0809
  805BOLB   C4A19304   1.540  23.295  18.956  0.1326  0.0646 -0.0426
  805BOLB   C1B19305   2.560  23.718  18.323  0.1194  0.0098 -0.3179
  805BOLB   C2B19306   2.421  23.629  18.692 -0.0199  0.0241 -0.1065
  805BOLB   C3B19307   2.493  23.819  19.025 -0.0578  0.0884 -0.1962
  805BOLB   C4B19308   2.762  23.905  19.358 -0.0386 -0.0439  0.0699
  805BOLB   NC219309   0.114  23.570  20.659  0.1281 -0.0832  0.2038
  805BOLB   PO219310  -0.168  23.349  20.493 -0.1498 -0.0836  0.0936
  805BOLB   GL319311   0.132  23.038  20.481 -0.1149 -0.0090 -0.3358
  805BOLB   GL419312   0.327  23.252  20.367 -0.3477 -0.0466  0.2457
  805BOLB   C1C19313   0.452  22.889  20.085 -0.1862  0.0682  0.2887
  805BOLB   C2C19314   0.872  22.857  19.949  0.1856 -0.2690  0.2897
  805BOLB   C3C19315   1.193  23.119  19.756 -0.1384 -0.3707 -0.1217
  805BOLB   C4C19316   1.371  23.289  19.395  0.1070 -0.0392  0.2090
  805BOLB   C1D19317   0.221  23.641  19.918  0.0856 -0.2790 -0.1100
  805BOLB   C2D19318   0.461  23.810  19.677  0.0568  0.1108 -0.2205
  805BOLB   C3D19319   0.543  24.011  19.322 -0.1379 -0.1594 -0.1865
  805BOLB   C4D19320   0.519  24.091  18.880 -0.0254  0.4448 -0.1886
  806BOLB   NC119321   0.615  31.733  10.115 -0.1336  0.2364 -0.1052
  806BOLB   PO119322   0.761  31.321  10.194 -0.1593  0.1765  0.0754
  806BOLB   GL119323   0.927  30.944  10.153 -0.4565  0.1012 -0.2448
  806BOLB   GL219324   1.131  31.076  10.445  0.1954  0.1250  0.0111
  806BOLB   C1A19325   1.059  30.608   9.929 -0.0296  0.1515 -0.0251
  806BOLB   C2A19326   0.966  30.153   9.786 -0.2570  0.3475 -0.2954
  806BOLB   C3A19327   0.917  29.770   9.860  0.0410 -0.0529  0.0348
  806BOLB   C4A19328   0.574  29.634   9.937 -0.0414 -0.0168 -0.1264
  806BOLB   C1B19329   1.356  30.682  10.348 -0.3982 -0.1461 -0.2915
  806BOLB   C2B19330   1.479  30.333  10.184  0.0547  0.0766  0.1024
  806BOLB   C3B19331   1.442  29.847  10.317 -0.1146  0.0180  0.2785
  806BOLB   C4B19332   1.778  29.478  10.429 -0.0428  0.0277  0.2258
  806BOLB   NC219333  -2.136  29.815  10.197  0.1749 -0.1658  0.1510
  806BOLB   PO219334  -1.933  29.598   9.959 -0.3647  0.3327 -0.0364
  806BOLB   GL319335  -1.472  29.441  10.094  0.0616  0.0781  0.1155
  806BOLB   GL419336  -1.319  29.432   9.814  0.0798  0.1377  0.0872
  806BOLB   C1C19337  -0.969  29.515  10.385 -0.2530  0.2643 -0.1871
  806BOLB   C2C19338  -0.468  29.482  10.360  0.3215  0.1585 -0.1787
  806BOLB   C3C19339  -0.146  29.561  10.184  0.0935  0.0825  0.1689
  806BOLB   C4C19340   0.141  29.710  10.028  0.2081 -0.0500  0.2943
  806BOLB   C1D19341  -0.917  29.374   9.784  0.0595 -0.2761 -0.1241
  806BOLB   C2D19342  -0.775  29.301   9.447 -0.1811  0.0831  0.2026
  806BOLB   C3D19343  -0.564  29.194   9.114 -0.3389 -0.0179  0.1658
  806BOLB   C4D19344  -0.415  29.048   8.834 -0.2421 -0.1536 -0.2744
  807BOLB   NC119345  17.080  14.693   9.589  0.3082  0.1682  0.0109
  807BOLB   PO119346  16.786  14.403   9.718  0.2109  0.0500  0.0392
  807BOLB   GL119347  16.626  14.769   9.848  0.2741  0.1738 -0.1263
  807BOLB   GL219348  16.246  14.755   9.858 -0.0607  0.0996 -0.0301
  807BOLB   C1A19349  16.259  15.276   9.976 -0.2351 -0.1951  0.0893
  807BOLB   C2A19350  15.922  15.321  10.221  0.0828 -0.0936 -0.0362
  807BOLB   C3A19351  15.758  15.656  10.472  0.0342  0.0039 -0.0895
  807BOLB   C4A19352  15.810  15.950  10.710  0.1612  0.1432  0.3857
  807BOLB   C1B19353  16.252  15.001   9.490  0.0160  0.3028  0.1719
  807BOLB   C2B19354  16.439  15.217   9.125  0.5056  0.0666 -0.1335
  807BOLB   C3B19355  16.333  15.204   8.687 -0.4068  0.2596  0.3160
  807BOLB   C4B19356  16.081  15.444   8.453 -0.1062 -0.0158  0.5287
  807BOLB   NC219357  17.837  16.613  12.385 -0.3953 -0.0848 -0.0986
  807BOLB   PO219358  17.804  16.330  12.030 -0.1557  0.3822 -0.3411
  807BOLB   GL319359  17.611  16.436  11.720 -0.1152 -0.3056  0.2569
  807BOLB   GL419360  17.610  16.726  11.617 -0.1161  0.0454  0.0912
  807BOLB   C1C19361  17.286  16.161  11.502 -0.1891 -0.1364  0.0044
  807BOLB   C2C19362  16.944  16.161  11.316  0.3291  0.0853  0.2491
  807BOLB   C3C19363  16.516  16.062  11.109  0.4353 -0.0320 -0.1217
  807BOLB   C4C19364  16.042  15.980  11.077  0.2048 -0.1279 -0.3260
  807BOLB   C1D19365  17.239  16.962  11.594 -0.0361 -0.2385  0.0196
  807BOLB   C2D19366  17.040  17.416  11.505 -0.2789  0.1371  0.0357
  807BOLB   C3D19367  16.812  17.814  11.322  0.1837  0.0364  0.1623
  807BOLB   C4D19368  16.666  18.236  11.174 -0.1211  0.0767 -0.1787
  808BOLB   NC119369   6.061  26.848  16.275 -0.0970  0.1753  0.0479
  808BOLB   PO119370   6.362  26.815  16.654 -0.0969  0.0686 -0.0181
  808BOLB   GL119371   5.957  27.058  16.787 -0.0792 -0.0539 -0.0675
  808BOLB   GL219372   5.662  27.192  17.019 -0.1808  0.1321 -0.1312
  808BOLB   C1A19373   6.017  27.208  17.339  0.3595 -0.0154 -0.1451
  808BOLB   C2A19374   5.893  27.337  17.683  0.1196 -0.0431 -0.0370
  808BOLB   C3A19375   5.973  27.553  18.047 -0.3072 -0.0143 -0.0041
  808BOLB   C4A19376   6.125  27.821  18.277  0.0959  0.3531  0.1518
  808BOLB   C1B19377   5.467  27.489  17.347 -0.1882 -0.0521  0.0798
  808BOLB   C2B19378   5.271  27.765  17.634  0.3374  0.0482  0.4566
  808BOLB   C3B19379   4.792  27.917  17.549 -0.1282 -0.1627  0.3375
  808BOLB   C4B19380   4.422  28.143  17.383 -0.3319 -0.1418  0.1493
  808BOLB   NC219381   6.720  29.222  20.048  0.1859 -0.1149  0.1336
  808BOLB   PO219382   6.342  28.898  20.010 -0.0066 -0.0849 -0.0050
  808BOLB   GL319383   6.655  28.898  19.675 -0.2109  0.1003 -0.2001
  808BOLB   GL419384   6.884  28.530  19.697 -0.3569  0.2442 -0.0716
  808BOLB   C1C19385   6.624  28.701  19.316  0.1485  0.0579  0.0606
  808BOLB   C2C19386   6.356  28.429  19.248  0.1014 -0.0970  0.0937
  808BOLB   C3C19387   6.386  28.216  18.905 -0.2381 -0.2526 -0.1971
  808BOLB   C4C19388   6.208  28.161  18.550  0.2140  0.2751  0.0615
  808BOLB   C1D19389   6.925  28.122  19.523  0.0894 -0.3018 -0.0816
  808BOLB   C2D19390   7.034  27.778  19.193 -0.0957 -0.0052  0.0304
  808BOLB   C3D19391   6.983  27.616  18.756  0.2500  0.1807  0.0954
  808BOLB   C4D19392   6.659  27.343  18.567 -0.2914 -0.1924  0.2794
  809BOLB   NC119393   4.412  26.286  16.608  0.1676 -0.0977 -0.0309
  809BOLB   PO119394   4.078  26.609  16.369  0.1433  0.0241  0.1286
  809BOLB   GL119395   4.072  27.004  16.462 -0.0457  0.2315  0.1317
  809BOLB   GL219396   4.072  27.214  16.225  0.2748 -0.1978  0.1548
  809BOLB   C1A19397   4.048  27.137  16.815 -0.0902 -0.1422 -0.0138
  809BOLB   C2A19398   3.769  27.415  17.062 -0.0851 -0.2742 -0.0297
  809BOLB   C3A19399   3.443  27.632  17.150 -0.0712  0.0287  0.1926
  809BOLB   C4A19400   3.188  27.990  17.270 -0.0465 -0.0277 -0.0257
  809BOLB   C1B19401   3.807  27.482  16.553 -0.0342  0.1390  0.1318
  809BOLB   C2B19402   3.583  27.852  16.646  0.2483 -0.1594  0.2087
  809BOLB   C3B19403   3.509  28.214  16.840 -0.2006  0.0609  0.0760
  809BOLB   C4B19404   3.137  28.423  17.000 -0.1438  0.1420 -0.2370
  809BOLB   NC219405   2.131  29.079  19.007 -0.0981 -0.1444 -0.1568
  809BOLB   PO219406   1.954  28.875  18.708 -0.0004  0.0554  0.3217
  809BOLB   GL319407   1.911  28.712  18.314  0.0657  0.1277 -0.1395
  809BOLB   GL419408   1.609  28.610  18.222 -0.0735 -0.3050 -0.4359
  809BOLB   C1C19409   2.066  28.873  17.894 -0.0166  0.0070  0.1400
  809BOLB   C2C19410   2.373  28.806  17.594  0.0896 -0.0241  0.3177
  809BOLB   C3C19411   2.511  28.405  17.735  0.0259 -0.0060  0.0385
  809BOLB   C4C19412   2.912  28.178  17.580 -0.1302 -0.1322 -0.0747
  809BOLB   C1D19413   1.603  28.444  17.879 -0.4537  0.0542 -0.2714
  809BOLB   C2D19414   1.829  28.453  17.600  0.2392  0.0170 -0.0527
  809BOLB   C3D19415   1.729  28.093  17.354 -0.0519 -0.0572  0.0624
  809BOLB   C4D19416   1.586  27.804  17.251 -0.1254  0.1039 -0.1234
  810BOLB   NC119417  30.067  18.166  16.902 -0.2074 -0.0985 -0.0332
  810BOLB   PO119418  30.279  18.537  17.211 -0.1987 -0.0121 -0.2820
  810BOLB   GL119419  30.757  18.571  17.077  0.4034 -0.1337  0.1181
  810BOLB   GL219420  30.970  18.269  17.029 -0.1075 -0.0683 -0.1095
  810BOLB   C1A19421  31.116  18.793  17.017  0.3383 -0.1184 -0.2051
  810BOLB   C2A19422  31.362  18.899  16.772  0.0681 -0.3088 -0.0363
  810BOLB   C3A19423  31.798  18.911  16.694 -0.0225 -0.0194  0.1490
  810BOLB   C4A19424  32.185  19.093  16.695 -0.1143 -0.2568  0.0469
  810BOLB   C1B19425  31.274  18.420  16.666  0.0931  0.0938  0.3186
  810BOLB   C2B19426  31.593  18.475  16.407  0.1622  0.4219  0.0163
  810BOLB   C3B19427  31.801  18.499  16.019 -0.2215  0.0350 -0.0131
  810BOLB   C4B19428  31.712  18.248  15.531  0.1418  0.1017 -0.0196
  810BOLB   NC219429  31.889  20.020  18.635  0.2330  0.0920 -0.1155
  810BOLB   PO219430  31.535  20.128  18.343 -0.0126 -0.2692 -0.0342
  810BOLB   GL319431  31.840  19.855  18.060 -0.1196 -0.0361 -0.0679
  810BOLB   GL419432  31.710  19.698  17.912 -0.0211  0.4005 -0.2140
  810BOLB   C1C19433  32.260  19.877  17.910 -0.0522 -0.1971 -0.0271
  810BOLB   C2C19434  32.525  19.820  17.621 -0.2592  0.3355  0.3168
  810BOLB   C3C19435  32.580  19.574  17.244  0.2544  0.1951 -0.0661
  810BOLB   C4C19436  32.498  19.369  16.870  0.0851 -0.1538  0.2000
  810BOLB   C1D19437  31.978  19.488  17.619 -0.3082  0.3116  0.1954
  810BOLB   C2D19438  32.072  19.384  17.165 -0.1957  0.2911  0.2431
  810BOLB   C3D19439  32.092  19.631  16.711 -0.1513  0.1133 -0.0404
  810BOLB   C4D19440  32.006  19.920  16.390 -0.0540  0.1605  0.1167
  811BOLB   NC119441  38.314  24.694  13.891  0.3175  0.0090 -0.0719
  811BOLB   PO119442  38.259  24.457  13.515  0.2402  0.0952 -0.3180
  811BOLB   GL119443  37.897  24.721  13.460 -0.0198  0.2092 -0.5260
  811BOLB   GL219444  37.669  24.970  13.272  0.0785  0.1781  0.4008
  811BOLB   C1A19445  37.545  25.014  13.707  0.3263  0.0931  0.0502
  811BOLB   C2A19446  37.407  25.193  14.062  0.0144  0.3131 -0.1767
  811BOLB   C3A19447  37.212  25.360  14.391  0.1597  0.1178 -0.1235
  811BOLB   C4A19448  36.912  25.580  14.509  0.0382 -0.1226 -0.2808
  811BOLB   C1B19449  37.349  25.154  13.124 -0.0923  0.0971  0.3801
  811BOLB   C2B19450  37.018  25.418  13.049  0.3210 -0.0431 -0.1901
  811BOLB   C3B19451  36.627  25.493  13.067  0.2098  0.0598 -0.2230
  811BOLB   C4B19452  36.423  25.930  13.072 -0.3113  0.2592 -0.0028
  811BOLB   NC219453  35.552  25.906  16.171 -0.3068  0.2639  0.0512
  811BOLB   PO219454  35.559  26.244  15.969 -0.0966  0.0113 -0.0459
  811BOLB   GL319455  35.729  25.926  15.697  0.0479  0.2426 -0.0421
  811BOLB   GL419456  35.654  25.633  15.775 -0.2274 -0.2483 -0.0811
  811BOLB   C1C19457  35.790  25.784  15.278 -0.0283  0.0858 -0.1263
  811BOLB   C2C19458  35.826  25.817  14.804  0.0395 -0.1122  0.0784
  811BOLB   C3C19459  36.104  25.693  14.520  0.0364  0.1763 -0.3165
  811BOLB   C4C19460  36.478  25.750  14.600  0.3972 -0.1898  0.2527
  811BOLB   C1D19461  36.001  25.395  15.656  0.3847  0.1506  0.0008
  811BOLB   C2D19462  36.319  25.385  15.391 -0.0788 -0.2141  0.1350
  811BOLB   C3D19463  36.255  25.602  15.032 -0.0803 -0.1060 -0.2324
  811BOLB   C4D19464  36.287  26.074  14.909  0.0872  0.4366 -0.0648
  812BOLB   NC119465  15.218  19.623   7.228 -0.0499 -0.0552 -0.0169
  812BOLB   PO119466  14.854  19.195   7.346  0.1111 -0.0408  0.3325
  812BOLB   GL119467  15.230  18.897   7.350  0.0219  0.3139  0.1371
  812BOLB   GL219468  15.448  19.071   7.428 -0.0627  0.0510  0.1982
  812BOLB   C1A19469  15.568  18.533   7.323 -0.1253 -0.0162 -0.0338
  812BOLB   C2A19470  15.932  18.384   7.126 -0.4194 -0.1084  0.0420
  812BOLB   C3A19471  16.287  18.503   6.891  0.0978  0.0657 -0.2663
  812BOLB   C4A19472  16.265  18.482   6.511 -0.1395 -0.2365 -0.1631
  812BOLB   C1B19473  15.752  19.112   7.327 -0.0485 -0.0852  0.1337
  812BOLB   C2B19474  15.981  18.940   7.083  0.2522 -0.0117  0.0234
  812BOLB   C3B19475  15.800  18.644   6.707  0.1106 -0.1656 -0.0481
  812BOLB   C4B19476  15.378  18.793   6.538  0.0019  0.2153  0.1650
  812BOLB   NC219477  18.507  18.592   6.783 -0.4012 -0.3401  0.0716
  812BOLB   PO219478  18.376  18.362   6.342  0.2070 -0.3326  0.2546
  812BOLB   GL319479  18.014  18.424   6.627  0.1468  0.2143  0.0947
  812BOLB   GL419480  18.012  18.641   6.668 -0.0477  0.2136  0.0015
  812BOLB   C1C19481  17.737  18.038   6.751 -0.0817  0.0536 -0.1911
  812BOLB   C2C19482  17.197  17.956   6.582 -0.0468 -0.0561  0.2255
  812BOLB   C3C19483  16.899  18.163   6.281 -0.3369  0.3298  0.1668
  812BOLB   C4C19484  16.458  18.158   6.306 -0.3085 -0.4474 -0.1545
  812BOLB   C1D19485  17.544  18.488   6.794  0.0666 -0.1440 -0.0152
  812BOLB   C2D19486  17.155  18.445   6.625  0.2213  0.0149  0.0744
  812BOLB   C3D19487  16.733  18.551   6.639 -0.3645 -0.2899 -0.2223
  812BOLB   C4D19488  16.552  18.964   6.577 -0.2804 -0.1750 -0.0894
  813BOLB   NC119489   0.229   9.225  18.042 -0.1942  0.1261 -0.0770
  813BOLB   PO119490  -0.228   9.292  17.886  0.1224  0.0900  0.1183
  813BOLB   GL119491  -0.103   9.597  17.600  0.1753 -0.0126  0.0365
  813BOLB   GL219492   0.258   9.696  17.636 -0.2457  0.1129 -0.1981
  813BOLB   C1A19493  -0.220  10.053  17.382  0.1021  0.1367  0.2552
  813BOLB   C2A19494  -0.131  10.411  17.356  0.2773  0.2699 -0.0387
  813BOLB   C3A19495  -0.144  10.647  17.758  0.1050 -0.0952  0.2217
  813BOLB   C4A19496  -0.423  11.005  17.837 -0.4867  0.1997  0.0789
  813BOLB   C1B19497   0.211   9.913  17.262  0.1030 -0.5010  0.1522
  813BOLB   C2B19498   0.074  10.129  16.914 -0.1674 -0.2562  0.0169
  813BOLB   C3B19499  -0.021  10.407  16.500 -0.1956 -0.0311 -0.0953
  813BOLB   C4B19500   0.112  10.763  16.360 -0.2168  0.1123  0.0549
  813BOLB   NC219501  -1.836  10.258  19.286  0.1336 -0.1422 -0.0260
  813BOLB   PO219502  -1.470  10.574  19.337 -0.2398  0.0094  0.0597
  813BOLB   GL319503  -1.289  10.877  19.112  0.0522 -0.4270 -0.2010
  813BOLB   GL419504  -1.453  11.163  19.281  0.1359 -0.1119 -0.1243
  813BOLB   C1C19505  -1.255  11.033  18.695  0.0611 -0.3197  0.1571
  813BOLB   C2C19506  -1.111  11.478  18.513  0.1018 -0.0937  0.1210
  813BOLB   C3C19507  -0.741  11.589  18.378 -0.0419 -0.0739 -0.4708
  813BOLB   C4C19508  -0.510  11.347  18.026 -0.0290  0.1365 -0.0912
  813BOLB   C1D19509  -1.557  11.471  18.931 -0.0708  0.0221  0.1015
  813BOLB   C2D19510  -1.385  11.816  18.737  0.1711  0.4598  0.3077
  813BOLB   C3D19511  -1.325  12.226  18.611 -0.1553  0.0879 -0.2244
  813BOLB   C4D19512  -1.462  12.467  18.293 -0.1797 -0.2443  0.3189
  814BOLB   NC119513  13.396  21.531   4.263  0.0168  0.1580 -0.2888
  814BOLB   PO119514  13.826  21.406   4.312  0.0048 -0.0141  0.1749
  814BOLB   GL119515  13.725  21.543   3.905  0.1676  0.1624  0.3225
  814BOLB   GL219516  13.657  21.316   3.758  0.0235 -0.3118 -0.2556
  814BOLB   C1A19517  14.002  21.692   3.674  0.0176  0.0757  0.0027
  814BOLB   C2A19518  14.323  21.808   3.638 -0.0909  0.0424  0.1193
  814BOLB   C3A19519  14.673  21.841   3.396  0.2758  0.1857  0.0322
  814BOLB   C4A19520  14.979  21.613   3.090  0.2999  0.0954  0.1996
  814BOLB   C1B19521  13.946  21.213   3.397 -0.4309  0.2280 -0.1797
  814BOLB   C2B19522  14.099  21.027   3.039  0.0591  0.1495 -0.1351
  814BOLB   C3B19523  13.958  20.967   2.663 -0.0487  0.0746 -0.0183
  814BOLB   C4B19524  14.022  20.860   2.099  0.2864  0.1133 -0.0348
  814BOLB   NC219525  16.580  22.440   1.332  0.1699  0.2587 -0.0280
  814BOLB   PO219526  16.697  22.502   1.768 -0.0025  0.1265 -0.1848
  814BOLB   GL319527  16.456  22.624   2.174  0.3216  0.0813 -0.0276
  814BOLB   GL419528  16.288  22.850   2.322  0.2317 -0.0840 -0.1153
  814BOLB   C1C19529  16.117  22.328   2.443  0.1764 -0.1415  0.0377
  814BOLB   C2C19530  15.922  22.267   2.801  0.0715 -0.0505 -0.2034
  814BOLB   C3C19531  15.678  21.950   3.076 -0.0032 -0.1954  0.0956
  814BOLB   C4C19532  15.492  21.633   3.058  0.1451  0.4683  0.2358
  814BOLB   C1D19533  15.894  22.816   2.449 -0.0893 -0.2142 -0.1620
  814BOLB   C2D19534  15.494  22.966   2.573  0.2288  0.3355  0.5003
  814BOLB   C3D19535  15.196  23.081   2.799 -0.2287  0.1769 -0.0262
  814BOLB   C4D19536  14.826  23.280   3.081  0.1964  0.1819  0.1512
  815BOLB   NC119537  10.014  22.019  18.143 -0.0018  0.0244  0.1154
  815BOLB   PO119538  10.307  22.248  17.892 -0.3033  0.1616  0.0128
  815BOLB   GL119539  10.557  22.445  18.098  0.0971 -0.1097  0.0493
  815BOLB   GL219540  10.407  22.325  18.410  0.0907  0.0166  0.0162
  815BOLB   C1A19541  10.834  22.491  18.516 -0.0730 -0.2227 -0.1076
  815BOLB   C2A19542  10.934  22.526  18.905  0.1860  0.2191  0.0980
  815BOLB   C3A19543  11.079  22.323  19.256 -0.1714  0.0983 -0.4451
  815BOLB   C4A19544  11.431  22.294  19.535  0.0289 -0.0515  0.0767
  815BOLB   C1B19545  10.203  22.393  18.762 -0.0479 -0.2449  0.1089
  815BOLB   C2B19546  10.441  22.652  19.026  0.1165  0.2003  0.0748
  815BOLB   C3B19547  10.634  22.606  19.360  0.0733  0.0971 -0.3001
  815BOLB   C4B19548  10.885  22.765  19.652  0.1026  0.0897  0.0408
  815BOLB   NC219549  11.275  21.002  21.951  0.1083 -0.3006  0.2197
  815BOLB   PO219550  11.297  21.274  21.631 -0.1717 -0.0674  0.2813
  815BOLB   GL319551  11.020  21.402  21.350 -0.2803  0.1195  0.4173
  815BOLB   GL419552  10.807  21.180  21.210  0.3093  0.2555 -0.1051
  815BOLB   C1C19553  11.045  21.527  20.908 -0.1237 -0.3888  0.1405
  815BOLB   C2C19554  11.328  21.775  20.632 -0.1931  0.1995  0.1126
  815BOLB   C3C19555  11.556  21.997  20.317  0.0376 -0.2780 -0.0881
  815BOLB   C4C19556  11.647  22.167  19.939  0.0915 -0.3554  0.1620
  815BOLB   C1D19557  10.644  20.881  20.875  0.3976  0.1295 -0.5877
  815BOLB   C2D19558  10.756  20.744  20.544 -0.1802 -0.0109  0.0818
  815BOLB   C3D19559  10.643  20.759  20.150 -0.1404  0.2180 -0.3088
  815BOLB   C4D19560  10.696  20.692  19.692  0.3096  0.0179 -0.0494
  816BOLB   NC119561  14.402  18.610  11.030 -0.2833  0.2774 -0.1887
  816BOLB   PO119562  14.219  18.649  11.448  0.1203  0.0164  0.1082
  816BOLB   GL119563  14.373  18.404  11.712 -0.0437 -0.1637 -0.1325
  816BOLB   GL219564  14.297  18.183  11.709  0.0972 -0.0505  0.1190
  816BOLB   C1A19565  14.792  18.332  11.753 -0.0537  0.0472 -0.0943
  816BOLB   C2A19566  15.098  17.947  11.953 -0.2800  0.4111 -0.2632
  816BOLB   C3A19567  15.360  17.668  12.058  0.2915 -0.1797  0.1523
  816BOLB   C4A19568  15.498  17.438  12.056  0.0410  0.1496 -0.0235
  816BOLB   C1B19569  14.591  17.932  11.886  0.0651 -0.3206  0.1523
  816BOLB   C2B19570  14.705  17.609  11.956  0.1074  0.1149 -0.0057
  816BOLB   C3B19571  14.989  17.280  12.081 -0.0684  0.1044  0.3094
  816BOLB   C4B19572  15.258  16.925  12.132 -0.1329  0.0191  0.1791
  816BOLB   NC219573  17.279  16.371  12.988 -0.1826  0.1539  0.1747
  816BOLB   PO219574  17.506  16.691  12.751  0.0484 -0.1040 -0.3854
  816BOLB   GL319575  17.168  16.671  12.545  0.1503  0.1440 -0.2706
  816BOLB   GL419576  16.971  16.337  12.468  0.4810  0.0955 -0.1167
  816BOLB   C1C19577  16.847  17.055  12.629  0.0261  0.3843 -0.1709
  816BOLB   C2C19578  16.471  16.791  12.654 -0.1919 -0.1241  0.2713
  816BOLB   C3C19579  16.137  17.092  12.508 -0.3435 -0.0685 -0.3323
  816BOLB   C4C19580  15.795  17.368  12.436  0.2842  0.1161 -0.0549
  816BOLB   C1D19581  16.713  16.475  12.144 -0.3502  0.0610  0.0654
  816BOLB   C2D19582  16.341  16.572  12.009 -0.1662  0.1364  0.0342
  816BOLB   C3D19583  16.041  16.774  12.079 -0.1562 -0.1276  0.2139
  816BOLB   C4D19584  15.685  17.019  12.058 -0.2163  0.0139  0.2036
  817BOLB   NC119585  14.958  23.363  11.205 -0.2376  0.1251  0.1293
  817BOLB   PO119586  15.007  23.146  10.842  0.3500 -0.3393  0.3158
  817BOLB   GL119587  15.242  23.412  10.789 -0.0707  0.0387  0.1353
  817BOLB   GL219588  15.461  23.148  11.055  0.1552  0.0635  0.0085
  817BOLB   C1A19589  15.615  23.485  10.758 -0.0336 -0.3080 -0.2368
  817BOLB   C2A19590  15.974  23.351  10.838  0.1421 -0.1411 -0.2582
  817BOLB   C3A19591  16.479  23.415  10.698 -0.1477  0.1244  0.0653
  817BOLB   C4A19592  16.890  23.286  10.610  0.0094  0.0164  0.1262
  817BOLB   C1B19593  15.769  23.088  11.244 -0.3755 -0.0239  0.0238
  817BOLB   C2B19594  16.247  23.181  11.356  0.1991 -0.1024 -0.1246
  817BOLB   C3B19595  16.582  23.283  11.171  0.0268 -0.2418 -0.3431
  817BOLB   C4B19596  16.892  23.633  11.094  0.0433 -0.2257  0.2015
  817BOLB   NC219597  18.927  23.941  11.163  0.0094 -0.0399  0.0452
  817BOLB   PO219598  18.966  24.246  10.776  0.1120  0.2511 -0.3118
  817BOLB   GL319599  18.634  24.127  10.708 -0.0384 -0.1501 -0.2047
  817BOLB   GL419600  18.404  24.431  10.577  0.2278 -0.0490  0.0864
  817BOLB   C1C19601  18.359  23.873  10.547  0.0180  0.0084 -0.4185
  817BOLB   C2C19602  18.010  23.493  10.441 -0.2248  0.4213  0.2464
  817BOLB   C3C19603  17.661  23.253  10.317 -0.1559  0.0030  0.0151
  817BOLB   C4C19604  17.193  23.105  10.537 -0.0323 -0.0308 -0.3213
  817BOLB   C1D19605  18.068  24.325  10.753  0.0034 -0.1578 -0.1221
  817BOLB   C2D19606  17.721  24.214  10.879 -0.0163 -0.2539 -0.0383
  817BOLB   C3D19607  17.286  24.009  10.932  0.2441 -0.1333  0.1865
  817BOLB   C4D19608  17.060  24.058  11.372  0.2695 -0.0868 -0.0108
  818BOLB   NC119609   8.952  25.596  17.303 -0.2662  0.1839 -0.1890
  818BOLB   PO119610   9.085  25.077  17.492  0.1348 -0.0719 -0.5243
  818BOLB   GL119611   9.200  25.406  17.814  0.0092  0.2121 -0.0344
  818BOLB   GL219612   8.981  25.684  17.853  0.0633 -0.2821 -0.0801
  818BOLB   C1A19613   9.357  25.407  18.198 -0.1134  0.0203  0.1503
  818BOLB   C2A19614   9.392  25.613  18.624  0.0487 -0.2832  0.0901
  818BOLB   C3A19615   9.658  25.966  18.871 -0.5433  0.2205  0.1783
  818BOLB   C4A19616   9.765  26.392  18.956  0.0547  0.0040 -0.1309
  818BOLB   C1B19617   9.084  25.871  18.283  0.0600  0.0092  0.0615
  818BOLB   C2B19618   9.150  26.092  18.620 -0.3602 -0.1186  0.4478
  818BOLB   C3B19619   9.156  26.351  18.926 -0.1040 -0.3035  0.1466
  818BOLB   C4B19620   8.952  26.459  19.300 -0.1190 -0.0429 -0.0386
  818BOLB   NC219621   9.848  28.419  20.332 -0.0615  0.0604  0.2200
  818BOLB   PO219622  10.009  28.120  20.588 -0.4918  0.3744 -0.0621
  818BOLB   GL319623   9.844  27.921  20.188 -0.0745 -0.1098 -0.0155
  818BOLB   GL419624   9.485  27.995  20.263 -0.5640 -0.2757  0.0465
  818BOLB   C1C19625   9.680  27.561  20.085  0.3713  0.0182 -0.0948
  818BOLB   C2C19626   9.712  27.280  19.734  0.0822 -0.2760 -0.0662
  818BOLB   C3C19627   9.471  27.153  19.338 -0.0639  0.0715  0.1021
  818BOLB   C4C19628   9.472  26.743  19.101 -0.1807 -0.0085 -0.0205
  818BOLB   C1D19629   9.424  27.916  19.759 -0.1436  0.1252 -0.2134
  818BOLB   C2D19630   9.112  27.768  19.499 -0.1687 -0.3106  0.2274
  818BOLB   C3D19631   8.717  27.607  19.332  0.1804  0.1351 -0.1530
  818BOLB   C4D19632   8.312  27.518  19.280 -0.1325 -0.0975  0.3340
  819BOLB   NC119633  12.029  21.011  16.846  0.3661  0.2353  0.0771
  819BOLB   PO119634  12.357  21.321  16.584 -0.2478  0.2010 -0.2656
  819BOLB   GL119635  12.784  21.309  16.873 -0.0650  0.2643  0.0960
  819BOLB   GL219636  13.113  21.191  16.762 -0.1783 -0.1141 -0.1106
  819BOLB   C1A19637  12.999  21.315  17.218  0.0478  0.0553  0.0654
  819BOLB   C2A19638  13.256  21.197  17.528 -0.1664 -0.1440  0.0712
  819BOLB   C3A19639  13.791  21.196  17.550  0.1272 -0.0985  0.1956
  819BOLB   C4A19640  14.146  21.020  17.617  0.0018  0.0065  0.1314
  819BOLB   C1B19641  13.672  21.170  16.877 -0.0252 -0.0241  0.1246
  819BOLB   C2B19642  14.067  21.043  16.866 -0.0836  0.0911  0.0824
  819BOLB   C3B19643  14.349  20.855  16.645 -0.0706 -0.1454 -0.1441
  819BOLB   C4B19644  14.734  20.724  16.635  0.0914 -0.0834  0.3719
  819BOLB   NC219645  14.768  20.645  20.066  0.3904  0.3662  0.4135
  819BOLB   PO219646  14.375  20.608  20.020 -0.1421 -0.0365  0.2807
  819BOLB   GL319647  14.277  20.736  19.584  0.3367  0.0279  0.1558
  819BOLB   GL419648  14.129  21.061  19.439 -0.0224 -0.3992  0.1530
  819BOLB   C1C19649  14.441  20.747  19.210 -0.0174  0.0411  0.5743
  819BOLB   C2C19650  14.432  20.851  18.718 -0.0454 -0.1661  0.1110
  819BOLB   C3C19651  14.514  21.148  18.308 -0.2197 -0.0820 -0.0166
  819BOLB   C4C19652  14.451  21.235  17.834 -0.1751 -0.0078  0.5581
  819BOLB   C1D19653  14.066  21.078  18.974 -0.3387  0.1079 -0.0787
  819BOLB   C2D19654  14.053  21.116  18.495 -0.3190  0.0341 -0.1255
  819BOLB   C3D19655  14.072  21.295  18.128 -0.1469  0.2973  0.1196
  819BOLB   C4D19656  14.123  21.652  17.872  0.0836 -0.1077 -0.2894
  820BOLB   NC119657   5.680  16.629  17.186 -0.0563  0.0764 -0.0208
  820BOLB   PO119658   6.133  16.764  17.085  0.1284  0.0190 -0.1126
  820BOLB   GL119659   6.203  16.524  17.494 -0.0029 -0.0336  0.0803
  820BOLB   GL219660   5.989  16.436  17.744 -0.1309 -0.2037  0.0697
  820BOLB   C1A19661   6.462  16.352  17.777 -0.2740 -0.1144 -0.0759
  820BOLB   C2A19662   6.266  16.300  18.269  0.1441  0.0048 -0.0835
  820BOLB   C3A19663   6.153  15.992  18.700 -0.1404 -0.3168 -0.1072
  820BOLB   C4A19664   5.958  16.329  19.071  0.2070 -0.0013 -0.0804
  820BOLB   C1B19665   5.785  16.096  17.942  0.1334  0.1031 -0.1997
  820BOLB   C2B19666   5.803  15.722  18.134  0.0111 -0.1719 -0.1808
  820BOLB   C3B19667   5.792  15.346  18.058  0.0791  0.1155  0.1672
  820BOLB   C4B19668   5.648  14.837  18.085 -0.0895  0.0813 -0.0952
  820BOLB   NC219669   6.275  15.834  21.267 -0.2078 -0.1544  0.2768
  820BOLB   PO219670   5.823  15.759  21.302 -0.0112  0.1339 -0.1160
  820BOLB   GL319671   5.862  15.890  20.890 -0.0873  0.0506 -0.1376
  820BOLB   GL419672   6.248  15.947  20.818 -0.1700 -0.2728  0.1813
  820BOLB   C1C19673   5.810  16.036  20.532 -0.0640 -0.0670 -0.2126
  820BOLB   C2C19674   5.648  16.198  20.111  0.0875 -0.2935  0.0567
  820BOLB   C3C19675   5.635  16.338  19.705  0.1796  0.0445 -0.1558
  820BOLB   C4C19676   5.689  16.455  19.319  0.0139  0.2015 -0.2306
  820BOLB   C1D19677   6.240  16.303  20.701  0.2149 -0.1030 -0.2961
  820BOLB   C2D19678   6.316  16.646  20.426 -0.1415  0.3731  0.1109
  820BOLB   C3D19679   6.194  16.858  20.138  0.0077  0.3200  0.1739
  820BOLB   C4D19680   6.032  17.020  19.787 -0.1154  0.1194  0.0808
  821BOLB   NC119681   3.782  27.256  14.374  0.2333 -0.1047 -0.1367
  821BOLB   PO119682   4.039  27.324  14.779  0.4277  0.3344 -0.2297
  821BOLB   GL119683   3.870  27.541  15.110  0.3029  0.2722  0.0168
  821BOLB   GL219684   3.997  27.656  15.365 -0.0183 -0.1496 -0.0812
  821BOLB   C1A19685   3.474  27.847  15.084 -0.2585  0.2106  0.0448
  821BOLB   C2A19686   3.367  28.207  15.297  0.2278 -0.2343 -0.3737
  821BOLB   C3A19687   3.050  28.531  15.341  0.3224 -0.0865  0.0753
  821BOLB   C4A19688   2.668  28.772  15.187 -0.1432 -0.3783  0.0369
  821BOLB   C1B19689   3.814  27.958  15.559  0.0777  0.1714 -0.0151
  821BOLB   C2B19690   3.815  28.373  15.721 -0.3599 -0.1914  0.1293
  821BOLB   C3B19691   3.708  28.697  15.954 -0.4127  0.1155 -0.3697
  821BOLB   C4B19692   3.798  29.047  16.263 -0.0312 -0.1009  0.0046
  821BOLB   NC219693   1.344  31.316  15.549 -0.1823  0.2471  0.1491
  821BOLB   PO219694   1.463  30.917  15.451  0.3053 -0.0489  0.0575
  821BOLB   GL319695   1.872  30.729  15.389 -0.0600  0.0853 -0.1475
  821BOLB   GL419696   2.176  30.528  15.578  0.2103 -0.2494 -0.0296
  821BOLB   C1C19697   2.018  30.339  15.102  0.1816 -0.1916  0.0635
  821BOLB   C2C19698   2.128  29.950  15.061  0.2885 -0.1971  0.2506
  821BOLB   C3C19699   2.205  29.591  15.031  0.2005  0.0873  0.0262
  821BOLB   C4C19700   2.281  29.129  15.204  0.0810 -0.1187  0.1732
  821BOLB   C1D19701   2.368  30.138  15.592  0.0078  0.2357  0.2241
  821BOLB   C2D19702   2.204  29.773  15.495  0.1627  0.1381 -0.3034
  821BOLB   C3D19703   1.941  29.367  15.518 -0.4133 -0.1015 -0.2506
  821BOLB   C4D19704   1.923  29.002  15.673  0.1415  0.0541 -0.1370
  822BOLB   NC119705  10.572  27.437  14.359  0.3243  0.1925 -0.0159
  822BOLB   PO119706  10.317  27.556  13.964  0.1308  0.1082 -0.3738
  822BOLB   GL119707  10.404  27.864  14.213  0.1215  0.1577 -0.0592
  822BOLB   GL219708  10.468  28.082  14.116 -0.0857  0.0086 -0.0530
  822BOLB   C1A19709  10.431  28.059  14.642 -0.2639  0.0151 -0.0508
  822BOLB   C2A19710  10.756  28.265  14.812 -0.3274 -0.1295 -0.1678
  822BOLB   C3A19711  10.744  28.580  15.085 -0.1450 -0.1137  0.1577
  822BOLB   C4A19712  10.840  28.983  15.311 -0.0190 -0.0726 -0.3243
  822BOLB   C1B19713  10.539  28.501  14.376 -0.0679  0.1021  0.0425
  822BOLB   C2B19714  10.357  28.636  14.720 -0.2113 -0.0728 -0.0657
  822BOLB   C3B19715  10.269  28.902  15.104  0.0973 -0.0105  0.1584
  822BOLB   C4B19716  10.014  29.297  15.103  0.2088 -0.1852 -0.1765
  822BOLB   NC219717  11.086  31.523  15.806  0.2517 -0.1971 -0.0859
  822BOLB   PO219718  11.387  31.404  16.021 -0.0214  0.1071 -0.1188
  822BOLB   GL319719  11.341  30.960  15.914  0.0920 -0.3834  0.0397
  822BOLB   GL419720  11.402  30.758  16.108  0.0812 -0.0747 -0.2157
  822BOLB   C1C19721  11.332  30.654  15.631  0.0601 -0.0717 -0.1619
  822BOLB   C2C19722  11.240  30.159  15.744 -0.1744  0.2125 -0.0249
  822BOLB   C3C19723  11.096  29.779  15.543 -0.1621 -0.0840  0.0527
  822BOLB   C4C19724  11.004  29.286  15.540  0.0404 -0.0870  0.0510
  822BOLB   C1D19725  11.044  30.588  16.116 -0.1016 -0.1635 -0.0422
  822BOLB   C2D19726  10.775  30.221  16.059  0.2076 -0.2507  0.0172
  822BOLB   C3D19727  10.347  30.072  15.967 -0.1682 -0.4000  0.1505
  822BOLB   C4D19728   9.994  30.009  15.987  0.0942 -0.4264  0.2054
  823BOLB   NC119729   8.149  19.372  18.033 -0.2638  0.1301 -0.1721
  823BOLB   PO119730   7.806  19.543  18.267 -0.2605  0.0286  0.3830
  823BOLB   GL119731   7.751  19.555  18.705 -0.1326  0.1826  0.1029
  823BOLB   GL219732   7.726  19.832  18.897 -0.3826 -0.1105  0.0795
  823BOLB   C1A19733   7.702  19.480  19.235  0.1221 -0.0975 -0.1357
  823BOLB   C2A19734   7.557  19.147  19.481 -0.1747 -0.0124 -0.0743
  823BOLB   C3A19735   7.691  18.904  19.841  0.1317  0.0567 -0.0334
  823BOLB   C4A19736   7.744  18.603  20.194  0.2490  0.0823  0.2315
  823BOLB   C1B19737   7.809  19.964  19.375 -0.0391 -0.3032 -0.0778
  823BOLB   C2B19738   7.762  20.100  19.828 -0.3805  0.0464 -0.0563
  823BOLB   C3B19739   7.878  20.109  20.332 -0.6544 -0.3919 -0.3193
  823BOLB   C4B19740   8.107  20.149  20.605 -0.0039  0.2131  0.0012
  823BOLB   NC219741   7.289  17.680  22.494 -0.0752 -0.0006 -0.4274
  823BOLB   PO219742   7.587  17.304  22.456  0.3456  0.0257  0.2313
  823BOLB   GL319743   7.689  17.544  22.092  0.0076 -0.0083 -0.2905
  823BOLB   GL419744   7.580  17.828  22.077 -0.0159 -0.2516 -0.1582
  823BOLB   C1C19745   7.871  17.645  21.707  0.0347  0.0781  0.2259
  823BOLB   C2C19746   7.730  17.816  21.367 -0.0615  0.1607  0.2514
  823BOLB   C3C19747   7.682  18.075  20.915  0.0680 -0.0961 -0.3245
  823BOLB   C4C19748   7.650  18.305  20.544 -0.0188 -0.4810 -0.0834
  823BOLB   C1D19749   7.369  17.721  21.711 -0.3826 -0.1047 -0.0781
  823BOLB   C2D19750   7.331  17.342  21.436  0.0339  0.0202  0.1579
  823BOLB   C3D19751   7.492  17.502  21.016 -0.0254  0.1038 -0.1762
  823BOLB   C4D19752   7.543  17.588  20.619 -0.1945 -0.0143 -0.3245
  824BOLB   NC119753  33.323  18.754   0.525 -0.0333  0.0840 -0.3929
  824BOLB   PO119754  33.230  18.583   0.907 -0.1632  0.0211 -0.0662
  824BOLB   GL119755  33.395  18.458   1.313 -0.1571 -0.2423  0.1176
  824BOLB   GL219756  33.460  18.219   1.509 -0.3934  0.1431  0.0565
  824BOLB   C1A19757  33.619  18.722   1.558 -0.3075  0.1582  0.1067
  824BOLB   C2A19758  33.717  19.078   1.777 -0.0195 -0.0752 -0.1336
  824BOLB   C3A19759  34.126  19.261   2.074  0.1520  0.1920 -0.1942
  824BOLB   C4A19760  34.481  19.434   1.987 -0.1497  0.0506 -0.2632
  824BOLB   C1B19761  33.882  18.331   1.272 -0.2671 -0.1037 -0.1706
  824BOLB   C2B19762  34.123  18.533   1.544  0.1300 -0.1484 -0.1736
  824BOLB   C3B19763  34.295  18.914   1.768  0.0066  0.2645 -0.3363
  824BOLB   C4B19764  34.717  18.999   1.838  0.0895 -0.0347  0.4586
  824BOLB   NC219765  35.209  20.126   0.081 -0.0509  0.0154  0.1436
  824BOLB   PO219766  34.921  20.284   0.266  0.1383 -0.0151  0.3722
  824BOLB   GL319767  35.370  20.310   0.515  0.2295  0.0212 -0.0731
  824BOLB   GL419768  35.627  20.179   0.353 -0.4057  0.3268 -0.0887
  824BOLB   C1C19769  35.444  20.176   0.941  0.0530 -0.1341 -0.2125
  824BOLB   C2C19770  35.308  20.020   1.240  0.0914  0.2410  0.0947
  824BOLB   C3C19771  34.946  19.717   1.361 -0.3247  0.1356 -0.3402
  824BOLB   C4C19772  34.718  19.673   1.674 -0.2899  0.4303 -0.0030
  824BOLB   C1D19773  35.630  19.832   0.635  0.2722  0.0519  0.1399
  824BOLB   C2D19774  35.366  19.548   0.979 -0.0560 -0.0765  0.2729
  824BOLB   C3D19775  35.342  19.219   1.207 -0.1959 -0.0713 -0.0619
  824BOLB   C4D19776  35.379  18.860   1.141  0.2333 -0.2185 -0.1249
  825BOLB   NC119777  11.324  19.152   3.573  0.0652 -0.0440 -0.1159
  825BOLB   PO119778  11.334  18.880   3.282  0.1800  0.1389 -0.1456
  825BOLB   GL119779  11.610  18.781   3.006  0.2668  0.0997  0.2024
  825BOLB   GL219780  11.576  18.458   2.804 -0.2681 -0.1159 -0.0915
  825BOLB   C1A19781  11.865  18.883   2.679  0.0242 -0.0898 -0.3677
  825BOLB   C2A19782  12.055  18.839   2.359  0.2201  0.2151  0.0391
  825BOLB   C3A19783  12.484  18.796   2.205  0.1109 -0.1796 -0.2268
  825BOLB   C4A19784  12.732  18.585   1.978  0.1479  0.2632 -0.0918
  825BOLB   C1B19785  11.511  18.080   2.519  0.1875  0.3319 -0.1491
  825BOLB   C2B19786  11.456  17.689   2.264 -0.0987 -0.0556 -0.3005
  825BOLB   C3B19787  11.607  17.210   2.166 -0.1851  0.1032  0.1424
  825BOLB   C4B19788  11.929  16.897   2.199  0.0016  0.2272 -0.0291
  825BOLB   NC219789  13.997  17.171   0.102  0.0909 -0.1570 -0.1496
  825BOLB   PO219790  13.494  17.213   0.327 -0.3847  0.0310 -0.0004
  825BOLB   GL319791  13.255  17.357   0.716  0.1400  0.4264  0.1474
  825BOLB   GL419792  12.903  17.245   0.664  0.2078  0.1196  0.0713
  825BOLB   C1C19793  13.017  17.467   1.065 -0.0590 -0.0010 -0.2140
  825BOLB   C2C19794  12.741  17.524   1.302  0.1809 -0.1423 -0.0449
  825BOLB   C3C19795  12.604  17.876   1.483 -0.1051  0.2047  0.0537
  825BOLB   C4C19796  12.789  18.067   1.888  0.2266  0.0959 -0.1916
  825BOLB   C1D19797  12.493  17.231   0.898 -0.0257  0.0267 -0.1953
  825BOLB   C2D19798  12.136  17.081   1.056  0.0648  0.3224 -0.0680
  825BOLB   C3D19799  11.836  16.734   1.066 -0.2794 -0.2415 -0.2426
  825BOLB   C4D19800  11.428  16.482   1.074 -0.0088 -0.0872 -0.2695
  826BOLB   NC119801   4.601  22.508  18.378  0.2043 -0.1530  0.1978
  826BOLB   PO119802   4.676  22.116  18.235  0.2334  0.3529  0.0565
  826BOLB   GL119803   4.714  21.993  18.606  0.1158  0.2622  0.3491
  826BOLB   GL219804   5.017  21.908  18.789 -0.1384 -0.2357 -0.0831
  826BOLB   C1A19805   4.759  22.326  19.013 -0.0149 -0.1782  0.0100
  826BOLB   C2A19806   4.840  22.393  19.445  0.1561 -0.1803  0.3010
  826BOLB   C3A19807   4.740  22.187  19.804 -0.4515 -0.1001 -0.3239
  826BOLB   C4A19808   4.965  22.152  20.262 -0.2635  0.1619  0.3381
  826BOLB   C1B19809   5.070  21.918  19.285  0.2302 -0.0052  0.1180
  826BOLB   C2B19810   5.158  21.954  19.745  0.1347 -0.1601  0.0694
  826BOLB   C3B19811   5.463  21.738  20.080  0.0862 -0.2524 -0.0030
  826BOLB   C4B19812   5.688  21.634  20.353 -0.2200  0.3682 -0.2177
  826BOLB   NC219813   4.835  22.137  22.531 -0.2544 -0.1083  0.0696
  826BOLB   PO219814   5.192  22.404  22.693  0.1813 -0.2868 -0.0009
  826BOLB   GL319815   5.218  22.503  22.224 -0.1842 -0.2103  0.0732
  826BOLB   GL419816   5.033  22.253  22.109 -0.0977 -0.0244 -0.0882
  826BOLB   C1C19817   5.244  22.784  21.841  0.3349  0.5162 -0.0831
  826BOLB   C2C19818   5.037  22.684  21.432 -0.2790 -0.0280 -0.0322
  826BOLB   C3C19819   4.903  22.406  21.114  0.2977 -0.0478 -0.1173
  826BOLB   C4C19820   4.777  22.293  20.686 -0.0092  0.1079 -0.0414
  826BOLB   C1D19821   5.122  22.210  21.705 -0.0334 -0.2431  0.2037
  826BOLB   C2D19822   5.131  22.111  21.359 -0.0191 -0.2373 -0.0313
  826BOLB   C3D19823   5.383  21.854  21.064 -0.2944 -0.2709 -0.0372
  826BOLB   C4D19824   5.386  21.501  20.863  0.0229 -0.2426 -0.1089
  827BOLB   NC119825   3.947  25.710   4.991 -0.1127 -0.1265 -0.2993
  827BOLB   PO119826   3.942  25.665   4.579 -0.1841  0.1548 -0.3240
  827BOLB   GL119827   4.179  25.738   4.222  0.0891  0.0119  0.1448
  827BOLB   GL219828   4.339  25.594   4.169 -0.0977  0.0113 -0.0591
  827BOLB   C1A19829   3.982  25.903   3.722 -0.0075 -0.1501 -0.0548
  827BOLB   C2A19830   4.142  26.003   3.263  0.1204 -0.2544 -0.0209
  827BOLB   C3A19831   4.051  26.167   2.919  0.0134  0.2897 -0.1102
  827BOLB   C4A19832   3.935  26.139   2.465  0.2409  0.0018  0.3691
  827BOLB   C1B19833   4.478  25.873   3.773 -0.3187 -0.2199  0.3296
  827BOLB   C2B19834   4.653  26.123   3.449 -0.0032  0.0867 -0.0288
  827BOLB   C3B19835   4.977  26.017   2.983 -0.4352  0.1051 -0.1362
  827BOLB   C4B19836   4.920  26.088   2.515 -0.1078  0.0758 -0.1888
  827BOLB   NC219837   2.901  27.524   1.056 -0.0386  0.4374 -0.1680
  827BOLB   PO219838   2.807  27.331   0.702 -0.2165  0.1280 -0.0746
  827BOLB   GL319839   3.032  27.048   1.001  0.2616 -0.2501  0.2427
  827BOLB   GL419840   2.885  26.834   1.036  0.1280 -0.2559  0.2065
  827BOLB   C1C19841   3.172  27.011   1.513 -0.1592  0.2932  0.2073
  827BOLB   C2C19842   3.379  26.576   1.669  0.0933 -0.1020  0.1553
  827BOLB   C3C19843   3.457  26.131   1.905 -0.1157  0.2641 -0.0348
  827BOLB   C4C19844   3.732  25.880   2.208  0.0140 -0.0212 -0.0995
  827BOLB   C1D19845   2.743  26.413   1.161 -0.1664  0.1965  0.2170
  827BOLB   C2D19846   2.384  26.245   1.367 -0.2284  0.4506  0.4603
  827BOLB   C3D19847   2.283  25.842   1.278  0.1526  0.0792  0.2837
  827BOLB   C4D19848   2.195  25.625   0.894 -0.0299  0.0627 -0.0350
  828BOLB   NC119849   8.816  27.129  15.871  0.1539  0.0571  0.1379
  828BOLB   PO119850   8.420  27.359  15.945 -0.0604  0.1557 -0.1504
  828BOLB   GL119851   8.707  27.383  16.331 -0.0992 -0.0524 -0.1245
  828BOLB   GL219852   8.789  27.678  16.230  0.0591 -0.1457  0.0552
  828BOLB   C1A19853   9.101  27.477  16.576 -0.2405 -0.2875 -0.4539
  828BOLB   C2A19854   9.189  27.737  16.937 -0.0366 -0.2214 -0.0182
  828BOLB   C3A19855   9.537  27.960  17.216  0.1712  0.0194  0.0413
  828BOLB   C4A19856   9.663  27.992  17.717 -0.0644 -0.0268 -0.1504
  828BOLB   C1B19857   8.568  28.158  16.154  0.1328  0.1103 -0.0431
  828BOLB   C2B19858   8.607  28.467  16.384  0.0691  0.2199 -0.1415
  828BOLB   C3B19859   8.564  28.962  16.331  0.2523  0.3748  0.2231
  828BOLB   C4B19860   8.510  29.298  16.523  0.3679 -0.0280 -0.0426
  828BOLB   NC219861   9.944  30.379  18.400 -0.1784 -0.0275 -0.1169
  828BOLB   PO219862  10.148  30.060  18.348 -0.1594  0.0536 -0.0915
  828BOLB   GL319863  10.099  29.545  18.404  0.1797 -0.0437  0.0314
  828BOLB   GL419864   9.698  29.495  18.247  0.0490  0.2525 -0.1321
  828BOLB   C1C19865  10.230  29.106  18.594 -0.0187 -0.0387  0.0077
  828BOLB   C2C19866  10.093  28.681  18.544 -0.0145 -0.0366  0.2382
  828BOLB   C3C19867  10.032  28.519  18.211  0.0955 -0.0686 -0.0456
  828BOLB   C4C19868   9.956  28.239  17.889  0.1328 -0.0058 -0.2024
  828BOLB   C1D19869   9.959  29.198  18.046  0.0322 -0.0896 -0.2408
  828BOLB   C2D19870  10.152  29.137  17.659  0.0206 -0.0168  0.1294
  828BOLB   C3D19871  10.163  28.829  17.273  0.0314  0.1374  0.1877
  828BOLB   C4D19872  10.211  28.542  17.089 -0.0213  0.2729  0.0057
  829BOLB   NC119873  10.478  26.248  21.369 -0.0907 -0.0869  0.2642
  829BOLB   PO119874  10.853  26.188  21.312  0.2257  0.4558 -0.0575
  829BOLB   GL119875  10.595  25.778  21.142  0.0459  0.2972 -0.1900
  829BOLB   GL219876  10.794  25.501  21.153  0.1888 -0.1503 -0.1021
  829BOLB   C1A19877  10.412  25.702  20.818  0.0096 -0.1019 -0.0958
  829BOLB   C2A19878  10.153  25.465  20.558  0.1947 -0.1557 -0.0411
  829BOLB   C3A19879   9.717  25.274  20.255 -0.0125 -0.0521 -0.2836
  829BOLB   C4A19880   9.522  25.427  19.952 -0.0426 -0.0006 -0.1072
  829BOLB   C1B19881  10.787  25.431  20.762  0.2371 -0.0050 -0.0890
  829BOLB   C2B19882  10.613  25.289  20.398 -0.0502  0.0010 -0.1870
  829BOLB   C3B19883  10.570  25.460  20.045 -0.4061 -0.1299 -0.0583
  829BOLB   C4B19884  10.859  25.602  19.607 -0.0629  0.2867  0.2605
  829BOLB   NC219885   8.364  26.175  21.693  0.0416  0.1764 -0.0483
  829BOLB   PO219886   8.573  25.887  21.511  0.2676 -0.1116 -0.0291
  829BOLB   GL319887   8.443  25.690  21.265 -0.1019 -0.2553  0.1296
  829BOLB   GL419888   8.331  25.375  21.332 -0.0245 -0.3090 -0.1878
  829BOLB   C1C19889   8.401  25.593  20.783  0.0831 -0.0514  0.1221
  829BOLB   C2C19890   8.668  25.859  20.547  0.0449  0.1526  0.2311
  829BOLB   C3C19891   8.914  25.890  20.173 -0.5450 -0.3652 -0.3716
  829BOLB   C4C19892   9.260  25.799  20.033 -0.0253 -0.0611 -0.1648
  829BOLB   C1D19893   8.483  25.081  21.036 -0.1461  0.2577  0.0290
  829BOLB   C2D19894   8.112  24.830  20.819  0.3974  0.3829  0.0526
  829BOLB   C3D19895   8.304  24.478  20.627 -0.2150  0.3139  0.0154
  829BOLB   C4D19896   8.500  24.263  20.407  0.2793  0.2448  0.1133
  830BOLB   NC119897  14.877  23.126   9.830 -0.1448 -0.2545 -0.0759
  830BOLB   PO119898  14.855  23.493   9.799 -0.1433 -0.2106  0.3029
  830BOLB   GL119899  15.057  23.853   9.977 -0.2577  0.3449 -0.0121
  830BOLB   GL219900  14.976  24.113   9.896 -0.2044 -0.1194 -0.0433
  830BOLB   C1A19901  15.443  24.037  10.008  0.0926  0.0504 -0.0651
  830BOLB   C2A19902  15.768  24.248  10.135  0.2140  0.0343  0.3106
  830BOLB   C3A19903  16.128  24.281  10.442 -0.0313 -0.1123  0.2246
  830BOLB   C4A19904  16.444  24.483  10.411  0.0465  0.0534  0.1224
  830BOLB   C1B19905  15.197  24.507  10.116  0.3183  0.1935  0.0759
  830BOLB   C2B19906  15.461  24.773  10.016 -0.3044  0.0440 -0.0304
  830BOLB   C3B19907  15.743  24.892  10.267  0.0755  0.0296  0.0080
  830BOLB   C4B19908  16.023  24.731  10.310 -0.3372  0.2985 -0.1012
  830BOLB   NC219909  18.228  25.572  11.855  0.1572 -0.3530  0.0246
  830BOLB   PO219910  18.211  25.386  11.437 -0.0636 -0.3208  0.2571
  830BOLB   GL319911  17.934  25.064  11.275 -0.0035 -0.3219  0.0608
  830BOLB   GL419912  18.024  25.258  10.934  0.0805 -0.0517  0.1557
  830BOLB   C1C19913  17.648  24.638  11.124 -0.2298 -0.1773 -0.3423
  830BOLB   C2C19914  17.353  24.558  10.866  0.1353  0.0182 -0.2614
  830BOLB   C3C19915  17.232  24.841  10.563 -0.0352  0.2353 -0.0424
  830BOLB   C4C19916  16.844  24.756  10.401  0.2242 -0.1029  0.0907
  830BOLB   C1D19917  17.953  24.969  10.660 -0.0564 -0.1299  0.0981
  830BOLB   C2D19918  17.747  24.683  10.587 -0.4524 -0.1368 -0.1105
  830BOLB   C3D19919  17.485  24.270  10.461  0.2337 -0.4670 -0.3312
  830BOLB   C4D19920  16.983  24.263  10.499 -0.2416 -0.0976 -0.2741
  831BOLB   NC119921  12.096  15.906   7.356 -0.1802  0.0659  0.0972
  831BOLB   PO119922  12.401  15.580   7.486  0.1623 -0.2582 -0.1229
  831BOLB   GL119923  12.493  15.297   7.119  0.0026  0.1913  0.0563
  831BOLB   GL219924  12.293  15.125   7.401 -0.1996 -0.1256  0.0850
  831BOLB   C1A19925  12.641  14.891   6.951 -0.0778  0.0282  0.0951
  831BOLB   C2A19926  12.748  14.670   6.579  0.0985 -0.1967  0.2425
  831BOLB   C3A19927  12.914  14.717   6.177  0.3986 -0.0548 -0.0108
  831BOLB   C4A19928  13.127  14.518   5.774 -0.0704 -0.1416 -0.0633
  831BOLB   C1B19929  12.440  14.736   7.376 -0.2056  0.2419  0.0982
  831BOLB   C2B19930  12.737  14.521   7.375  0.2254  0.0066 -0.0566
  831BOLB   C3B19931  13.153  14.269   7.433 -0.0941  0.1288  0.2044
  831BOLB   C4B19932  13.330  13.813   7.499  0.0171  0.4460  0.4534
  831BOLB   NC219933  14.456  12.869   4.844 -0.0662 -0.0317  0.0046
  831BOLB   PO219934  14.387  13.077   4.410 -0.0055  0.0311  0.1572
  831BOLB   GL319935  14.264  13.488   4.626 -0.1420  0.3052  0.2139
  831BOLB   GL419936  14.207  13.803   4.406 -0.0646 -0.2868  0.3551
  831BOLB   C1C19937  14.145  13.780   5.012  0.0473  0.2385 -0.0068
  831BOLB   C2C19938  13.769  13.992   5.133 -0.0475 -0.0253  0.1635
  831BOLB   C3C19939  13.416  14.184   5.269 -0.5533  0.2362 -0.3052
  831BOLB   C4C19940  13.195  14.189   5.614 -0.2192 -0.0721 -0.0711
  831BOLB   C1D19941  13.793  13.999   4.649  0.2341  0.0608  0.0382
  831BOLB   C2D19942  13.387  14.236   4.821  0.0420  0.1952  0.2750
  831BOLB   C3D19943  13.032  14.383   4.926 -0.0366 -0.1316  0.1632
  831BOLB   C4D19944  12.752  14.647   4.934 -0.3460  0.1855  0.2122
  832BOLB   NC119945  37.007  23.722  12.318 -0.0795  0.0777  0.2506
  832BOLB   PO119946  36.849  24.024  12.575 -0.0833 -0.3322  0.1379
  832BOLB   GL119947  36.616  24.383  12.450  0.1263 -0.0161  0.1680
  832BOLB   GL219948  36.473  24.365  12.735  0.0827 -0.2426 -0.0837
  832BOLB   C1A19949  36.202  24.518  12.318  0.2146 -0.1625  0.1024
  832BOLB   C2A19950  35.862  24.873  12.251  0.0917 -0.0686 -0.4881
  832BOLB   C3A19951  35.470  24.920  11.963  0.2564 -0.0721 -0.0647
  832BOLB   C4A19952  35.107  24.972  11.709  0.1131 -0.2586  0.0680
  832BOLB   C1B19953  36.318  24.564  13.065  0.3198  0.3862 -0.1550
  832BOLB   C2B19954  36.105  24.800  13.260  0.2157  0.0319 -0.0073
  832BOLB   C3B19955  36.238  25.219  13.311 -0.1428 -0.0275  0.3544
  832BOLB   C4B19956  36.120  25.580  13.219 -0.0585  0.0937 -0.0181
  832BOLB   NC219957  33.226  26.214  13.074 -0.0593  0.0073  0.1762
  832BOLB   PO219958  33.722  26.148  13.051 -0.1112  0.1546 -0.1031
  832BOLB   GL319959  33.705  25.949  12.677 -0.3176 -0.0921 -0.2595
  832BOLB   GL419960  33.836  25.729  12.765 -0.1636 -0.3295  0.0258
  832BOLB   C1C19961  33.969  25.791  12.285 -0.3074 -0.0128 -0.3104
  832BOLB   C2C19962  34.207  25.748  12.012  0.3141 -0.1572  0.3162
  832BOLB   C3C19963  34.473  25.472  11.992  0.1113 -0.0878  0.1340
  832BOLB   C4C19964  34.837  25.352  11.730 -0.0441  0.3538 -0.0815
  832BOLB   C1D19965  34.337  25.699  12.687 -0.1575 -0.1377  0.1186
  832BOLB   C2D19966  34.654  25.406  12.509 -0.1463  0.2814 -0.1472
  832BOLB   C3D19967  34.952  25.390  12.223  0.0595  0.1727 -0.2007
  832BOLB   C4D19968  35.156  25.111  12.299  0.0783  0.0389  0.0938
  833BOLB   NC119969   5.147  26.682   5.659 -0.0517 -0.0339  0.1682
  833BOLB   PO119970   4.873  26.964   5.771 -0.0974 -0.0117  0.1342
  833BOLB   GL119971   4.883  27.314   5.459 -0.1690 -0.0544 -0.2267
  833BOLB   GL219972   5.056  27.616   5.509  0.2694  0.4134 -0.3419
  833BOLB   C1A19973   4.676  27.482   4.959  0.0541 -0.1365  0.1309
  833BOLB   C2A19974   4.426  27.595   4.623  0.0735 -0.4586 -0.1448
  833BOLB   C3A19975   4.063  27.676   4.313 -0.0300 -0.0569 -0.0854
  833BOLB   C4A19976   3.840  27.817   3.942 -0.1973 -0.4197  0.1928
  833BOLB   C1B19977   4.650  27.836   5.509 -0.0397 -0.0765 -0.0692
  833BOLB   C2B19978   4.370  28.179   5.333  0.0843 -0.1027 -0.1432
  833BOLB   C3B19979   4.087  28.388   5.102  0.0439 -0.2711  0.2505
  833BOLB   C4B19980   3.995  28.413   4.622  0.0024 -0.2201 -0.0634
  833BOLB   NC219981   2.178  28.886   2.386  0.1056 -0.2456  0.4881
  833BOLB   PO219982   2.579  28.996   2.449  0.1454 -0.3699  0.2322
  833BOLB   GL319983   2.773  28.812   2.699  0.2582  0.1060 -0.0633
  833BOLB   GL419984   2.939  28.661   2.538  0.3574  0.0429 -0.2571
  833BOLB   C1C19985   2.658  28.504   3.052 -0.5459 -0.1316 -0.3520
  833BOLB   C2C19986   3.024  28.233   3.168  0.2037 -0.2599  0.2341
  833BOLB   C3C19987   3.292  28.172   3.478 -0.0152  0.0937 -0.3796
  833BOLB   C4C19988   3.768  27.997   3.630 -0.2273 -0.2500  0.1297
  833BOLB   C1D19989   3.050  28.304   2.703  0.0280  0.0456  0.2480
  833BOLB   C2D19990   3.229  27.872   2.857 -0.0364  0.1842 -0.2750
  833BOLB   C3D19991   3.338  27.607   3.405  0.4354 -0.0176  0.1581
  833BOLB   C4D19992   3.416  27.429   3.815  0.1351  0.2708  0.0252
  834BOLB   NC119993  37.451   7.258  14.215 -0.1251  0.0493 -0.2271
  834BOLB   PO119994  37.699   7.094  13.975 -0.1313 -0.5365 -0.1810
  834BOLB   GL119995  37.698   7.575  13.885  0.1352  0.4911  0.3884
  834BOLB   GL219996  37.296   7.598  13.734 -0.1251  0.0172  0.1961
  834BOLB   C1A19997  37.561   7.906  13.998  0.1061 -0.0178  0.2167
  834BOLB   C2A19998  37.570   8.339  13.995  0.1543 -0.4166  0.2274
  834BOLB   C3A19999  37.700   8.696  13.930  0.3577 -0.1058  0.2576
  834BOLB   C4A20000  37.872   8.800  13.659  0.1434  0.0568  0.2239
  834BOLB   C1B20001  37.222   8.112  13.666 -0.5011 -0.3241 -0.2050
  834BOLB   C2B20002  36.901   8.395  13.890  0.0834 -0.2031  0.2155
  834BOLB   C3B20003  36.489   8.674  14.008 -0.2883  0.0869  0.0277
  834BOLB   C4B20004  36.130   9.012  13.911 -0.1250 -0.0817  0.1421
  834BOLB   NC220005  38.744   6.585  13.566 -0.0526 -0.2405  0.2093
  834BOLB   PO220006  39.119   6.556  13.407  0.0251 -0.0663 -0.0603
  834BOLB   GL320007  39.025   6.985  13.401  0.3390 -0.0439  0.1641
  834BOLB   GL420008  39.005   7.138  13.073 -0.5600 -0.0057 -0.0550
  834BOLB   C1C20009  38.873   7.390  13.649 -0.0797 -0.0026 -0.3178
  834BOLB   C2C20010  38.662   7.829  13.718 -0.0948  0.1175  0.0803
  834BOLB   C3C20011  38.364   8.134  13.467 -0.1209  0.1304  0.0733
  834BOLB   C4C20012  38.290   8.525  13.524  0.2321  0.5092 -0.2273
  834BOLB   C1D20013  39.000   7.505  12.907  0.1276 -0.4390 -0.2916
  834BOLB   C2D20014  39.157   7.940  13.003  0.3089  0.0117  0.0938
  834BOLB   C3D20015  38.954   8.230  13.260 -0.0826  0.2050 -0.1001
  834BOLB   C4D20016  38.833   8.237  13.547 -0.0384 -0.2485 -0.2112
  835BOLB   NC120017   9.744  31.314   4.962  0.1497 -0.0914 -0.1487
  835BOLB   PO120018   9.243  31.386   5.123 -0.0948 -0.0645  0.0421
  835BOLB   GL120019   9.367  30.963   5.257  0.2473  0.0870  0.1686
  835BOLB   GL220020   9.624  30.958   5.406 -0.0165 -0.1879  0.0953
  835BOLB   C1A20021   9.063  30.600   5.433  0.1121  0.1635 -0.1169
  835BOLB   C2A20022   8.996  30.096   5.532  0.0674 -0.1780  0.2259
  835BOLB   C3A20023   8.957  29.919   5.934 -0.1299  0.1635  0.1821
  835BOLB   C4A20024   8.775  30.022   6.431  0.1724 -0.1519  0.0302
  835BOLB   C1B20025   9.426  30.693   5.759 -0.0581 -0.2493 -0.0854
  835BOLB   C2B20026   9.288  30.400   5.899 -0.1202 -0.1791 -0.0143
  835BOLB   C3B20027   8.908  30.393   5.941  0.1071  0.1048  0.0929
  835BOLB   C4B20028   8.591  30.363   5.548 -0.1869  0.0285 -0.0455
  835BOLB   NC220029   8.536  28.680   7.757 -0.3721 -0.0822  0.1632
  835BOLB   PO220030   8.424  28.747   8.192 -0.2227 -0.1653  0.1123
  835BOLB   GL320031   8.483  29.159   8.033  0.0844 -0.1170  0.0680
  835BOLB   GL420032   8.786  29.185   7.785  0.1704  0.0189 -0.0181
  835BOLB   C1C20033   8.674  29.662   7.949  0.1333  0.1335 -0.0467
  835BOLB   C2C20034   8.524  29.944   7.597 -0.0068  0.1935 -0.2353
  835BOLB   C3C20035   8.630  30.090   7.232 -0.1671 -0.3168 -0.3435
  835BOLB   C4C20036   8.885  30.063   6.871  0.0698  0.3890 -0.0290
  835BOLB   C1D20037   9.030  29.412   7.507  0.0755 -0.0500  0.1020
  835BOLB   C2D20038   9.193  29.816   7.375 -0.2353 -0.3630 -0.0949
  835BOLB   C3D20039   9.037  30.155   7.632  0.3742 -0.0930 -0.4003
  835BOLB   C4D20040   9.032  30.471   7.965  0.2126  0.2555  0.2946
  836BOLB   NC120041  13.755  21.821  13.033  0.1557  0.1074  0.2028
  836BOLB   PO120042  14.095  21.825  13.480 -0.0354 -0.1405  0.2993
  836BOLB   GL120043  14.607  21.588  13.576  0.2522  0.0690 -0.0753
  836BOLB   GL220044  14.717  21.730  13.866  0.3576 -0.1198 -0.2512
  836BOLB   C1A20045  15.067  21.509  13.708 -0.2223 -0.0762  0.3520
  836BOLB   C2A20046  15.463  21.567  13.543  0.0549  0.1153 -0.3611
  836BOLB   C3A20047  15.913  21.509  13.529 -0.3594 -0.4908  0.0480
  836BOLB   C4A20048  16.330  21.570  13.569 -0.3860  0.1686 -0.0851
  836BOLB   C1B20049  14.813  21.673  14.281  0.1424 -0.1586 -0.3358
  836BOLB   C2B20050  15.186  21.758  14.519  0.1580  0.4191 -0.1932
  836BOLB   C3B20051  15.277  21.824  15.010  0.3779 -0.0212  0.3199
  836BOLB   C4B20052  15.471  21.657  15.290 -0.3300 -0.1951 -0.1814
  836BOLB   NC220053  18.527  22.527  15.081  0.3861  0.0906 -0.4028
  836BOLB   PO220054  18.180  22.687  14.871  0.0914 -0.0760  0.0355
  836BOLB   GL320055  17.924  22.546  14.618 -0.0595  0.3028  0.0490
  836BOLB   GL420056  17.609  22.805  14.764 -0.2442  0.1088 -0.1544
  836BOLB   C1C20057  17.527  22.436  14.297  0.1689  0.1083  0.2225
  836BOLB   C2C20058  17.206  22.285  14.084 -0.2109 -0.2912 -0.0723
  836BOLB   C3C20059  16.740  22.188  14.079 -0.1596  0.1603  0.2356
  836BOLB   C4C20060  16.541  21.921  13.808  0.3333 -0.1270  0.3584
  836BOLB   C1D20061  17.268  22.882  14.572 -0.0636 -0.0871  0.3983
  836BOLB   C2D20062  16.930  22.676  14.364  0.1633 -0.0798 -0.1298
  836BOLB   C3D20063  16.502  22.675  14.098 -0.2045 -0.2170  0.0939
  836BOLB   C4D20064  16.215  22.746  13.797 -0.3034 -0.0838  0.3445
  837BOLB   NC120065  11.527  10.067  11.345  0.1678  0.3110 -0.0667
  837BOLB   PO120066  11.127  10.030  11.611 -0.1356  0.1014 -0.2341
  837BOLB   GL120067  11.036  10.395  11.716 -0.3427  0.0585  0.5077
  837BOLB   GL220068  11.328  10.668  11.629  0.3306 -0.0581  0.0148
  837BOLB   C1A20069  10.861  10.872  11.653 -0.1905  0.4025 -0.4332
  837BOLB   C2A20070  10.806  11.249  11.394 -0.2504 -0.2689  0.0691
  837BOLB   C3A20071  11.033  11.456  10.993 -0.1035 -0.1168  0.0345
  837BOLB   C4A20072  11.396  11.629  10.763 -0.0199  0.2432 -0.0132
  837BOLB   C1B20073  11.238  10.909  11.361 -0.1087  0.0440 -0.0366
  837BOLB   C2B20074  11.486  10.942  10.927 -0.1727 -0.3042 -0.0801
  837BOLB   C3B20075  11.698  11.163  10.616  0.1139 -0.0757 -0.0892
  837BOLB   C4B20076  11.886  11.400  10.335  0.0256 -0.0698  0.2239
  837BOLB   NC220077  13.261  10.391  11.469 -0.2337  0.0026  0.0142
  837BOLB   PO220078  13.056  10.794  11.459  0.0442  0.2448 -0.0347
  837BOLB   GL320079  12.886  11.196  11.328  0.2729  0.3106 -0.3385
  837BOLB   GL420080  12.888  11.427  11.471  0.1533 -0.0667  0.0345
  837BOLB   C1C20081  12.602  11.303  10.978 -0.0545  0.0202 -0.1011
  837BOLB   C2C20082  12.377  11.454  10.732 -0.4455  0.0678 -0.0119
  837BOLB   C3C20083  12.232  11.807  10.600 -0.3527 -0.2066 -0.1349
  837BOLB   C4C20084  11.763  11.900  10.673 -0.0268  0.2676 -0.0957
  837BOLB   C1D20085  12.800  11.755  10.992  0.0240  0.1471  0.0234
  837BOLB   C2D20086  12.572  12.140  10.823 -0.1303 -0.1229 -0.3286
  837BOLB   C3D20087  12.382  12.334  10.485 -0.0487  0.0800 -0.0294
  837BOLB   C4D20088  11.949  12.453  10.426 -0.0227  0.2462  0.0117
  838BOLB   NC120089   1.798  11.357   0.820 -0.0858 -0.0740  0.0437
  838BOLB   PO120090   1.951  11.039   0.919 -0.2692 -0.0808 -0.0862
  838BOLB   GL120091   1.929  10.890   1.308 -0.0314  0.0884 -0.3817
  838BOLB   GL220092   2.262  10.949   1.542 -0.1559 -0.1454 -0.0462
  838BOLB   C1A20093   1.843  10.747   1.789  0.1287  0.2047  0.0543
  838BOLB   C2A20094   1.891  10.935   2.336 -0.1735 -0.0820  0.0144
  838BOLB   C3A20095   2.029  10.689   2.635 -0.2960 -0.0302 -0.2464
  838BOLB   C4A20096   2.116  10.348   2.929  0.0737 -0.3691  0.1372
  838BOLB   C1B20097   2.239  11.328   1.738 -0.2148 -0.0324 -0.1955
  838BOLB   C2B20098   2.015  11.520   2.056  0.2707 -0.0374 -0.0855
  838BOLB   C3B20099   2.010  11.901   2.250  0.1694 -0.2562  0.2244
  838BOLB   C4B20100   1.887  12.140   2.579 -0.0964  0.0685 -0.1303
  838BOLB   NC220101   0.701   8.592   2.134  0.0269 -0.0870  0.1477
  838BOLB   PO220102   0.567   8.948   2.407 -0.0439  0.0145  0.1152
  838BOLB   GL320103   0.632   9.181   2.549 -0.0391  0.1073 -0.0520
  838BOLB   GL420104   0.502   9.200   2.964  0.1856 -0.2295  0.3246
  838BOLB   C1C20105   0.597   9.620   2.622 -0.0213  0.1860  0.6081
  838BOLB   C2C20106   0.939   9.816   2.784 -0.0476 -0.1654  0.0301
  838BOLB   C3C20107   1.354  10.077   2.898 -0.3412  0.0220 -0.2159
  838BOLB   C4C20108   1.818  10.166   3.034 -0.5121 -0.4678 -0.0366
  838BOLB   C1D20109   0.756   9.480   3.135 -0.0215 -0.1752 -0.4672
  838BOLB   C2D20110   1.163   9.599   3.183  0.0273  0.1453 -0.0708
  838BOLB   C3D20111   1.494   9.910   3.349 -0.0765 -0.0864  0.0270
  838BOLB   C4D20112   1.606  10.344   3.403  0.0877 -0.2814 -0.1676
  839BOLB   NC120113   6.207  26.131  17.414  0.2537  0.0668  0.0157
  839BOLB   PO120114   6.258  25.757  17.587  0.1546  0.3253  0.1849
  839BOLB   GL120115   6.076  26.077  17.891 -0.2459  0.0819  0.2909
  839BOLB   GL220116   6.189  26.393  17.809  0.0854  0.0850 -0.3126
  839BOLB   C1A20117   5.722  26.372  17.943 -0.2475 -0.2216  0.2197
  839BOLB   C2A20118   5.445  26.519  18.213  0.0301 -0.0871  0.2119
  839BOLB   C3A20119   5.092  26.522  18.398  0.1813 -0.1239 -0.1475
  839BOLB   C4A20120   4.791  26.761  18.605 -0.1088 -0.0180  0.2850
  839BOLB   C1B20121   6.226  26.749  18.010 -0.2199  0.3262 -0.2150
  839BOLB   C2B20122   6.406  26.947  18.443 -0.1563 -0.0786 -0.0571
  839BOLB   C3B20123   6.711  26.848  18.795  0.4498  0.1796 -0.0848
  839BOLB   C4B20124   6.721  26.858  19.187 -0.1708 -0.0846 -0.2320
  839BOLB   NC220125   4.338  28.192  20.975 -0.0659  0.0534 -0.0346
  839BOLB   PO220126   4.238  27.827  20.680 -0.1553  0.1838  0.0484
  839BOLB   GL320127   4.209  27.490  20.343 -0.2589  0.0622  0.1733
  839BOLB   GL420128   4.452  27.278  20.508 -0.3074  0.0011 -0.0549
  839BOLB   C1C20129   4.352  27.303  20.020 -0.0854 -0.0777 -0.0295
  839BOLB   C2C20130   4.448  27.165  19.620 -0.2407 -0.0804 -0.2841
  839BOLB   C3C20131   4.522  27.166  19.233 -0.1230  0.2004  0.1282
  839BOLB   C4C20132   4.763  27.149  18.783 -0.3119  0.2561  0.0103
  839BOLB   C1D20133   4.417  26.877  20.371 -0.0103  0.3723 -0.1018
  839BOLB   C2D20134   4.401  26.814  19.983  0.4402  0.1106  0.1735
  839BOLB   C3D20135   4.410  26.430  19.821  0.1154  0.0911  0.2832
  839BOLB   C4D20136   4.397  26.068  19.633 -0.1301 -0.2189 -0.0506
  840BOLB   NC120137  13.373  24.895   6.145  0.3330 -0.2997  0.0630
  840BOLB   PO120138  13.480  24.716   6.635 -0.1015 -0.2321 -0.0387
  840BOLB   GL120139  13.857  24.798   6.604  0.0436 -0.1122  0.1085
  840BOLB   GL220140  13.900  24.930   6.252 -0.1934 -0.0677  0.0396
  840BOLB   C1A20141  14.222  24.868   6.718  0.0526 -0.0596 -0.0318
  840BOLB   C2A20142  14.518  24.831   6.544  0.5468  0.2275 -0.0412
  840BOLB   C3A20143  14.969  24.956   6.499 -0.0441  0.1454  0.0010
  840BOLB   C4A20144  15.262  25.237   6.421 -0.0225  0.0039 -0.3373
  840BOLB   C1B20145  14.314  25.007   6.062  0.0452  0.2762 -0.0607
  840BOLB   C2B20146  14.316  24.808   5.731 -0.1111  0.2065  0.2988
  840BOLB   C3B20147  14.655  24.783   5.427  0.1931  0.0248  0.1890
  840BOLB   C4B20148  15.033  24.627   5.262  0.2162 -0.1297  0.1356
  840BOLB   NC220149  16.844  27.256   5.987  0.0040  0.0146 -0.1651
  840BOLB   PO220150  17.046  27.016   6.310  0.0986 -0.2745  0.0089
  840BOLB   GL320151  16.795  26.728   6.310 -0.0804 -0.1768  0.1136
  840BOLB   GL420152  16.589  26.787   6.439  0.1801  0.1646  0.1420
  840BOLB   C1C20153  16.687  26.271   6.455  0.1273 -0.1364 -0.0539
  840BOLB   C2C20154  16.255  26.053   6.389 -0.2390  0.4553 -0.0214
  840BOLB   C3C20155  15.835  25.879   6.486 -0.1716 -0.1940  0.1470
  840BOLB   C4C20156  15.403  25.607   6.627 -0.1909  0.0912 -0.1160
  840BOLB   C1D20157  16.249  26.565   6.544  0.4422 -0.0991  0.1000
  840BOLB   C2D20158  16.016  26.299   6.752  0.0703  0.0308 -0.0743
  840BOLB   C3D20159  15.585  26.174   6.799  0.0192 -0.1467 -0.2093
  840BOLB   C4D20160  15.072  25.984   6.696  0.1789 -0.0343  0.3077
  841BOLB   NC120161   3.225  16.509   4.292  0.0223 -0.1264  0.2186
  841BOLB   PO120162   3.501  16.329   4.264  0.0074 -0.1386  0.6806
  841BOLB   GL120163   3.302  16.142   3.906  0.1888 -0.1150 -0.3795
  841BOLB   GL220164   3.366  15.737   3.841 -0.1470  0.1898 -0.0814
  841BOLB   C1A20165   3.274  15.999   3.437 -0.3625  0.0232  0.1552
  841BOLB   C2A20166   2.932  16.007   3.057  0.0572  0.0221  0.2709
  841BOLB   C3A20167   2.962  15.891   2.594 -0.0732 -0.2785 -0.3359
  841BOLB   C4A20168   2.790  15.545   2.263  0.0462  0.0680 -0.0282
  841BOLB   C1B20169   3.208  15.487   3.589  0.2504  0.1695 -0.0654
  841BOLB   C2B20170   2.996  15.139   3.365 -0.0677 -0.1221 -0.0577
  841BOLB   C3B20171   3.116  14.748   3.308 -0.0239 -0.3343  0.3147
  841BOLB   C4B20172   2.981  14.327   3.125  0.0651 -0.0139  0.0739
  841BOLB   NC220173   2.156  15.385  -0.474  0.0746 -0.1013 -0.1367
  841BOLB   PO220174   2.135  15.076  -0.163 -0.0316  0.0015  0.1345
  841BOLB   GL320175   2.080  14.963   0.245  0.0329  0.1940 -0.0783
  841BOLB   GL420176   1.744  14.864   0.341  0.1580 -0.3077  0.3317
  841BOLB   C1C20177   2.230  15.137   0.672  0.2431 -0.3581  0.0156
  841BOLB   C2C20178   2.352  15.197   1.055 -0.2574  0.2349 -0.1464
  841BOLB   C3C20179   2.574  15.375   1.409 -0.4382 -0.0173 -0.2455
  841BOLB   C4C20180   2.562  15.427   1.893  0.0946 -0.1507 -0.0611
  841BOLB   C1D20181   1.863  14.536   0.632  0.0769  0.0594 -0.1184
  841BOLB   C2D20182   2.170  14.359   1.000 -0.0903 -0.3670 -0.0832
  841BOLB   C3D20183   2.291  13.916   1.107  0.1292  0.0292  0.0132
  841BOLB   C4D20184   2.748  13.805   1.111  0.1178 -0.0008 -0.1224
  842BOLB   NC120185  14.298  20.645   5.223  0.0040  0.2914  0.1504
  842BOLB   PO120186  14.546  20.494   5.472  0.1312 -0.2872  0.1491
  842BOLB   GL120187  14.859  20.390   5.309 -0.4368  0.0602 -0.2281
  842BOLB   GL220188  14.779  20.277   5.037 -0.1320  0.0758 -0.1382
  842BOLB   C1A20189  15.309  20.371   5.150 -0.3979 -0.0914  0.0381
  842BOLB   C2A20190  15.785  20.353   5.020  0.3213  0.1703  0.2518
  842BOLB   C3A20191  16.150  20.661   5.045 -0.1058  0.0019 -0.1833
  842BOLB   C4A20192  16.443  20.682   4.842  0.0703  0.0758  0.5418
  842BOLB   C1B20193  15.115  19.989   4.789 -0.0687 -0.1875 -0.2586
  842BOLB   C2B20194  15.527  20.098   4.701 -0.0760 -0.0122  0.0642
  842BOLB   C3B20195  16.059  20.031   4.790  0.0447  0.0292 -0.0165
  842BOLB   C4B20196  16.481  20.171   4.599 -0.0684 -0.2353  0.1779
  842BOLB   NC220197  18.785  20.183   4.967  0.0031 -0.0484 -0.0264
  842BOLB   PO220198  18.647  20.190   5.430 -0.0166  0.0484  0.2186
  842BOLB   GL320199  18.275  19.992   5.595  0.0734 -0.1678  0.1034
  842BOLB   GL420200  18.304  19.755   5.908 -0.1901  0.1399  0.0322
  842BOLB   C1C20201  17.853  20.130   5.369  0.0325  0.5971 -0.0361
  842BOLB   C2C20202  17.584  20.209   4.889  0.0642 -0.2432 -0.2434
  842BOLB   C3C20203  17.233  20.222   4.746 -0.1226 -0.1417  0.0512
  842BOLB   C4C20204  16.822  20.517   4.745  0.4605  0.1127 -0.2453
  842BOLB   C1D20205  17.834  19.813   5.726  0.0626  0.4024 -0.4680
  842BOLB   C2D20206  17.379  19.758   5.549 -0.2442  0.0210  0.2641
  842BOLB   C3D20207  17.032  19.951   5.388 -0.0274 -0.1971 -0.0556
  842BOLB   C4D20208  16.685  20.048   5.573  0.0440 -0.0570  0.0011
  843BOLB   NC120209  37.958  24.960   9.691 -0.3362 -0.1178  0.0176
  843BOLB   PO120210  37.643  24.593   9.446  0.0706 -0.1091  0.0136
  843BOLB   GL120211  37.249  24.578   9.495  0.0355 -0.4271 -0.1336
  843BOLB   GL220212  37.096  24.429   9.331 -0.0059  0.1847 -0.1160
  843BOLB   C1A20213  36.787  24.857   9.434 -0.2577  0.0964  0.1104
  843BOLB   C2A20214  36.497  25.099   9.549  0.1023  0.0238 -0.2175
  843BOLB   C3A20215  36.116  25.473   9.615  0.1149 -0.1890  0.3101
  843BOLB   C4A20216  36.128  26.004   9.636  0.0188  0.0806 -0.1604
  843BOLB   C1B20217  36.657  24.383   9.232 -0.0098 -0.1187 -0.0892
  843BOLB   C2B20218  36.271  24.259   9.352  0.0364 -0.0331 -0.2800
  843BOLB   C3B20219  36.211  24.141   9.795 -0.1708  0.4752  0.2051
  843BOLB   C4B20220  36.349  24.018  10.281 -0.2419  0.1701 -0.0461
  843BOLB   NC220221  34.471  27.944   8.918  0.6018 -0.1036 -0.0982
  843BOLB   PO220222  34.639  27.707   9.066  0.3502  0.3239 -0.0793
  843BOLB   GL320223  34.882  27.431   9.158  0.1808 -0.0140  0.1578
  843BOLB   GL420224  34.790  27.210   9.168 -0.2924 -0.3277  0.0072
  843BOLB   C1C20225  35.347  27.253   9.331 -0.0467 -0.1430  0.1106
  843BOLB   C2C20226  35.682  26.995   9.369  0.2092  0.0699  0.1376
  843BOLB   C3C20227  35.714  26.649   9.578  0.2824  0.0203 -0.0536
  843BOLB   C4C20228  35.741  26.280   9.707 -0.1210  0.3039  0.1482
  843BOLB   C1D20229  35.025  26.827   9.209  0.0511 -0.0983 -0.1326
  843BOLB   C2D20230  35.332  26.606   9.169  0.1367  0.0464  0.1581
  843BOLB   C3D20231  35.507  26.242   9.212 -0.1398  0.0022 -0.0227
  843BOLB   C4D20232  35.715  25.909   9.248 -0.1731  0.2385  0.0426
  844BOLB   NC120233  33.137  20.101  19.891  0.0373  0.1058  0.0753
  844BOLB   PO120234  33.403  19.686  19.860  0.1180 -0.0164 -0.0834
  844BOLB   GL120235  33.604  19.578  19.450 -0.1914 -0.3850  0.0038
  844BOLB   GL220236  33.626  19.198  19.336  0.2194  0.1898  0.3617
  844BOLB   C1A20237  33.668  19.609  18.990 -0.0075 -0.3984 -0.2705
  844BOLB   C2A20238  33.968  19.828  18.874 -0.0712 -0.5520  0.2180
  844BOLB   C3A20239  34.234  20.154  18.626  0.0046  0.1298 -0.2632
  844BOLB   C4A20240  34.200  20.579  18.702 -0.0192  0.2405 -0.0458
  844BOLB   C1B20241  33.876  18.919  19.543 -0.0139 -0.3257 -0.2427
  844BOLB   C2B20242  33.786  18.514  19.618 -0.3374 -0.2996  0.5873
  844BOLB   C3B20243  33.578  18.155  19.719  0.0093 -0.0151  0.5753
  844BOLB   C4B20244  33.135  18.059  19.776  0.0126 -0.0080 -0.0396
  844BOLB   NC220245  34.379  22.793  18.745  0.0821  0.5473 -0.1646
  844BOLB   PO220246  34.576  22.736  18.342  0.0819 -0.1671  0.0583
  844BOLB   GL320247  34.514  22.506  18.006  0.2128  0.0694 -0.0790
  844BOLB   GL420248  34.662  22.746  17.767 -0.1863  0.0251 -0.0082
  844BOLB   C1C20249  34.456  22.047  17.954  0.2537  0.1735  0.0426
  844BOLB   C2C20250  34.578  21.770  18.121 -0.2254  0.2731  0.1134
  844BOLB   C3C20251  34.636  21.368  18.407  0.1750 -0.0210 -0.0700
  844BOLB   C4C20252  34.410  20.991  18.581 -0.0704 -0.1685 -0.1029
  844BOLB   C1D20253  34.578  22.655  17.313  0.1526 -0.1003 -0.0974
  844BOLB   C2D20254  34.212  22.685  17.007  0.2120  0.0418 -0.1103
  844BOLB   C3D20255  33.848  22.531  16.781  0.2062  0.2631 -0.0278
  844BOLB   C4D20256  33.582  22.506  16.467  0.2137 -0.0166  0.1261
  845BOLB   NC120257   8.854  23.679   4.018  0.2222 -0.0223 -0.0759
  845BOLB   PO120258   9.064  23.773   3.598  0.0813 -0.1448 -0.1138
  845BOLB   GL120259   8.969  23.879   3.124 -0.1221 -0.0380  0.1313
  845BOLB   GL220260   8.788  24.124   3.015 -0.0111  0.2056  0.1426
  845BOLB   C1A20261   9.273  23.814   2.713  0.1958  0.1771  0.0830
  845BOLB   C2A20262   9.406  23.786   2.321  0.1701  0.0189 -0.1080
  845BOLB   C3A20263   9.519  23.944   1.943  0.1172  0.0019 -0.0371
  845BOLB   C4A20264   9.902  24.065   1.545 -0.0504 -0.2135 -0.1213
  845BOLB   C1B20265   8.374  24.278   2.820 -0.0117  0.2100 -0.1659
  845BOLB   C2B20266   8.345  24.325   2.385  0.0483  0.1546 -0.0119
  845BOLB   C3B20267   8.454  24.121   2.102 -0.0755  0.2571  0.1047
  845BOLB   C4B20268   8.256  24.336   1.660  0.2030 -0.0314  0.2023
  845BOLB   NC220269  10.570  24.931   0.025  0.2945  0.1087  0.0818
  845BOLB   PO220270  10.392  24.605  -0.056  0.4028 -0.2115  0.1576
  845BOLB   GL320271  10.279  24.626   0.313  0.2587 -0.2266 -0.0928
  845BOLB   GL420272  10.470  24.559   0.582  0.3024  0.3065  0.1480
  845BOLB   C1C20273   9.897  24.481   0.489 -0.0193 -0.4700  0.1352
  845BOLB   C2C20274  10.054  23.974   0.556 -0.0732 -0.0594  0.2306
  845BOLB   C3C20275  10.146  23.763   0.819 -0.1465 -0.0917  0.0888
  845BOLB   C4C20276  10.089  23.804   1.297 -0.1829  0.0321 -0.0099
  845BOLB   C1D20277  10.407  24.230   0.817 -0.2462 -0.0560 -0.1124
  845BOLB   C2D20278  10.619  23.832   0.977  0.2062 -0.1594  0.1606
  845BOLB   C3D20279  10.452  23.500   1.320  0.0592 -0.2034  0.1951
  845BOLB   C4D20280  10.415  23.181   1.681  0.0613 -0.1684 -0.2140
  846BOLB   NC120281   6.152  24.616  18.205  0.2966  0.0655 -0.2503
  846BOLB   PO120282   5.718  24.617  17.933 -0.0767  0.0311  0.0347
  846BOLB   GL120283   5.703  24.747  18.456 -0.2697 -0.0198  0.2545
  846BOLB   GL220284   5.384  24.676  18.588  0.1377 -0.1464  0.2013
  846BOLB   C1A20285   5.755  24.867  18.887  0.0167 -0.1401 -0.2183
  846BOLB   C2A20286   5.685  25.082  19.240  0.5259 -0.2477 -0.0864
  846BOLB   C3A20287   5.558  25.394  19.588 -0.2533  0.2289 -0.0585
  846BOLB   C4A20288   5.826  25.411  19.946 -0.1067  0.2234  0.1246
  846BOLB   C1B20289   5.236  24.848  19.053 -0.1138  0.1853 -0.0560
  846BOLB   C2B20290   5.264  24.941  19.483 -0.2962 -0.2789 -0.1734
  846BOLB   C3B20291   5.526  24.865  19.807  0.1794  0.0479  0.3763
  846BOLB   C4B20292   5.794  24.786  20.142 -0.1407 -0.0077  0.3165
  846BOLB   NC220293   7.132  25.015  22.524  0.3751  0.0093  0.3045
  846BOLB   PO220294   6.820  24.947  22.145 -0.0700  0.0901 -0.2112
  846BOLB   GL320295   6.810  25.242  21.769 -0.0906  0.3539 -0.0830
  846BOLB   GL420296   6.976  25.237  21.524  0.0735  0.0864 -0.0604
  846BOLB   C1C20297   6.542  25.503  21.394 -0.2321 -0.1886  0.1122
  846BOLB   C2C20298   6.316  25.617  21.032 -0.0475 -0.0862  0.2378
  846BOLB   C3C20299   6.016  25.425  20.779  0.1818  0.1983 -0.0714
  846BOLB   C4C20300   5.811  25.349  20.352 -0.4275 -0.0523 -0.2179
  846BOLB   C1D20301   6.781  25.065  21.142  0.1704 -0.0124  0.3922
  846BOLB   C2D20302   6.746  24.892  20.725 -0.0906 -0.1565  0.1488
  846BOLB   C3D20303   6.925  24.747  20.239  0.0319  0.0733  0.3074
  846BOLB   C4D20304   7.043  24.802  19.791 -0.2488 -0.1511 -0.4341
  847BOLB   NC120305   9.127  28.328  12.828 -0.2568  0.0594 -0.1838
  847BOLB   PO120306   9.514  28.205  12.742 -0.1808  0.0832 -0.0840
  847BOLB   GL120307   9.591  28.687  12.708 -0.0401  0.2242  0.1460
  847BOLB   GL220308   9.262  28.858  12.755 -0.1307 -0.4050  0.2317
  847BOLB   C1A20309   9.847  28.974  12.821  0.1703  0.0419 -0.2858
  847BOLB   C2A20310   9.856  29.366  12.647  0.1978  0.0173 -0.1506
  847BOLB   C3A20311  10.057  29.734  12.607 -0.0485  0.2991  0.0204
  847BOLB   C4A20312  10.113  30.195  12.680  0.3193  0.0350  0.0373
  847BOLB   C1B20313   9.197  29.278  12.699 -0.1043  0.1265  0.1284
  847BOLB   C2B20314   9.487  29.597  12.427  0.0786  0.0161 -0.2650
  847BOLB   C3B20315   9.795  29.923  12.228  0.2723  0.1474  0.0963
  847BOLB   C4B20316  10.180  30.048  12.131  0.1966 -0.0112  0.0642
  847BOLB   NC220317  11.479  32.739  12.380  0.0264 -0.0591  0.1925
  847BOLB   PO220318  11.307  32.453  12.728  0.0412  0.3223  0.1813
  847BOLB   GL320319  11.102  32.040  12.516  0.0536 -0.1911 -0.2119
  847BOLB   GL420320  10.779  31.900  12.709  0.2753  0.0056  0.1498
  847BOLB   C1C20321  11.016  31.592  12.447 -0.0363  0.0227 -0.2031
  847BOLB   C2C20322  10.763  31.309  12.663 -0.0335 -0.0152 -0.2721
  847BOLB   C3C20323  10.617  30.909  12.679  0.0410 -0.3441  0.1879
  847BOLB   C4C20324  10.390  30.508  12.609  0.2480  0.0761 -0.0836
  847BOLB   C1D20325  10.482  31.732  13.017 -0.2126 -0.1614  0.3371
  847BOLB   C2D20326  10.000  31.767  13.145  0.1013 -0.2878 -0.1023
  847BOLB   C3D20327   9.639  31.578  13.268 -0.3120  0.2940 -0.0139
  847BOLB   C4D20328   9.402  31.554  13.740 -0.0826 -0.0294  0.1964
  848BOLB   NC120329   1.475  24.083   4.604  0.1564  0.1061  0.2736
  848BOLB   PO120330   1.666  24.443   4.658  0.1672 -0.1123 -0.3693
  848BOLB   GL120331   1.364  24.527   4.396  0.0544  0.1535 -0.0654
  848BOLB   GL220332   1.546  24.798   4.083 -0.4020 -0.1980  0.1619
  848BOLB   C1A20333   1.151  24.988   4.258 -0.1897 -0.0477 -0.4234
  848BOLB   C2A20334   1.245  25.424   4.165  0.0730  0.0542 -0.4727
  848BOLB   C3A20335   1.226  25.684   3.853 -0.0577 -0.1932  0.2824
  848BOLB   C4A20336   1.004  26.051   3.568  0.1122  0.4745 -0.1591
  848BOLB   C1B20337   1.109  24.610   3.895  0.1734  0.1682  0.2375
  848BOLB   C2B20338   0.811  24.519   3.638 -0.0619 -0.0690 -0.2391
  848BOLB   C3B20339   0.571  24.705   3.432 -0.2548 -0.0164 -0.0373
  848BOLB   C4B20340   0.222  25.021   3.234  0.0824  0.2029  0.1172
  848BOLB   NC220341   0.089  27.957   2.490 -0.2784  0.3469 -0.0126
  848BOLB   PO220342   0.276  28.164   2.931  0.0173  0.0173  0.3703
  848BOLB   GL320343   0.625  27.803   2.689  0.3135  0.0102  0.0562
  848BOLB   GL420344   0.934  27.767   2.978  0.2587 -0.0817  0.0439
  848BOLB   C1C20345   0.783  27.354   2.790  0.1485 -0.1435  0.0740
  848BOLB   C2C20346   0.545  26.977   2.859 -0.1129 -0.0018  0.0207
  848BOLB   C3C20347   0.653  26.481   2.980  0.0220 -0.1177 -0.1663
  848BOLB   C4C20348   0.732  26.187   3.325 -0.0289 -0.0820  0.1985
  848BOLB   C1D20349   0.976  27.428   3.404  0.0284  0.2292 -0.1266
  848BOLB   C2D20350   1.137  27.026   3.785 -0.2102 -0.1451  0.2290
  848BOLB   C3D20351   1.332  26.920   4.175 -0.0109  0.1443  0.0818
  848BOLB   C4D20352   1.367  26.569   4.540 -0.1077  0.0939 -0.0090
  849BOLB   NC120353  11.113  14.943   6.830 -0.0892 -0.0589 -0.1494
  849BOLB   PO120354  11.569  15.138   6.851  0.1431 -0.2684  0.0299
  849BOLB   GL120355  11.720  14.785   6.674  0.2651  0.0994  0.1266
  849BOLB   GL220356  11.371  14.635   6.579  0.3344  0.1785 -0.0165
  849BOLB   C1A20357  11.921  14.405   6.491 -0.1280  0.0137 -0.2956
  849BOLB   C2A20358  12.205  14.016   6.600  0.2547  0.0445  0.2892
  849BOLB   C3A20359  12.074  13.572   6.728 -0.2876 -0.2578  0.3552
  849BOLB   C4A20360  12.014  13.167   6.564 -0.0404  0.0288 -0.2615
  849BOLB   C1B20361  11.435  14.494   6.104 -0.1546 -0.3070 -0.0893
  849BOLB   C2B20362  11.255  14.143   5.932 -0.2113 -0.3306  0.3819
  849BOLB   C3B20363  11.417  13.755   5.876  0.1913 -0.1838 -0.1211
  849BOLB   C4B20364  11.479  13.449   5.739  0.1772 -0.2558 -0.0297
  849BOLB   NC220365  12.580  11.095   5.243 -0.0620 -0.1078 -0.4471
  849BOLB   PO220366  12.336  11.037   5.581  0.1269  0.1002 -0.2129
  849BOLB   GL320367  12.266  11.451   5.557  0.3161  0.1145 -0.1128
  849BOLB   GL420368  11.985  11.469   5.633 -0.0017  0.0445 -0.2932
  849BOLB   C1C20369  12.332  11.734   5.871  0.2150 -0.3197  0.1551
  849BOLB   C2C20370  12.284  11.977   6.161  0.1303 -0.0998  0.1444
  849BOLB   C3C20371  12.201  12.246   6.560  0.1025 -0.3101  0.0278
  849BOLB   C4C20372  12.041  12.711   6.593  0.0232  0.2097  0.4222
  849BOLB   C1D20373  11.788  11.828   5.664 -0.0600 -0.0414  0.1649
  849BOLB   C2D20374  11.939  12.288   5.797 -0.1905  0.1481  0.0475
  849BOLB   C3D20375  12.243  12.483   6.139 -0.1177  0.2493  0.2224
  849BOLB   C4D20376  12.735  12.386   6.120  0.0109 -0.3054 -0.0193
  850BOLB   NC120377  10.818  16.715  13.469  0.0422 -0.0998 -0.1681
  850BOLB   PO120378  10.757  16.275  13.304  0.1020  0.0076  0.0073
  850BOLB   GL120379  11.210  15.980  13.315  0.1940  0.1277 -0.3122
  850BOLB   GL220380  11.202  15.769  13.080 -0.0666  0.1533  0.2538
  850BOLB   C1A20381  11.547  15.788  13.546  0.0954  0.0386 -0.2081
  850BOLB   C2A20382  11.722  15.489  13.799 -0.2542 -0.0713 -0.3767
  850BOLB   C3A20383  11.861  15.199  13.978 -0.0382  0.0264  0.2119
  850BOLB   C4A20384  12.080  14.833  14.213 -0.0664  0.1645  0.0050
  850BOLB   C1B20385  11.688  15.570  13.048 -0.3155 -0.0200 -0.0618
  850BOLB   C2B20386  11.991  15.311  12.992 -0.1224  0.2975 -0.0548
  850BOLB   C3B20387  12.117  14.865  13.046 -0.0796  0.0121 -0.0515
  850BOLB   C4B20388  12.373  14.555  13.014  0.1885 -0.2667  0.1221
  850BOLB   NC220389  12.728  12.554  14.950  0.1643 -0.1361  0.0752
  850BOLB   PO220390  12.998  12.789  15.265 -0.0117  0.3647 -0.0287
  850BOLB   GL320391  12.972  13.097  14.971 -0.0203 -0.1095  0.0938
  850BOLB   GL420392  12.852  13.116  14.608 -0.2479 -0.1632 -0.2299
  850BOLB   C1C20393  12.837  13.538  15.111  0.1687 -0.3296 -0.1597
  850BOLB   C2C20394  12.571  13.774  14.773 -0.0772 -0.1292 -0.3511
  850BOLB   C3C20395  12.288  14.151  14.561  0.1687 -0.0982  0.1318
  850BOLB   C4C20396  12.214  14.455  14.278  0.4645 -0.2213  0.0196
  850BOLB   C1D20397  12.530  13.206  14.769  0.0347  0.4691  0.1336
  850BOLB   C2D20398  12.213  13.497  14.746 -0.0425 -0.2164  0.1397
  850BOLB   C3D20399  11.826  13.738  14.562 -0.3958  0.1229 -0.1424
  850BOLB   C4D20400  11.611  13.859  14.202 -0.1982 -0.1433 -0.1701
  851BOLB   NC120401   0.776  26.469   9.480  0.2416  0.0763 -0.4946
  851BOLB   PO120402   1.113  26.596   9.733 -0.1721  0.2030  0.0948
  851BOLB   GL120403   0.948  26.977   9.635  0.3589 -0.2364 -0.4054
  851BOLB   GL220404   0.684  26.974   9.344  0.0817  0.3632  0.1314
  851BOLB   C1A20405   0.847  27.416   9.396 -0.0439 -0.0778  0.0723
  851BOLB   C2A20406   0.668  27.686   9.197  0.0632  0.3335 -0.1282
  851BOLB   C3A20407   0.602  28.031   9.146 -0.0529  0.1328 -0.2134
  851BOLB   C4A20408   0.574  28.182   8.685  0.0528 -0.4758 -0.0337
  851BOLB   C1B20409   0.325  27.071   9.126  0.0027 -0.3842  0.0272
  851BOLB   C2B20410   0.098  27.422   9.102  0.3057 -0.0683  0.0358
  851BOLB   C3B20411  -0.254  27.591   8.939 -0.1806  0.1574 -0.0954
  851BOLB   C4B20412  -0.382  28.025   8.889 -0.2477  0.1793 -0.0402
  851BOLB   NC220413  -0.485  29.703   6.763  0.0984 -0.1186  0.0064
  851BOLB   PO220414  -0.543  29.651   7.205  0.1373  0.3926  0.0328
  851BOLB   GL320415  -0.433  29.272   7.342  0.4381  0.0528 -0.1403
  851BOLB   GL420416  -0.799  29.058   7.406 -0.0128  0.3118 -0.2331
  851BOLB   C1C20417  -0.047  29.050   7.447  0.0360  0.1095 -0.2408
  851BOLB   C2C20418   0.066  28.742   7.749 -0.4749  0.0403 -0.3784
  851BOLB   C3C20419   0.189  28.318   7.852  0.0230  0.1309  0.0230
  851BOLB   C4C20420   0.353  28.124   8.272 -0.0447 -0.2791  0.0127
  851BOLB   C1D20421  -0.462  28.924   7.746  0.0704 -0.1253  0.1012
  851BOLB   C2D20422  -0.315  28.865   8.094  0.2421 -0.1991 -0.2315
  851BOLB   C3D20423   0.092  28.714   8.301  0.0209  0.1984  0.1168
  851BOLB   C4D20424   0.479  28.597   8.329 -0.1889  0.1389  0.0009
  852BOLB   NC120425  10.561  18.554   3.164  0.0198 -0.0437  0.0773
  852BOLB   PO120426  10.234  18.718   2.954  0.0241 -0.2064  0.3602
  852BOLB   GL120427  10.387  18.591   2.573  0.1891 -0.1277 -0.1176
  852BOLB   GL220428  10.687  18.584   2.547 -0.0810  0.0064 -0.1169
  852BOLB   C1A20429  10.449  18.621   2.116  0.0209  0.0258  0.1042
  852BOLB   C2A20430  10.261  18.452   1.629 -0.0619 -0.2154 -0.2808
  852BOLB   C3A20431  10.380  18.265   1.311 -0.2596 -0.2385  0.1535
  852BOLB   C4A20432  10.809  18.111   1.067  0.0617  0.0281 -0.3175
  852BOLB   C1B20433  10.911  18.721   2.189  0.1336  0.0498  0.0791
  852BOLB   C2B20434  11.225  18.811   2.009 -0.0581  0.0642 -0.1571
  852BOLB   C3B20435  11.491  18.476   1.806 -0.1339 -0.0671  0.0663
  852BOLB   C4B20436  11.604  17.951   1.692 -0.4426 -0.0456 -0.0893
  852BOLB   NC220437  11.708  18.192  -1.124  0.1704 -0.1386 -0.0005
  852BOLB   PO220438  11.343  18.371  -0.849  0.1089  0.1208  0.3979
  852BOLB   GL320439  11.261  18.552  -0.537  0.4263  0.0074 -0.4170
  852BOLB   GL420440  11.132  18.282  -0.302 -0.4378 -0.2100  0.2476
  852BOLB   C1C20441  11.329  18.762  -0.117  0.1165 -0.1684 -0.0623
  852BOLB   C2C20442  11.137  18.793   0.312  0.0446 -0.0366 -0.0602
  852BOLB   C3C20443  11.264  18.718   0.770  0.3444  0.0006  0.2411
  852BOLB   C4C20444  10.991  18.548   1.057  0.1165 -0.2162 -0.3611
  852BOLB   C1D20445  11.139  18.282   0.059 -0.3580  0.0897 -0.4815
  852BOLB   C2D20446  11.073  18.348   0.429  0.2344  0.1870  0.0595
  852BOLB   C3D20447  10.865  18.285   0.600  0.0879  0.0923 -0.3246
  852BOLB   C4D20448  10.443  18.451   0.770  0.0549 -0.0882  0.2101
  853BOLB   NC120449  10.060  22.377   2.668 -0.0981  0.0411 -0.0294
  853BOLB   PO120450   9.880  22.750   2.803 -0.1874  0.0392  0.0965
  853BOLB   GL120451  10.183  22.772   2.419 -0.0049  0.1131  0.1132
  853BOLB   GL220452  10.022  23.103   2.438  0.1064  0.3499 -0.1340
  853BOLB   C1A20453  10.230  22.736   1.927 -0.1773  0.0339 -0.1400
  853BOLB   C2A20454  10.501  22.679   1.575  0.3144  0.1793 -0.3428
  853BOLB   C3A20455  10.820  22.608   1.310 -0.5260 -0.1859 -0.0457
  853BOLB   C4A20456  11.040  22.459   0.974 -0.1836  0.0092 -0.0089
  853BOLB   C1B20457  10.316  23.425   2.170  0.0561  0.1686  0.2600
  853BOLB   C2B20458  10.404  23.754   1.863  0.0395  0.2486  0.1184
  853BOLB   C3B20459  10.825  23.790   1.565 -0.1439 -0.0695 -0.0970
  853BOLB   C4B20460  11.043  23.707   1.247 -0.0385  0.0534 -0.0749
  853BOLB   NC220461  12.926  21.732  -0.415  0.0256 -0.1571  0.3793
  853BOLB   PO220462  12.814  22.079  -0.571  0.2140  0.2476  0.0942
  853BOLB   GL320463  12.402  21.946  -0.429 -0.1589  0.1891 -0.2269
  853BOLB   GL420464  12.474  21.682  -0.241 -0.1277  0.2769  0.0426
  853BOLB   C1C20465  12.057  22.184  -0.269  0.2282 -0.0328  0.2653
  853BOLB   C2C20466  11.704  22.135  -0.003  0.2774  0.2607 -0.0392
  853BOLB   C3C20467  11.409  22.221   0.309  0.1881  0.3521  0.1026
  853BOLB   C4C20468  11.325  22.290   0.754 -0.1881  0.1412  0.0055
  853BOLB   C1D20469  12.774  21.913   0.145  0.0293  0.0471  0.0425
  853BOLB   C2D20470  12.778  22.106   0.509  0.1028 -0.2598 -0.1594
  853BOLB   C3D20471  13.150  22.109   0.681  0.0530 -0.0171  0.0076
  853BOLB   C4D20472  13.360  22.404   0.851 -0.0161  0.2012 -0.0123
  854BOLB   NC120473   2.352  27.792  10.975  0.1193 -0.0175 -0.0442
  854BOLB   PO120474   2.142  28.078  10.631  0.1532  0.0626 -0.2193
  854BOLB   GL120475   2.059  28.381  10.371 -0.0853 -0.0710 -0.3741
  854BOLB   GL220476   2.162  28.383  10.052 -0.0288 -0.0593 -0.2322
  854BOLB   C1A20477   1.806  28.721  10.469  0.0427 -0.1110 -0.0591
  854BOLB   C2A20478   1.496  28.979  10.483 -0.2308  0.1575 -0.1035
  854BOLB   C3A20479   1.346  29.232  10.278 -0.1403  0.4474  0.1819
  854BOLB   C4A20480   1.407  29.500   9.931  0.3511  0.0628  0.0368
  854BOLB   C1B20481   1.900  28.724   9.935 -0.1774  0.0435 -0.2649
  854BOLB   C2B20482   1.899  29.097  10.090 -0.2315 -0.3934  0.3733
  854BOLB   C3B20483   1.833  29.434   9.657  0.2705  0.1785 -0.1372
  854BOLB   C4B20484   2.097  29.376   9.373 -0.2375 -0.0065  0.1195
  854BOLB   NC220485  -0.081  31.498   9.357 -0.1456  0.0062  0.2545
  854BOLB   PO220486   0.244  31.247   9.174  0.0497 -0.2126  0.0389
  854BOLB   GL320487   0.465  30.842   9.210 -0.2115  0.0498 -0.0180
  854BOLB   GL420488   0.608  30.896   8.923 -0.0127  0.1800  0.2774
  854BOLB   C1C20489   0.805  30.503   9.300 -0.3853  0.4452 -0.0015
  854BOLB   C2C20490   1.192  30.504   9.461 -0.1679 -0.0945 -0.1464
  854BOLB   C3C20491   1.469  30.246   9.696  0.1395 -0.0158 -0.0601
  854BOLB   C4C20492   1.406  29.854   9.736  0.0535 -0.3314  0.0606
  854BOLB   C1D20493   0.999  30.471   8.837  0.0698  0.0964  0.0776
  854BOLB   C2D20494   1.195  30.183   8.557 -0.0047 -0.1198 -0.2657
  854BOLB   C3D20495   1.330  29.728   8.418  0.1363 -0.0545 -0.2552
  854BOLB   C4D20496   1.278  29.393   8.097  0.0361  0.0268  0.0197
  855BOLB   NC120497   3.266  26.955   6.715  0.1005  0.1313 -0.1317
  855BOLB   PO120498   3.020  26.977   7.060 -0.0718  0.0372 -0.2068
  855BOLB   GL120499   2.721  27.401   7.002  0.1928 -0.2984  0.0882
  855BOLB   GL220500   2.608  27.579   7.345 -0.0025  0.0655 -0.0448
  855BOLB   C1A20501   2.649  27.639   6.682  0.0562  0.0567 -0.0920
  855BOLB   C2A20502   2.643  28.106   6.560  0.0499 -0.3309 -0.1686
  855BOLB   C3A20503   2.775  28.561   6.567  0.1619 -0.0785 -0.0779
  855BOLB   C4A20504   2.877  28.898   6.436 -0.0088 -0.0566 -0.1297
  855BOLB   C1B20505   2.445  28.014   7.126 -0.1071 -0.3285  0.2820
  855BOLB   C2B20506   2.218  28.406   6.914  0.0429  0.0498 -0.0890
  855BOLB   C3B20507   2.076  28.810   6.853  0.1477 -0.1000  0.2566
  855BOLB   C4B20508   2.116  29.190   7.065 -0.2319  0.3093  0.3169
  855BOLB   NC220509   2.298  31.281   5.620  0.3613 -0.4001 -0.0475
  855BOLB   PO220510   1.909  30.921   5.472  0.2125 -0.0809  0.0567
  855BOLB   GL320511   2.146  30.660   5.733  0.1379  0.0834 -0.1740
  855BOLB   GL420512   2.078  30.421   5.494 -0.2232 -0.0877 -0.1033
  855BOLB   C1C20513   2.210  30.366   5.970  0.0131  0.0634  0.0881
  855BOLB   C2C20514   2.447  30.027   6.141  0.0158 -0.4028  0.4713
  855BOLB   C3C20515   2.542  29.634   6.329  0.2235 -0.1677 -0.0003
  855BOLB   C4C20516   2.675  29.301   6.180 -0.1014 -0.0799 -0.2320
  855BOLB   C1D20517   2.421  30.108   5.566 -0.1653 -0.3370 -0.1800
  855BOLB   C2D20518   2.510  29.728   5.786  0.0478 -0.1240 -0.1224
  855BOLB   C3D20519   2.704  29.431   5.656  0.0263 -0.2153 -0.0050
  855BOLB   C4D20520   2.854  29.055   5.777  0.0154 -0.2898  0.2770
  856BOLB   NC120521   4.398  21.533   2.662  0.3590 -0.1072  0.1914
  856BOLB   PO120522   4.093  21.125   2.560 -0.2707 -0.3784  0.3762
  856BOLB   GL120523   3.857  20.874   2.251  0.0569  0.0344  0.2119
  856BOLB   GL220524   3.648  20.570   2.277 -0.1526  0.0523  0.0751
  856BOLB   C1A20525   3.852  20.714   1.843  0.6964 -0.2438 -0.1540
  856BOLB   C2A20526   3.580  20.725   1.520  0.2341  0.4029  0.2048
  856BOLB   C3A20527   3.615  20.674   1.100  0.0703  0.2402 -0.3144
  856BOLB   C4A20528   3.823  20.354   0.790 -0.1312  0.0462  0.4809
  856BOLB   C1B20529   3.350  20.443   2.024  0.0534  0.4186  0.1310
  856BOLB   C2B20530   3.002  20.302   2.128  0.1946  0.2068 -0.2006
  856BOLB   C3B20531   2.522  20.136   1.921  0.0561 -0.0631 -0.0133
  856BOLB   C4B20532   2.148  20.164   2.021  0.0542 -0.0519 -0.0956
  856BOLB   NC220533   2.679  19.992  -1.608  0.1728 -0.0942  0.0537
  856BOLB   PO220534   3.132  19.885  -1.538  0.2283  0.0157 -0.2982
  856BOLB   GL320535   3.240  19.668  -1.088  0.0105  0.0471 -0.0891
  856BOLB   GL420536   3.068  19.378  -0.886 -0.5287 -0.0009  0.1126
  856BOLB   C1C20537   3.372  19.807  -0.677  0.4047 -0.5965  0.1668
  856BOLB   C2C20538   3.291  19.962  -0.359  0.1694  0.0564 -0.2262
  856BOLB   C3C20539   3.424  19.880   0.047  0.0159 -0.0970 -0.1381
  856BOLB   C4C20540   3.698  20.104   0.404  0.2448  0.2860 -0.0441
  856BOLB   C1D20541   3.103  19.479  -0.446 -0.3713 -0.2121 -0.1100
  856BOLB   C2D20542   3.028  19.470   0.036  0.0522  0.2190  0.2340
  856BOLB   C3D20543   2.975  19.386   0.420 -0.1068  0.1056  0.0510
  856BOLB   C4D20544   3.115  19.169   0.792 -0.3689  0.2372  0.2011
  857BOLB   NC120545  12.785  21.674  15.770 -0.1679  0.2104  0.0821
  857BOLB   PO120546  13.070  21.947  15.890  0.1025  0.0537  0.0872
  857BOLB   GL120547  13.472  21.923  15.987  0.0675 -0.3705  0.0070
  857BOLB   GL220548  13.494  22.222  16.177 -0.1187  0.1857  0.0458
  857BOLB   C1A20549  13.912  21.919  15.897 -0.1121  0.3732  0.2955
  857BOLB   C2A20550  14.207  21.659  15.920  0.1026  0.0765  0.0548
  857BOLB   C3A20551  14.433  21.273  16.095  0.1509  0.2117  0.0999
  857BOLB   C4A20552  14.853  21.169  16.309  0.0362  0.3521  0.0251
  857BOLB   C1B20553  13.710  21.969  16.602  0.1986  0.3958  0.1252
  857BOLB   C2B20554  13.792  22.082  17.032 -0.2839  0.1874 -0.3034
  857BOLB   C3B20555  13.909  22.039  17.520 -0.1742 -0.0058  0.2441
  857BOLB   C4B20556  14.262  22.237  17.837  0.2135 -0.0008  0.1654
  857BOLB   NC220557  16.658  20.401  17.607  0.1678  0.2447  0.1781
  857BOLB   PO220558  16.802  20.739  17.488 -0.0586 -0.0434  0.0784
  857BOLB   GL320559  16.563  21.055  17.314  0.2607  0.0073 -0.3028
  857BOLB   GL420560  16.636  21.131  17.032  0.2920 -0.1450 -0.1546
  857BOLB   C1C20561  16.157  21.145  17.286 -0.0075 -0.1045  0.1298
  857BOLB   C2C20562  15.827  20.999  16.972  0.0606 -0.1418  0.1692
  857BOLB   C3C20563  15.545  21.081  16.694 -0.0326  0.1560 -0.2191
  857BOLB   C4C20564  15.218  20.948  16.443  0.0636  0.1654 -0.2495
  857BOLB   C1D20565  16.346  21.222  16.759  0.3169 -0.0577 -0.1615
  857BOLB   C2D20566  16.029  21.414  16.664 -0.1177 -0.0364 -0.1279
  857BOLB   C3D20567  15.730  21.807  16.479 -0.1125  0.1360 -0.1880
  857BOLB   C4D20568  15.239  21.804  16.232  0.1345 -0.1460 -0.2803
  858BOLB   NC120569  10.213  28.463   9.697  0.2171  0.2575  0.2144
  858BOLB   PO120570  10.404  28.375  10.106 -0.1688  0.0597 -0.0046
  858BOLB   GL120571  10.455  28.704  10.410  0.2998  0.3471  0.2190
  858BOLB   GL220572  10.502  28.865   9.981  0.0962 -0.0017 -0.1673
  858BOLB   C1A20573  10.357  29.185  10.348  0.3695 -0.0502  0.3573
  858BOLB   C2A20574  10.388  29.674  10.349 -0.0725  0.3534  0.1979
  858BOLB   C3A20575  10.598  30.017  10.220 -0.4755  0.2268 -0.1660
  858BOLB   C4A20576  10.763  30.456  10.285  0.4405 -0.0328 -0.1717
  858BOLB   C1B20577  10.723  29.173   9.899 -0.2193 -0.0644 -0.1658
  858BOLB   C2B20578  10.672  29.525   9.802 -0.2399 -0.0854 -0.3085
  858BOLB   C3B20579  10.818  29.864   9.675 -0.1036  0.1223 -0.0524
  858BOLB   C4B20580  10.882  30.223   9.788  0.1263 -0.1909  0.1348
  858BOLB   NC220581  13.392  31.062   9.836 -0.2448  0.2147 -0.0410
  858BOLB   PO220582  13.163  31.412  10.024  0.3397  0.1705  0.0650
  858BOLB   GL320583  12.696  31.262  10.055 -0.2389  0.0993  0.0413
  858BOLB   GL420584  12.514  31.426  10.326 -0.1380  0.1625 -0.0768
  858BOLB   C1C20585  12.272  31.139   9.998 -0.1177  0.2054 -0.3851
  858BOLB   C2C20586  11.972  30.943  10.128 -0.0143 -0.1696 -0.1577
  858BOLB   C3C20587  11.531  30.763  10.280  0.2493 -0.1761  0.0671
  858BOLB   C4C20588  11.191  30.622  10.160  0.0794  0.0642 -0.2016
  858BOLB   C1D20589  12.275  31.183  10.527  0.2458 -0.0007 -0.1166
  858BOLB   C2D20590  12.043  30.917  10.640  0.1501  0.1047 -0.0274
  858BOLB   C3D20591  11.871  30.568  10.635  0.1044  0.0130 -0.2083
  858BOLB   C4D20592  11.830  30.100  10.617 -0.0171 -0.3342  0.1598
  859BOLB   NC120593   5.516  28.587   8.928  0.1198 -0.4438 -0.2329
  859BOLB   PO120594   5.863  28.833   9.098 -0.1737  0.1735  0.0185
  859BOLB   GL120595   5.812  29.182   8.789  0.2428 -0.0334 -0.1942
  859BOLB   GL220596   5.465  29.432   8.829 -0.0194 -0.1181  0.5097
  859BOLB   C1A20597   5.812  29.621   8.476  0.1833 -0.0616 -0.1003
  859BOLB   C2A20598   5.881  30.035   8.388 -0.1303 -0.0846 -0.2570
  859BOLB   C3A20599   5.703  30.389   8.091  0.2087 -0.0277 -0.1048
  859BOLB   C4A20600   5.697  30.746   7.925  0.0694  0.2126 -0.2932
  859BOLB   C1B20601   5.350  29.922   8.855 -0.1452 -0.1442  0.3324
  859BOLB   C2B20602   5.375  30.331   8.686  0.0243 -0.1344 -0.2500
  859BOLB   C3B20603   5.261  30.517   8.284 -0.0884  0.1090  0.0678
  859BOLB   C4B20604   4.925  30.864   8.280 -0.3541 -0.3085  0.2433
  859BOLB   NC220605   5.436  32.939   6.846 -0.3919  0.0552  0.0038
  859BOLB   PO220606   5.163  32.547   6.892  0.1434 -0.2670 -0.0654
  859BOLB   GL320607   5.435  32.309   6.852  0.0631  0.2988  0.0951
  859BOLB   GL420608   5.642  32.175   6.668 -0.1203  0.1147 -0.0908
  859BOLB   C1C20609   5.672  32.053   7.207  0.1447  0.0841 -0.0443
  859BOLB   C2C20610   5.593  31.782   7.480  0.1218  0.0154  0.4986
  859BOLB   C3C20611   5.656  31.342   7.616 -0.3606  0.1770 -0.1347
  859BOLB   C4C20612   5.633  30.996   7.560  0.1188  0.0645 -0.0788
  859BOLB   C1D20613   5.939  31.878   6.826  0.5891  0.2546  0.0199
  859BOLB   C2D20614   6.390  31.903   6.966 -0.1110  0.0307 -0.0553
  859BOLB   C3D20615   6.647  32.009   7.244  0.3130 -0.0261 -0.0548
  859BOLB   C4D20616   6.875  32.253   7.349  0.3134 -0.1462  0.0669
  860BOLB   NC120617  11.457  25.116  15.837 -0.0741  0.0471  0.1080
  860BOLB   PO120618  11.607  25.566  15.557  0.1892 -0.2116  0.0656
  860BOLB   GL120619  11.912  25.794  15.786 -0.0511  0.0207 -0.0998
  860BOLB   GL220620  11.997  26.073  15.657  0.0286  0.0077 -0.1582
  860BOLB   C1A20621  12.270  25.832  16.005 -0.0376 -0.0104  0.0215
  860BOLB   C2A20622  12.528  25.996  16.316 -0.0064  0.0500  0.0131
  860BOLB   C3A20623  12.638  26.305  16.718  0.2535  0.2710 -0.2431
  860BOLB   C4A20624  12.352  26.368  17.086 -0.2119 -0.1775  0.2477
  860BOLB   C1B20625  12.236  26.323  15.893 -0.0693 -0.1679 -0.0670
  860BOLB   C2B20626  12.572  26.299  15.969  0.2139  0.1768  0.3579
  860BOLB   C3B20627  13.003  26.491  15.958 -0.2172  0.3101  0.0263
  860BOLB   C4B20628  13.375  26.594  16.081  0.0001 -0.0492 -0.3186
  860BOLB   NC220629  13.613  27.703  18.669 -0.1947  0.2255  0.0958
  860BOLB   PO220630  13.615  27.316  18.700  0.1050 -0.3166 -0.1344
  860BOLB   GL320631  13.461  27.052  18.396  0.1731  0.0058 -0.0965
  860BOLB   GL420632  13.267  27.195  18.133  0.3200 -0.0015  0.1706
  860BOLB   C1C20633  13.115  26.677  18.231  0.2142 -0.1163  0.4866
  860BOLB   C2C20634  12.884  26.405  17.910 -0.0999 -0.0572  0.1266
  860BOLB   C3C20635  12.676  26.430  17.580  0.5728 -0.0585 -0.2410
  860BOLB   C4C20636  12.349  26.270  17.389 -0.1373  0.2116  0.0087
  860BOLB   C1D20637  12.998  26.984  17.841  0.3619 -0.1973 -0.3164
  860BOLB   C2D20638  12.610  26.870  17.834  0.3253  0.0555  0.0794
  860BOLB   C3D20639  12.260  26.653  17.727 -0.1364  0.1462 -0.0673
  860BOLB   C4D20640  11.981  26.670  17.417 -0.0286  0.0233 -0.1606
  861BOLB   NC120641  14.817  23.756   8.099  0.0159  0.1264  0.1539
  861BOLB   PO120642  14.622  23.995   7.813 -0.3117 -0.1173 -0.0332
  861BOLB   GL120643  14.953  24.127   7.774 -0.0104  0.3347 -0.2117
  861BOLB   GL220644  15.194  24.108   8.142  0.1155 -0.1513  0.0202
  861BOLB   C1A20645  15.265  24.406   7.701 -0.0875 -0.0447  0.3317
  861BOLB   C2A20646  15.605  24.538   8.007 -0.3946 -0.1382 -0.4330
  861BOLB   C3A20647  15.937  24.781   7.910  0.1060  0.1156  0.1703
  861BOLB   C4A20648  16.287  25.069   7.961 -0.0567  0.2333  0.3056
  861BOLB   C1B20649  15.172  24.551   8.278 -0.0763 -0.0030  0.2104
  861BOLB   C2B20650  15.474  24.902   8.308 -0.0319  0.1694 -0.1918
  861BOLB   C3B20651  15.667  25.158   8.080  0.2980  0.0600 -0.0894
  861BOLB   C4B20652  15.601  25.257   7.763 -0.2485 -0.0267 -0.2290
  861BOLB   NC220653  18.020  25.991   7.856  0.0284 -0.0472  0.0748
  861BOLB   PO220654  18.120  26.220   7.512  0.0139  0.1287  0.0015
  861BOLB   GL320655  17.678  26.315   7.619 -0.0929 -0.3966  0.2489
  861BOLB   GL420656  17.529  26.546   7.520 -0.3141 -0.0089  0.2558
  861BOLB   C1C20657  17.394  26.240   7.961 -0.2666  0.0975 -0.2540
  861BOLB   C2C20658  17.082  26.009   7.971 -0.1275 -0.1672  0.1625
  861BOLB   C3C20659  16.909  25.676   7.820  0.1214 -0.1285  0.1015
  861BOLB   C4C20660  16.524  25.408   7.650  0.0401 -0.1547 -0.2110
  861BOLB   C1D20661  17.110  26.436   7.511 -0.2438  0.1806 -0.0677
  861BOLB   C2D20662  16.726  26.704   7.622  0.4980 -0.2645  0.0918
  861BOLB   C3D20663  16.452  27.080   7.680  0.3793  0.1173 -0.0340
  861BOLB   C4D20664  16.045  27.138   7.872  0.2478 -0.2674 -0.0934
  862BOLB   NC120665   5.488  28.521  10.512 -0.1887  0.0073 -0.1015
  862BOLB   PO120666   5.132  28.875  10.585  0.0060  0.2977 -0.2452
  862BOLB   GL120667   5.184  29.261  10.312 -0.2879 -0.2512  0.0271
  862BOLB   GL220668   4.954  29.259  10.114  0.2526  0.0255 -0.1334
  862BOLB   C1A20669   5.091  29.715  10.195 -0.0100  0.0559  0.1905
  862BOLB   C2A20670   5.339  30.172  10.143  0.1382 -0.1313  0.0382
  862BOLB   C3A20671   5.657  30.458  10.248  0.1422  0.1278 -0.0930
  862BOLB   C4A20672   5.644  30.913  10.255  0.0137  0.2653  0.0282
  862BOLB   C1B20673   4.794  29.600   9.830 -0.0426  0.0414 -0.1030
  862BOLB   C2B20674   4.494  29.723   9.675 -0.0005 -0.0726 -0.2342
  862BOLB   C3B20675   4.609  30.101   9.474  0.0225 -0.3270 -0.2908
  862BOLB   C4B20676   4.964  30.127   9.320 -0.0818  0.1681 -0.1119
  862BOLB   NC220677   4.853  33.305   9.803 -0.1471 -0.0506  0.1837
  862BOLB   PO220678   4.752  32.955   9.629  0.0485  0.3197  0.0383
  862BOLB   GL320679   4.877  32.539   9.523  0.1714  0.3613  0.1658
  862BOLB   GL420680   5.191  32.530   9.481 -0.0068 -0.2450  0.3005
  862BOLB   C1C20681   4.995  32.087   9.521  0.3488  0.0240 -0.1250
  862BOLB   C2C20682   5.195  31.745   9.659 -0.1415 -0.0662  0.1066
  862BOLB   C3C20683   5.476  31.368   9.659 -0.0912  0.1728 -0.1285
  862BOLB   C4C20684   5.508  31.091   9.960  0.2328  0.0899 -0.0556
  862BOLB   C1D20685   5.165  32.283  10.002 -0.1266  0.0406 -0.3676
  862BOLB   C2D20686   5.030  31.992  10.189 -0.1150  0.2223  0.0200
  862BOLB   C3D20687   5.157  31.624  10.260  0.0465  0.1436  0.1475
  862BOLB   C4D20688   5.272  31.382  10.531 -0.1400  0.1233  0.1032
  863BOLB   NC120689  13.789  19.827   5.584 -0.0760  0.0144  0.3558
  863BOLB   PO120690  13.914  19.777   5.046 -0.2879  0.1037  0.2613
  863BOLB   GL120691  14.351  19.727   4.859  0.0466 -0.1929 -0.0372
  863BOLB   GL220692  14.277  19.877   4.497  0.0174 -0.4541 -0.0206
  863BOLB   C1A20693  14.710  19.733   4.604 -0.0521  0.2390 -0.5576
  863BOLB   C2A20694  15.040  19.806   4.327  0.3346 -0.4268 -0.1743
  863BOLB   C3A20695  15.470  19.911   4.194  0.0070 -0.2984 -0.3193
  863BOLB   C4A20696  15.687  20.226   3.904 -0.1900 -0.2019 -0.2048
  863BOLB   C1B20697  14.071  19.908   4.084 -0.4059 -0.0323  0.2589
  863BOLB   C2B20698  14.111  19.958   3.640 -0.1099  0.1631 -0.0694
  863BOLB   C3B20699  14.278  19.942   3.243  0.0569 -0.2129 -0.0897
  863BOLB   C4B20700  14.054  19.994   2.847  0.0306  0.0388 -0.1089
  863BOLB   NC220701  17.572  19.614   3.183 -0.0477  0.0240  0.3330
  863BOLB   PO220702  17.635  19.971   2.905 -0.4958  0.0134  0.1481
  863BOLB   GL320703  17.238  20.004   3.093  0.2036  0.3817  0.1287
  863BOLB   GL420704  17.163  20.213   3.374 -0.1886 -0.0992 -0.2907
  863BOLB   C1C20705  16.840  19.866   3.122 -0.0534 -0.1488  0.0084
  863BOLB   C2C20706  16.316  19.866   3.055 -0.0573  0.3057 -0.4483
  863BOLB   C3C20707  15.948  20.102   3.119  0.1501 -0.2800 -0.1126
  863BOLB   C4C20708  15.765  20.220   3.497  0.1800  0.2766 -0.0413
  863BOLB   C1D20709  16.818  19.993   3.619 -0.2701 -0.2828  0.1311
  863BOLB   C2D20710  16.561  19.880   3.955  0.2370 -0.0032  0.3641
  863BOLB   C3D20711  16.232  19.828   4.314 -0.0146 -0.0979  0.1001
  863BOLB   C4D20712  16.342  19.601   4.691 -0.2002  0.2459 -0.1053
  864BOLB   NC120713  10.269  24.490   4.124  0.0721  0.1120  0.1125
  864BOLB   PO120714  10.659  24.693   4.428  0.0338 -0.1635 -0.1960
  864BOLB   GL120715  10.780  24.969   4.115 -0.3542  0.0519  0.0436
  864BOLB   GL220716  10.864  25.252   4.146  0.1496  0.2408 -0.0320
  864BOLB   C1A20717  10.756  25.056   3.705 -0.0804  0.0370 -0.0448
  864BOLB   C2A20718  10.695  25.251   3.358 -0.0751  0.1274 -0.1698
  864BOLB   C3A20719  10.899  25.504   2.913 -0.5123  0.3392  0.0824
  864BOLB   C4A20720  11.175  25.800   2.599 -0.0723 -0.2225  0.0018
  864BOLB   C1B20721  11.001  25.514   3.722  0.0193 -0.1178  0.0866
  864BOLB   C2B20722  10.781  25.790   3.368 -0.1085  0.0309 -0.1828
  864BOLB   C3B20723  10.672  26.190   3.288  0.1790  0.0376 -0.0130
  864BOLB   C4B20724  10.767  26.623   3.154 -0.3406 -0.0285  0.1029
  864BOLB   NC220725   9.928  28.695   1.971 -0.0922  0.3389 -0.3153
  864BOLB   PO220726  10.184  28.280   1.946 -0.1137  0.1393 -0.0054
  864BOLB   GL320727  10.261  27.844   1.973 -0.0679 -0.0468  0.0587
  864BOLB   GL420728  10.035  27.670   2.173  0.0605  0.0568 -0.0022
  864BOLB   C1C20729  10.456  27.374   2.149 -0.0844 -0.2516 -0.0772
  864BOLB   C2C20730  10.434  26.812   2.287  0.0143 -0.1001  0.0602
  864BOLB   C3C20731  10.682  26.402   2.259 -0.1682 -0.0361  0.0220
  864BOLB   C4C20732  10.963  26.026   2.291  0.3063 -0.1604 -0.0884
  864BOLB   C1D20733   9.773  27.739   2.449  0.0062 -0.1415  0.1686
  864BOLB   C2D20734   9.430  27.505   2.741 -0.3246 -0.2566  0.1682
  864BOLB   C3D20735   9.097  27.364   3.046  0.0552 -0.1739 -0.1294
  864BOLB   C4D20736   8.838  27.082   3.334 -0.0137  0.3120  0.1390
  865BOLB   NC120737   9.616  25.038  17.525  0.1076  0.0316  0.0510
  865BOLB   PO120738  10.029  25.112  17.624  0.2200 -0.2453 -0.1262
  865BOLB   GL120739  10.307  25.112  17.983 -0.2895 -0.2247 -0.0188
  865BOLB   GL220740  10.301  24.848  18.038  0.0684  0.0739  0.1821
  865BOLB   C1A20741  10.449  25.237  18.329 -0.0994  0.0988 -0.1712
  865BOLB   C2A20742  10.713  25.413  18.691  0.0334  0.2706  0.1450
  865BOLB   C3A20743  11.010  25.494  19.133  0.0507 -0.2686 -0.0484
  865BOLB   C4A20744  11.342  25.355  19.128  0.0506  0.0782  0.3248
  865BOLB   C1B20745  10.212  24.782  18.503 -0.1012  0.0430  0.1590
  865BOLB   C2B20746  10.152  25.121  18.839 -0.3724 -0.0239 -0.1519
  865BOLB   C3B20747  10.311  25.510  18.952 -0.1628  0.2059  0.0058
  865BOLB   C4B20748  10.582  25.813  19.150  0.0048 -0.0678  0.1368
  865BOLB   NC220749  12.724  25.560  20.840  0.2584 -0.0596  0.0493
  865BOLB   PO220750  12.931  25.323  20.567 -0.1775 -0.0159  0.3954
  865BOLB   GL320751  12.774  25.088  20.328 -0.1392 -0.0101 -0.1898
  865BOLB   GL420752  12.451  25.012  20.310 -0.1694  0.1648  0.0206
  865BOLB   C1C20753  12.708  25.128  19.883 -0.1235 -0.2641 -0.1327
  865BOLB   C2C20754  12.479  25.247  19.473 -0.1922  0.0870  0.0110
  865BOLB   C3C20755  12.108  25.030  19.246  0.1240 -0.1585  0.1806
  865BOLB   C4C20756  11.745  25.180  19.069  0.1529 -0.2366 -0.1724
  865BOLB   C1D20757  12.077  24.843  20.439  0.1106  0.2194 -0.0171
  865BOLB   C2D20758  11.668  24.928  20.703  0.2605  0.0159  0.3656
  865BOLB   C3D20759  11.351  24.703  20.817  0.4581 -0.0298 -0.2727
  865BOLB   C4D20760  10.928  24.441  20.851  0.1105 -0.1797  0.1118
  866BOLB   NC120761   3.747  28.442  10.118 -0.0426 -0.0199  0.1639
  866BOLB   PO120762   3.431  28.336  10.280  0.1124  0.2057 -0.3256
  866BOLB   GL120763   3.202  28.676  10.466 -0.2388 -0.1095  0.3265
  866BOLB   GL220764   3.401  28.721  10.629 -0.0926 -0.0216  0.1891
  866BOLB   C1A20765   2.998  29.007  10.522 -0.1955  0.2332  0.0764
  866BOLB   C2A20766   2.803  29.155  10.095 -0.1773 -0.1302  0.4729
  866BOLB   C3A20767   2.825  29.397   9.803  0.0596 -0.5226 -0.1295
  866BOLB   C4A20768   2.683  29.736   9.671  0.1045  0.4283  0.1373
  866BOLB   C1B20769   3.495  29.165  10.648 -0.0829  0.1120 -0.2931
  866BOLB   C2B20770   3.503  29.556  10.842 -0.1090  0.0509  0.1458
  866BOLB   C3B20771   3.437  29.904  10.875  0.2687  0.0180 -0.0275
  866BOLB   C4B20772   3.065  30.051  11.088 -0.0797 -0.1417  0.1387
  866BOLB   NC220773   0.890  31.634   9.711 -0.1423  0.1081  0.0980
  866BOLB   PO220774   1.155  31.528   9.482  0.2313  0.1142  0.0222
  866BOLB   GL320775   1.310  31.164   9.581  0.1545 -0.0912 -0.0467
  866BOLB   GL420776   1.297  31.213   9.919 -0.1250  0.1128 -0.3473
  866BOLB   C1C20777   1.624  30.945   9.475  0.0409  0.1628  0.1500
  866BOLB   C2C20778   1.781  30.558   9.419  0.2632 -0.2301 -0.1954
  866BOLB   C3C20779   2.021  30.270   9.646  0.4475 -0.1335  0.0655
  866BOLB   C4C20780   2.250  29.838   9.623  0.0311 -0.1318  0.1407
  866BOLB   C1D20781   1.525  30.737   9.871  0.0542 -0.1106  0.1244
  866BOLB   C2D20782   1.861  30.574  10.002 -0.0531  0.0116  0.1188
  866BOLB   C3D20783   2.259  30.490  10.182  0.1163 -0.2937  0.2675
  866BOLB   C4D20784   2.763  30.432  10.265 -0.0343  0.3776 -0.1610
  867BOLB   NC120785   6.308  16.458  16.652 -0.2907  0.0047  0.2092
  867BOLB   PO120786   5.844  16.494  16.682 -0.0714 -0.0205 -0.1646
  867BOLB   GL120787   5.871  16.194  17.013 -0.3218  0.0428  0.0267
  867BOLB   GL220788   5.846  16.163  17.331  0.2834 -0.3383 -0.1474
  867BOLB   C1A20789   6.081  15.800  16.976  0.0072  0.0562  0.1899
  867BOLB   C2A20790   6.147  15.519  17.149  0.1025 -0.1271  0.0344
  867BOLB   C3A20791   6.414  15.237  17.226 -0.1362  0.0579 -0.1348
  867BOLB   C4A20792   6.637  15.161  17.638 -0.0112 -0.0845  0.0464
  867BOLB   C1B20793   5.978  15.830  17.546  0.3791 -0.1622 -0.1021
  867BOLB   C2B20794   6.170  15.480  17.695  0.4440  0.0500  0.0914
  867BOLB   C3B20795   6.257  15.207  17.983 -0.3468  0.1195 -0.5239
  867BOLB   C4B20796   6.270  15.019  18.324  0.0753  0.2425  0.1644
  867BOLB   NC220797   6.445  12.840  18.693  0.0848 -0.1901  0.1840
  867BOLB   PO220798   6.817  13.067  18.764  0.1214  0.2348  0.1712
  867BOLB   GL320799   6.628  13.370  18.530  0.2009 -0.0833 -0.0712
  867BOLB   GL420800   6.273  13.327  18.557 -0.1471 -0.0298 -0.3921
  867BOLB   C1C20801   6.667  13.784  18.492  0.0348 -0.0988 -0.0544
  867BOLB   C2C20802   6.668  14.155  18.269 -0.2759 -0.0835  0.0683
  867BOLB   C3C20803   6.527  14.607  18.200  0.2000  0.4857 -0.4778
  867BOLB   C4C20804   6.757  14.869  17.895 -0.1068  0.1976 -0.0279
  867BOLB   C1D20805   6.265  13.556  18.178 -0.3047  0.0650  0.1399
  867BOLB   C2D20806   6.300  13.877  18.008 -0.0422 -0.1153 -0.2144
  867BOLB   C3D20807   6.085  14.184  17.884  0.2350 -0.0365 -0.1699
  867BOLB   C4D20808   5.644  14.307  18.076  0.2703  0.0437 -0.0724
  868BOLB   NC120809   9.482  22.079   3.403  0.1350  0.3044 -0.3398
  868BOLB   PO120810   9.624  22.198   2.878 -0.0871  0.1360  0.0265
  868BOLB   GL120811   9.587  22.428   2.540  0.0721 -0.1019  0.2679
  868BOLB   GL220812   9.354  22.304   2.320  0.3851 -0.1484 -0.2379
  868BOLB   C1A20813   9.834  22.439   2.072  0.1516  0.2342  0.3246
  868BOLB   C2A20814   9.868  22.477   1.700 -0.1760 -0.0446  0.4985
  868BOLB   C3A20815   9.977  22.525   1.244  0.0824 -0.0786  0.0356
  868BOLB   C4A20816  10.351  22.499   0.999 -0.0707 -0.1076 -0.2171
  868BOLB   C1B20817   9.380  22.457   1.854 -0.1624 -0.1117  0.1812
  868BOLB   C2B20818   9.486  22.555   1.348 -0.1628 -0.1268 -0.1648
  868BOLB   C3B20819   9.605  22.895   1.058 -0.0305 -0.2099  0.2146
  868BOLB   C4B20820   9.471  23.203   0.771  0.0079 -0.3113 -0.0491
  868BOLB   NC220821  11.295  23.496  -0.945  0.0902  0.0329 -0.2466
  868BOLB   PO220822  11.120  23.929  -0.977 -0.1302 -0.2272 -0.1656
  868BOLB   GL320823  10.905  23.675  -0.719 -0.0661  0.2879 -0.1000
  868BOLB   GL420824  10.587  23.579  -0.483  0.0202 -0.1289 -0.2321
  868BOLB   C1C20825  11.076  23.601  -0.245  0.2551  0.1662 -0.0613
  868BOLB   C2C20826  10.914  23.198   0.170 -0.1009  0.1927  0.1121
  868BOLB   C3C20827  10.721  23.077   0.478 -0.0529  0.2328  0.1378
  868BOLB   C4C20828  10.687  22.834   0.878 -0.0317 -0.0360  0.2040
  868BOLB   C1D20829  10.938  23.180  -0.433 -0.1895  0.0418 -0.0794
  868BOLB   C2D20830  11.215  22.917  -0.165 -0.0228  0.0841  0.0752
  868BOLB   C3D20831  11.412  22.933   0.283  0.4735 -0.2421 -0.0042
  868BOLB   C4D20832  11.566  22.712   0.596 -0.2623 -0.5135 -0.0152
  869BOLB   NC120833   6.605  14.528  14.529 -0.0703  0.0579  0.1737
  869BOLB   PO120834   6.912  14.838  14.429 -0.1454  0.1838  0.0932
  869BOLB   GL120835   7.066  14.583  14.823 -0.0161  0.1232 -0.1723
  869BOLB   GL220836   7.057  14.248  14.653  0.0695  0.3249 -0.1398
  869BOLB   C1A20837   7.319  14.433  15.183  0.0641  0.1126  0.2839
  869BOLB   C2A20838   7.338  14.127  15.478  0.0655 -0.0995 -0.0637
  869BOLB   C3A20839   7.296  13.610  15.424  0.1470  0.0413  0.0132
  869BOLB   C4A20840   7.464  13.254  15.672 -0.0892  0.0890  0.0667
  869BOLB   C1B20841   7.218  13.922  14.930  0.2427  0.0629 -0.1566
  869BOLB   C2B20842   7.618  13.933  15.157  0.0983  0.3983 -0.2670
  869BOLB   C3B20843   7.823  13.627  15.271  0.2124 -0.0467 -0.0823
  869BOLB   C4B20844   7.807  13.198  15.196 -0.2614  0.0239 -0.2493
  869BOLB   NC220845   7.593  10.885  16.266 -0.1062 -0.1208  0.2382
  869BOLB   PO220846   7.610  11.250  16.627 -0.2316 -0.0404  0.0220
  869BOLB   GL320847   7.586  11.413  16.294  0.2050  0.1421 -0.1726
  869BOLB   GL420848   7.398  11.710  16.469 -0.1333 -0.1745 -0.1774
  869BOLB   C1C20849   7.168  11.600  15.999  0.3341 -0.2682  0.0025
  869BOLB   C2C20850   7.122  12.017  15.806  0.2668 -0.0266  0.0526
  869BOLB   C3C20851   7.260  12.386  15.867  0.1055 -0.2219  0.1376
  869BOLB   C4C20852   7.261  12.961  15.878  0.2857  0.1858  0.1422
  869BOLB   C1D20853   7.627  11.910  16.116  0.2242 -0.3684  0.0491
  869BOLB   C2D20854   7.833  12.169  15.890  0.0580  0.0633  0.3341
  869BOLB   C3D20855   7.760  12.503  15.586  0.0093 -0.0177 -0.2627
  869BOLB   C4D20856   7.796  12.803  15.509 -0.0092  0.1072 -0.0984
  870BOLB   NC120857   6.143  29.206  10.881 -0.2799 -0.2028 -0.2635
  870BOLB   PO120858   6.421  29.061  11.247 -0.0814  0.1811  0.2962
  870BOLB   GL120859   6.436  29.544  11.275  0.1417  0.1594 -0.1943
  870BOLB   GL220860   6.735  29.792  11.232 -0.1509 -0.0989 -0.2682
  870BOLB   C1A20861   6.097  29.923  11.385 -0.1484 -0.2138 -0.1685
  870BOLB   C2A20862   6.085  30.375  11.517 -0.3074  0.2080  0.1305
  870BOLB   C3A20863   6.053  30.762  11.614  0.3801 -0.2723 -0.2265
  870BOLB   C4A20864   5.783  30.994  11.756  0.0935 -0.0165  0.1112
  870BOLB   C1B20865   6.604  30.136  11.199 -0.0730  0.1116 -0.1516
  870BOLB   C2B20866   6.573  30.517  11.416 -0.0020 -0.0630 -0.0042
  870BOLB   C3B20867   6.495  30.934  11.681  0.2430 -0.2623 -0.3324
  870BOLB   C4B20868   6.572  31.237  12.004 -0.0698  0.0458 -0.0985
  870BOLB   NC220869   5.209  33.250  11.652 -0.2560  0.0069 -0.1746
  870BOLB   PO220870   5.019  33.063  12.066 -0.0867  0.3790 -0.2592
  870BOLB   GL320871   5.272  32.718  11.904  0.2740  0.2856  0.1872
  870BOLB   GL420872   5.483  32.708  11.684  0.3387 -0.1267  0.0688
  870BOLB   C1C20873   5.148  32.355  11.704 -0.0847 -0.1106  0.2032
  870BOLB   C2C20874   5.186  31.900  11.846 -0.0026  0.0478  0.0936
  870BOLB   C3C20875   5.478  31.701  11.555 -0.0648 -0.0957 -0.0556
  870BOLB   C4C20876   5.539  31.261  11.639  0.2690  0.1099 -0.2951
  870BOLB   C1D20877   5.574  32.418  11.461 -0.0749  0.0709  0.0348
  870BOLB   C2D20878   5.846  32.178  11.363  0.1589 -0.0900  0.0082
  870BOLB   C3D20879   6.040  31.816  11.448  0.1858 -0.1033 -0.0957
  870BOLB   C4D20880   6.087  31.356  11.605 -0.0018 -0.0568 -0.1116
  871BOLB   NC120881   5.569  13.096  11.556 -0.2608  0.0345  0.0773
  871BOLB   PO120882   5.971  13.345  11.607  0.1697  0.0082  0.0011
  871BOLB   GL120883   6.044  12.922  11.692 -0.1247 -0.0013  0.1666
  871BOLB   GL220884   6.129  12.797  12.059 -0.1095 -0.0789  0.3639
  871BOLB   C1A20885   6.134  12.482  11.690 -0.1193 -0.1218  0.1276
  871BOLB   C2A20886   5.954  12.053  11.640 -0.0051 -0.1251 -0.3139
  871BOLB   C3A20887   6.039  11.827  11.921  0.0308 -0.1233 -0.0507
  871BOLB   C4A20888   5.973  11.563  12.320  0.0426  0.0132 -0.2573
  871BOLB   C1B20889   5.932  12.431  12.196  0.0249 -0.3452 -0.1169
  871BOLB   C2B20890   5.799  12.008  12.360  0.2225  0.2810  0.0072
  871BOLB   C3B20891   5.763  11.836  12.689 -0.1152 -0.0441  0.0050
  871BOLB   C4B20892   5.921  11.505  12.903 -0.1974 -0.2684 -0.0882
  871BOLB   NC220893   6.841   9.807  13.613  0.0269 -0.1648  0.1874
  871BOLB   PO220894   6.720   9.569  13.240  0.3521 -0.2767  0.0407
  871BOLB   GL320895   6.625  10.050  13.240  0.0853  0.1141 -0.2946
  871BOLB   GL420896   6.320  10.114  13.419 -0.1160 -0.2856  0.1736
  871BOLB   C1C20897   6.687  10.350  12.961  0.0728  0.0179 -0.0127
  871BOLB   C2C20898   6.481  10.673  12.920  0.5144  0.2323 -0.0297
  871BOLB   C3C20899   6.282  10.856  12.806 -0.2505  0.1280  0.3497
  871BOLB   C4C20900   6.041  11.172  12.576  0.0348  0.2633  0.0344
  871BOLB   C1D20901   6.206  10.529  13.310  0.1454 -0.0408  0.0303
  871BOLB   C2D20902   6.226  11.033  13.258 -0.0648 -0.0318 -0.0982
  871BOLB   C3D20903   5.988  11.374  13.365  0.0464  0.2197 -0.1604
  871BOLB   C4D20904   5.787  11.828  13.424  0.1012  0.1063 -0.1062
  872BOLB   NC120905  12.063  26.037  14.695  0.2978  0.0909  0.1081
  872BOLB   PO120906  12.363  25.759  14.854 -0.4462  0.1816 -0.0771
  872BOLB   GL120907  12.679  25.738  15.048 -0.0802  0.1863  0.1333
  872BOLB   GL220908  12.690  25.401  15.206 -0.1021  0.0980 -0.0708
  872BOLB   C1A20909  12.945  25.948  14.984 -0.0387  0.2391  0.2031
  872BOLB   C2A20910  13.305  26.085  15.108 -0.4820 -0.0247 -0.1693
  872BOLB   C3A20911  13.649  26.116  15.391  0.2582  0.2447 -0.0875
  872BOLB   C4A20912  13.865  25.955  15.767 -0.3429  0.0685 -0.2143
  872BOLB   C1B20913  13.005  25.578  15.344  0.0720  0.4840  0.0263
  872BOLB   C2B20914  13.314  25.774  15.531 -0.0651 -0.3257 -0.2587
  872BOLB   C3B20915  13.422  26.131  15.820 -0.0050  0.0820 -0.1395
  872BOLB   C4B20916  13.478  26.146  16.408  0.0869 -0.2384  0.0915
  872BOLB   NC220917  15.195  26.854  18.042 -0.1876 -0.2103  0.2070
  872BOLB   PO220918  15.354  26.491  17.697 -0.2578 -0.1567  0.0988
  872BOLB   GL320919  15.334  26.278  17.247  0.0766  0.2385 -0.0102
  872BOLB   GL420920  15.526  25.917  17.165  0.0646 -0.0549 -0.0112
  872BOLB   C1C20921  14.879  26.267  17.001 -0.0001 -0.1792  0.1827
  872BOLB   C2C20922  14.439  26.378  16.736  0.3409 -0.1009  0.1955
  872BOLB   C3C20923  14.096  26.193  16.496  0.0275 -0.0217 -0.2342
  872BOLB   C4C20924  13.980  25.955  16.193  0.3181  0.0480  0.1457
  872BOLB   C1D20925  15.239  25.874  16.794  0.0102  0.1015 -0.0558
  872BOLB   C2D20926  15.393  25.766  16.417 -0.0368  0.2678  0.1771
  872BOLB   C3D20927  15.745  25.522  16.339 -0.0760  0.3301 -0.0276
  872BOLB   C4D20928  15.876  25.132  16.653  0.2965  0.0180 -0.0457
  873BOLB   NC120929  10.715  14.310  10.870  0.3106  0.4998  0.0060
  873BOLB   PO120930  10.821  14.558  10.513 -0.1743 -0.0449 -0.0198
  873BOLB   GL120931  11.250  14.314  10.580 -0.0469 -0.3254  0.2764
  873BOLB   GL220932  11.430  14.012  10.362  0.2766  0.0952 -0.0012
  873BOLB   C1A20933  11.657  14.282  10.653  0.3368  0.1289 -0.3151
  873BOLB   C2A20934  11.995  13.904  10.847 -0.1616  0.0851 -0.0514
  873BOLB   C3A20935  12.015  13.409  10.829  0.3458 -0.1407  0.2598
  873BOLB   C4A20936  12.230  13.067  11.043  0.0500  0.0265 -0.0666
  873BOLB   C1B20937  11.541  13.643  10.599 -0.2134  0.3161  0.2188
  873BOLB   C2B20938  11.567  13.275  10.812 -0.0562  0.0351 -0.2772
  873BOLB   C3B20939  11.264  12.840  10.942  0.3012 -0.0083 -0.2268
  873BOLB   C4B20940  11.088  12.459  11.048 -0.0128  0.0989 -0.0979
  873BOLB   NC220941  13.811  11.466  11.492  0.1144 -0.0794 -0.1002
  873BOLB   PO220942  13.652  11.277  11.817 -0.1784 -0.0977  0.0461
  873BOLB   GL320943  13.414  11.704  11.820 -0.3016 -0.1720 -0.1241
  873BOLB   GL420944  13.206  11.564  11.968 -0.0178  0.2704  0.1388
  873BOLB   C1C20945  13.081  11.911  11.582 -0.0306 -0.0150  0.1691
  873BOLB   C2C20946  12.685  12.001  11.499 -0.0918 -0.3132 -0.2576
  873BOLB   C3C20947  12.389  12.287  11.276 -0.2885 -0.3228 -0.0877
  873BOLB   C4C20948  12.207  12.717  11.218 -0.0351  0.2061 -0.2049
  873BOLB   C1D20949  12.813  11.950  12.003  0.1063 -0.1855 -0.3322
  873BOLB   C2D20950  12.621  12.290  12.034  0.0593  0.2285 -0.1858
  873BOLB   C3D20951  12.260  12.392  12.157  0.1239 -0.2195  0.1827
  873BOLB   C4D20952  11.994  12.616  12.350  0.1842 -0.1898  0.1452
  874BOLB   NC120953  38.367  25.609  11.807  0.1580 -0.2194 -0.3382
  874BOLB   PO120954  38.221  25.280  11.945 -0.0349 -0.3172 -0.3128
  874BOLB   GL120955  37.939  25.610  12.162  0.1461 -0.0038 -0.3238
  874BOLB   GL220956  38.011  25.623  12.468 -0.0571  0.0940 -0.1248
  874BOLB   C1A20957  37.580  25.810  12.186 -0.3217 -0.0317 -0.0685
  874BOLB   C2A20958  37.268  26.097  12.192 -0.2135 -0.0107 -0.2035
  874BOLB   C3A20959  36.888  26.213  12.483  0.0570  0.1772  0.2478
  874BOLB   C4A20960  36.734  26.607  12.594 -0.1570 -0.1460  0.1597
  874BOLB   C1B20961  37.669  25.837  12.661  0.0092 -0.2133 -0.1708
  874BOLB   C2B20962  37.345  26.159  12.765 -0.0316 -0.1892 -0.2171
  874BOLB   C3B20963  37.265  26.650  12.940  0.0977 -0.2094 -0.3747
  874BOLB   C4B20964  36.957  26.971  13.276  0.0166  0.0728  0.1221
  874BOLB   NC220965  34.978  28.785  13.013 -0.2759  0.0717 -0.0657
  874BOLB   PO220966  35.281  28.471  12.985 -0.0044  0.0004  0.1617
  874BOLB   GL320967  35.659  28.465  12.946  0.0167  0.1530 -0.2610
  874BOLB   GL420968  35.687  28.393  12.672  0.0994  0.0038 -0.0078
  874BOLB   C1C20969  36.136  28.248  12.935  0.1035  0.0299  0.1769
  874BOLB   C2C20970  36.344  27.826  12.974  0.3854  0.1409  0.0712
  874BOLB   C3C20971  36.459  27.403  12.962 -0.4916  0.0640  0.3474
  874BOLB   C4C20972  36.738  26.950  12.821 -0.2049  0.0483  0.0098
  874BOLB   C1D20973  35.937  27.951  12.535 -0.1470  0.0761  0.2538
  874BOLB   C2D20974  36.300  27.698  12.496 -0.2181  0.0775  0.2065
  874BOLB   C3D20975  36.547  27.251  12.422 -0.0474 -0.2174 -0.2025
  874BOLB   C4D20976  36.689  26.885  12.149 -0.1138 -0.1746 -0.0788
  875BOLB   NC120977   6.035  28.558   8.024 -0.1016  0.0924  0.1748
  875BOLB   PO120978   5.601  28.808   7.938 -0.2806 -0.3860  0.2628
  875BOLB   GL120979   5.296  29.062   8.030 -0.3636  0.0886 -0.2727
  875BOLB   GL220980   5.126  28.989   7.716  0.2421  0.0560 -0.0122
  875BOLB   C1A20981   5.078  29.421   8.031 -0.2799 -0.2200  0.0824
  875BOLB   C2A20982   5.049  29.763   7.797  0.4310  0.0757  0.0268
  875BOLB   C3A20983   4.922  30.020   7.472  0.1069  0.2937  0.0705
  875BOLB   C4A20984   4.726  30.290   7.237  0.1445  0.0442 -0.1587
  875BOLB   C1B20985   5.211  29.347   7.580 -0.2112 -0.0640  0.2810
  875BOLB   C2B20986   5.478  29.697   7.373 -0.1153  0.1376 -0.2782
  875BOLB   C3B20987   5.719  30.026   7.204  0.0514 -0.1326 -0.1193
  875BOLB   C4B20988   6.046  30.264   6.965  0.2847  0.2632  0.1035
  875BOLB   NC220989   4.584  31.778   4.934 -0.1663 -0.2159  0.0178
  875BOLB   PO220990   4.504  31.789   5.408  0.1132 -0.1953 -0.0596
  875BOLB   GL320991   4.329  31.424   5.633 -0.0815  0.0618  0.4013
  875BOLB   GL420992   3.980  31.325   5.609 -0.0344 -0.2199 -0.0459
  875BOLB   C1C20993   4.394  31.074   5.874 -0.0453  0.3998  0.2878
  875BOLB   C2C20994   4.704  30.719   5.970 -0.2658 -0.0492 -0.0656
  875BOLB   C3C20995   4.857  30.355   6.394  0.2642 -0.1517  0.2718
  875BOLB   C4C20996   4.756  30.377   6.815 -0.2471  0.3076  0.3176
  875BOLB   C1D20997   3.902  30.995   5.884  0.1277 -0.1760 -0.3600
  875BOLB   C2D20998   3.739  30.610   5.916  0.3086  0.0211 -0.1009
  875BOLB   C3D20999   3.583  30.419   6.081  0.0941 -0.3730 -0.1628
  875BOLB   C4D21000   3.403  30.165   6.333  0.0791 -0.0174  0.3420
  876BOLB   NC121001  19.609  20.664   7.435  0.1983  0.2468  0.3323
  876BOLB   PO121002  19.413  20.942   7.109  0.2479 -0.4478  0.0890
  876BOLB   GL121003  19.089  21.011   7.334 -0.1831 -0.0386  0.0773
  876BOLB   GL221004  19.119  20.768   7.528 -0.3022 -0.2726  0.0565
  876BOLB   C1A21005  18.723  21.228   7.556  0.1225  0.0755  0.2088
  876BOLB   C2A21006  18.315  21.291   7.496 -0.0532 -0.2062 -0.1666
  876BOLB   C3A21007  18.055  21.414   7.164 -0.1987  0.1089  0.1274
  876BOLB   C4A21008  17.878  21.685   6.930 -0.5109 -0.0578 -0.0181
  876BOLB   C1B21009  18.630  20.682   7.390  0.1849  0.2843 -0.0930
  876BOLB   C2B21010  18.240  20.865   7.253 -0.1614  0.0212  0.2366
  876BOLB   C3B21011  17.935  20.822   7.071  0.1158 -0.2085 -0.2029
  876BOLB   C4B21012  17.590  20.755   6.688  0.1373 -0.3012  0.1423
  876BOLB   NC221013  18.728  23.668   5.979  0.0064  0.1562  0.0662
  876BOLB   PO221014  18.467  23.877   5.860  0.1439 -0.3095  0.1511
  876BOLB   GL321015  18.243  23.692   6.252  0.3753  0.3519  0.2140
  876BOLB   GL421016  18.121  23.959   6.498  0.3355 -0.1872 -0.1788
  876BOLB   C1C21017  18.240  23.361   6.545 -0.0339  0.2736 -0.3974
  876BOLB   C2C21018  18.123  22.943   6.524 -0.0128 -0.3066  0.2889
  876BOLB   C3C21019  18.011  22.499   6.702  0.1369 -0.0591  0.0038
  876BOLB   C4C21020  17.902  22.199   6.918 -0.1327  0.1852 -0.1058
  876BOLB   C1D21021  17.773  23.728   6.531 -0.2811 -0.1104 -0.0369
  876BOLB   C2D21022  17.534  23.395   6.733 -0.1110  0.0895  0.5511
  876BOLB   C3D21023  17.198  23.139   6.933 -0.0535 -0.4636 -0.0744
  876BOLB   C4D21024  17.011  22.900   7.295  0.1223 -0.0357 -0.0730
  877BOLB   NC121025   2.520  22.075  17.744  0.2854 -0.2746  0.1056
  877BOLB   PO121026   2.326  22.502  17.801 -0.3045  0.2539  0.0578
  877BOLB   GL121027   2.119  22.564  18.145  0.1358 -0.0889 -0.3606
  877BOLB   GL221028   2.011  22.376  18.335  0.1772  0.1730 -0.1340
  877BOLB   C1A21029   2.010  22.864  18.385  0.1999 -0.2190  0.2601
  877BOLB   C2A21030   1.578  23.080  18.374 -0.0627 -0.2401  0.1434
  877BOLB   C3A21031   1.173  23.147  18.605  0.0674 -0.0968  0.0313
  877BOLB   C4A21032   1.069  23.386  19.000  0.0932 -0.2749  0.0379
  877BOLB   C1B21033   1.841  22.298  18.820 -0.1102  0.0122  0.0123
  877BOLB   C2B21034   1.671  22.157  19.153  0.1077  0.2916 -0.0330
  877BOLB   C3B21035   1.422  22.211  19.533  0.0375  0.1198  0.0576
  877BOLB   C4B21036   1.253  21.985  19.738  0.0456  0.0663  0.0429
  877BOLB   NC221037   1.080  25.140  20.691  0.3692 -0.0157  0.0981
  877BOLB   PO221038   0.685  25.057  20.501 -0.0569  0.2341 -0.1393
  877BOLB   GL321039   0.836  25.002  20.122  0.0292 -0.0905 -0.1985
  877BOLB   GL421040   0.509  24.830  19.980  0.2041  0.0667 -0.0353
  877BOLB   C1C21041   0.991  25.007  19.704  0.2676 -0.0869  0.0269
  877BOLB   C2C21042   1.010  24.622  19.555 -0.2272 -0.0599  0.3748
  877BOLB   C3C21043   1.004  24.191  19.291 -0.1638  0.3505  0.0547
  877BOLB   C4C21044   0.880  23.740  19.082 -0.2582 -0.1385 -0.0581
  877BOLB   C1D21045   0.247  24.847  19.605 -0.0133  0.0018  0.0923
  877BOLB   C2D21046  -0.130  24.623  19.553 -0.0288 -0.1092 -0.0580
  877BOLB   C3D21047  -0.281  24.384  19.169 -0.1150  0.3851 -0.0417
  877BOLB   C4D21048  -0.257  24.290  18.657 -0.2633 -0.3289  0.0243
  878BOLB   NC121049   6.047  32.182   5.403  0.1322 -0.0130  0.2219
  878BOLB   PO121050   5.663  32.213   5.237 -0.0381  0.1327 -0.1973
  878BOLB   GL121051   5.694  31.829   5.367 -0.0750  0.2001  0.1520
  878BOLB   GL221052   5.445  31.662   5.496  0.1573 -0.0848  0.1578
  878BOLB   C1A21053   5.926  31.568   5.304 -0.1645  0.0551 -0.0681
  878BOLB   C2A21054   6.055  31.067   5.574  0.0358  0.3138 -0.0551
  878BOLB   C3A21055   5.904  30.660   5.764  0.1103  0.0447 -0.0498
  878BOLB   C4A21056   5.547  30.453   6.087  0.2369  0.2372 -0.1580
  878BOLB   C1B21057   5.269  31.428   5.775 -0.2953  0.0724  0.2524
  878BOLB   C2B21058   5.327  31.184   6.105 -0.1205  0.1075  0.0245
  878BOLB   C3B21059   5.311  30.842   6.266  0.0306 -0.1311 -0.0638
  878BOLB   C4B21060   5.215  30.625   6.650 -0.0073  0.2029 -0.0075
  878BOLB   NC221061   5.011  31.675   4.165  0.1343 -0.1601 -0.0028
  878BOLB   PO221062   4.769  31.578   4.494 -0.1752  0.3849 -0.1331
  878BOLB   GL321063   4.884  31.167   4.748 -0.0382  0.2719 -0.3194
  878BOLB   GL421064   5.199  31.091   4.903 -0.0504 -0.0253  0.0214
  878BOLB   C1C21065   4.705  30.806   4.901  0.1126 -0.2003  0.2646
  878BOLB   C2C21066   4.544  30.516   5.200  0.1166  0.3717  0.3343
  878BOLB   C3C21067   4.750  30.375   5.567 -0.1973 -0.1293 -0.0755
  878BOLB   C4C21068   5.111  30.330   5.924  0.1257 -0.1090  0.2248
  878BOLB   C1D21069   5.162  30.703   5.234  0.4125  0.1798 -0.2277
  878BOLB   C2D21070   5.194  30.260   5.313 -0.0101 -0.1991 -0.1930
  878BOLB   C3D21071   5.455  29.890   5.211 -0.0138 -0.1231 -0.1953
  878BOLB   C4D21072   5.659  29.911   4.858  0.0177  0.1673 -0.2397
  879BOLB   NC121073  11.137  15.353   5.997 -0.3269 -0.0511 -0.2418
  879BOLB   PO121074  10.981  15.318   5.545 -0.1942  0.1033 -0.1545
  879BOLB   GL121075  11.173  15.002   5.394 -0.5475 -0.0669 -0.3165
  879BOLB   GL221076  11.471  14.983   5.348  0.1197  0.1041 -0.0983
  879BOLB   C1A21077  11.116  14.541   5.127 -0.1541  0.1483 -0.2735
  879BOLB   C2A21078  10.935  14.312   4.729 -0.1838  0.0678 -0.1566
  879BOLB   C3A21079  10.942  13.938   4.569 -0.3550 -0.4135  0.1820
  879BOLB   C4A21080  10.924  13.544   4.606  0.1194 -0.1332  0.2051
  879BOLB   C1B21081  11.600  14.503   5.231 -0.1058  0.1301 -0.1168
  879BOLB   C2B21082  11.757  14.113   5.101 -0.1714  0.3536 -0.0547
  879BOLB   C3B21083  11.772  13.536   5.108  0.0269  0.4489 -0.1465
  879BOLB   C4B21084  11.888  13.082   5.322 -0.2193  0.1020 -0.0713
  879BOLB   NC221085  11.503  11.358   3.608  0.0318 -0.0800 -0.0188
  879BOLB   PO221086  11.077  11.407   3.498 -0.3241 -0.1191 -0.0280
  879BOLB   GL321087  11.285  11.751   3.874  0.0119  0.1034  0.0684
  879BOLB   GL421088  11.057  11.815   3.903  0.0591  0.0862  0.2298
  879BOLB   C1C21089  11.436  12.212   3.970 -0.2158 -0.1665 -0.1084
  879BOLB   C2C21090  11.391  12.649   4.001  0.3000  0.2295  0.1662
  879BOLB   C3C21091  11.101  12.970   4.165 -0.3212  0.1460  0.3261
  879BOLB   C4C21092  10.983  13.345   4.180  0.3199  0.2525  0.4125
  879BOLB   C1D21093  10.891  12.015   4.151 -0.0433 -0.0291 -0.0994
  879BOLB   C2D21094  10.528  12.333   4.174 -0.3489 -0.0035  0.1151
  879BOLB   C3D21095  10.207  12.627   4.258 -0.4030  0.3480 -0.2274
  879BOLB   C4D21096   9.822  12.782   4.514 -0.1901  0.0307  0.0467
  880BOLB   NC121097   6.852  29.336  11.322 -0.1631 -0.3112 -0.2103
  880BOLB   PO121098   7.080  29.361  11.014  0.1582  0.1101 -0.1273
  880BOLB   GL121099   7.225  29.738  11.095 -0.1127  0.0392 -0.1202
  880BOLB   GL221100   7.422  29.841  10.818  0.0236 -0.2804 -0.1818
  880BOLB   C1A21101   7.396  29.881  11.411  0.0171 -0.2121 -0.1802
  880BOLB   C2A21102   7.757  30.135  11.590  0.3203 -0.1419  0.0539
  880BOLB   C3A21103   8.161  30.484  11.811  0.0190  0.2704  0.0725
  880BOLB   C4A21104   8.143  30.793  12.081 -0.2268 -0.0310  0.1750
  880BOLB   C1B21105   7.561  30.249  11.043  0.0841 -0.0077 -0.1453
  880BOLB   C2B21106   7.299  30.462  11.246 -0.2145  0.2955 -0.0310
  880BOLB   C3B21107   6.985  30.783  11.249  0.3009 -0.3401  0.1339
  880BOLB   C4B21108   7.051  31.213  11.101 -0.1090 -0.1039  0.0443
  880BOLB   NC221109   7.064  33.004  12.138  0.1118 -0.1122  0.0888
  880BOLB   PO221110   7.161  32.980  12.618 -0.1170  0.2796 -0.1581
  880BOLB   GL321111   7.035  32.631  12.468  0.1852  0.1204  0.0428
  880BOLB   GL421112   6.806  32.590  12.276  0.2642  0.1455  0.3106
  880BOLB   C1C21113   7.149  32.247  12.377 -0.3478  0.1311  0.1623
  880BOLB   C2C21114   7.406  31.987  12.202  0.1088 -0.2697  0.0932
  880BOLB   C3C21115   7.573  31.538  12.215  0.0137  0.2240 -0.0187
  880BOLB   C4C21116   7.898  31.189  12.260  0.2058 -0.5643 -0.0559
  880BOLB   C1D21117   6.600  32.230  12.524 -0.2787 -0.1550  0.1442
  880BOLB   C2D21118   6.426  31.780  12.660 -0.2401 -0.0257  0.2908
  880BOLB   C3D21119   6.229  31.489  12.722  0.1167  0.0076 -0.1441
  880BOLB   C4D21120   6.267  31.065  12.599  0.0391  0.2117  0.0481
  881BOLB   NC121121   1.337  24.220  15.500  0.1408  0.2540 -0.0041
  881BOLB   PO121122   0.825  24.188  15.468 -0.2096 -0.1998 -0.0116
  881BOLB   GL121123   0.443  24.331  15.700 -0.4709 -0.1618  0.0802
  881BOLB   GL221124   0.307  24.573  15.531 -0.1948 -0.2629 -0.0590
  881BOLB   C1A21125   0.538  24.604  16.066  0.0984 -0.2075 -0.2447
  881BOLB   C2A21126   0.189  24.961  16.329  0.0394 -0.1508  0.2394
  881BOLB   C3A21127  -0.152  25.149  16.411  0.4080  0.2880  0.2166
  881BOLB   C4A21128  -0.306  25.619  16.542 -0.2379 -0.1698  0.2237
  881BOLB   C1B21129   0.108  24.701  15.903 -0.0286  0.0409  0.2948
  881BOLB   C2B21130  -0.094  25.124  15.892  0.1829 -0.0902  0.1358
  881BOLB   C3B21131  -0.217  25.518  16.010 -0.3425 -0.0881 -0.0199
  881BOLB   C4B21132  -0.635  25.668  16.092 -0.0467 -0.1632 -0.0784
  881BOLB   NC221133  -0.520  26.692  18.757 -0.0206  0.0383  0.1820
  881BOLB   PO221134  -0.895  26.670  18.497  0.1379 -0.1044 -0.1246
  881BOLB   GL321135  -0.857  26.526  18.139 -0.2589 -0.0671 -0.1434
  881BOLB   GL421136  -0.894  26.250  18.014 -0.0219 -0.0413  0.0183
  881BOLB   C1C21137  -0.691  26.571  17.693  0.0164  0.0535 -0.0594
  881BOLB   C2C21138  -0.356  26.384  17.563 -0.0786  0.4419  0.0181
  881BOLB   C3C21139  -0.329  26.103  17.187  0.1718  0.0525 -0.3675
  881BOLB   C4C21140  -0.335  25.895  16.867 -0.0816 -0.1631 -0.0101
  881BOLB   C1D21141  -0.873  26.150  17.611 -0.0467 -0.3623 -0.1828
  881BOLB   C2D21142  -0.674  25.831  17.382 -0.0102  0.2011  0.1736
  881BOLB   C3D21143  -0.268  25.669  17.366  0.0788  0.1579 -0.2572
  881BOLB   C4D21144  -0.143  25.208  17.460 -0.1277 -0.1894  0.5276
  882BOLB   NC121145   2.159  24.510   4.573 -0.0296  0.0599  0.2686
  882BOLB   PO121146   2.614  24.666   4.501  0.0241  0.1271  0.0742
  882BOLB   GL121147   2.472  24.983   4.249 -0.1122 -0.2711  0.1421
  882BOLB   GL221148   2.602  25.220   4.316  0.1217  0.2815 -0.0248
  882BOLB   C1A21149   2.254  25.263   3.883  0.0478 -0.1752  0.3006
  882BOLB   C2A21150   2.336  25.487   3.669  0.0299  0.1199 -0.0986
  882BOLB   C3A21151   2.573  25.725   3.445 -0.0948 -0.0933 -0.2166
  882BOLB   C4A21152   2.575  26.047   3.140  0.0659  0.3385 -0.0443
  882BOLB   C1B21153   2.392  25.737   4.196  0.3144  0.1028  0.4476
  882BOLB   C2B21154   2.079  25.895   4.083  0.0753 -0.3298  0.0883
  882BOLB   C3B21155   1.779  26.187   3.814 -0.2208 -0.1648  0.1303
  882BOLB   C4B21156   1.490  25.982   3.534 -0.2562  0.3176 -0.0933
  882BOLB   NC221157   0.851  27.396   1.959 -0.0111  0.0705 -0.0048
  882BOLB   PO221158   1.054  27.212   1.637  0.1127  0.0864  0.0698
  882BOLB   GL321159   1.428  26.949   1.607 -0.0715 -0.1717  0.4306
  882BOLB   GL421160   1.551  26.695   1.338  0.1055 -0.1025  0.0271
  882BOLB   C1C21161   1.521  26.543   1.779 -0.2256 -0.3557 -0.0627
  882BOLB   C2C21162   1.722  26.394   2.125  0.2231 -0.2279  0.1772
  882BOLB   C3C21163   2.059  26.265   2.469  0.1324 -0.2103 -0.3208
  882BOLB   C4C21164   2.460  26.156   2.731  0.0098 -0.1334  0.0349
  882BOLB   C1D21165   1.665  26.186   1.497  0.2457  0.0470  0.0060
  882BOLB   C2D21166   1.647  25.757   1.575  0.2052 -0.1202 -0.0719
  882BOLB   C3D21167   1.624  25.435   1.860 -0.0251 -0.0600  0.1901
  882BOLB   C4D21168   1.950  25.179   2.024  0.1826  0.1357 -0.0847
  883BOLB   NC121169   1.628  14.460  25.894 -0.1995 -0.2423 -0.0608
  883BOLB   PO121170   1.823  14.181  26.049 -0.5393  0.0584 -0.1832
  883BOLB   GL121171   1.565  14.168  26.444  0.2057 -0.1537  0.2296
  883BOLB   GL221172   1.360  14.438  26.370  0.0025 -0.1268 -0.1651
  883BOLB   C1A21173   1.594  14.185  26.873 -0.0807  0.3737 -0.0483
  883BOLB   C2A21174   1.428  14.457  27.183  0.3070  0.1126 -0.2028
  883BOLB   C3A21175   1.137  14.511  27.362 -0.1134 -0.2807  0.4217
  883BOLB   C4A21176   0.830  14.542  27.573  0.0311  0.2315  0.3411
  883BOLB   C1B21177   1.120  14.131  26.705  0.0014 -0.3526  0.0053
  883BOLB   C2B21178   1.128  13.791  26.968  0.1479 -0.0035 -0.2801
  883BOLB   C3B21179   1.112  13.431  26.986  0.2266 -0.2005 -0.0938
  883BOLB   C4B21180   1.174  13.103  27.154 -0.0194 -0.0657 -0.0351
  883BOLB   NC221181  -0.430  13.992  26.069 -0.5999  0.0387 -0.1491
  883BOLB   PO221182  -0.437  14.420  25.950 -0.0436  0.1950  0.0723
  883BOLB   GL321183  -0.272  14.753  26.305 -0.2121 -0.0543 -0.1423
  883BOLB   GL421184  -0.593  14.874  26.456  0.0209 -0.1597 -0.0091
  883BOLB   C1C21185  -0.144  14.828  26.681 -0.0194  0.1561 -0.1753
  883BOLB   C2C21186  -0.070  14.780  27.119 -0.0270 -0.0558 -0.0419
  883BOLB   C3C21187   0.079  14.742  27.400 -0.2752 -0.0191  0.0327
  883BOLB   C4C21188   0.441  14.561  27.645  0.1303  0.1187 -0.0338
  883BOLB   C1D21189  -0.598  15.041  26.927 -0.1310 -0.0376  0.3630
  883BOLB   C2D21190  -0.583  14.824  27.278  0.0678  0.1812  0.0167
  883BOLB   C3D21191  -0.464  15.041  27.694  0.3898 -0.1188 -0.1273
  883BOLB   C4D21192  -0.619  15.454  28.005 -0.4422 -0.0273 -0.0984
  884BOLB   NC121193  14.336  19.752   6.464  0.1180 -0.3398 -0.1190
  884BOLB   PO121194  14.717  19.463   6.257  0.0954  0.2485  0.0523
  884BOLB   GL121195  15.009  19.435   6.107  0.1334 -0.2623  0.1308
  884BOLB   GL221196  15.043  19.737   5.953  0.1214 -0.0786 -0.1172
  884BOLB   C1A21197  15.220  19.258   5.790 -0.0475  0.0231 -0.2002
  884BOLB   C2A21198  15.705  19.064   5.754  0.2529 -0.2456 -0.2779
  884BOLB   C3A21199  16.104  19.119   5.651 -0.1151 -0.0872  0.1648
  884BOLB   C4A21200  16.556  19.102   5.460  0.0432  0.4714 -0.0186
  884BOLB   C1B21201  15.487  19.725   5.764 -0.2530  0.0771 -0.1893
  884BOLB   C2B21202  15.891  19.674   5.563  0.1769  0.1227 -0.0101
  884BOLB   C3B21203  16.098  19.537   5.264 -0.1356  0.1143 -0.0292
  884BOLB   C4B21204  16.476  19.679   5.183  0.1504  0.2495 -0.1403
  884BOLB   NC221205  18.823  19.154   5.358 -0.1428  0.0346  0.1085
  884BOLB   PO221206  18.686  18.893   4.970  0.0030  0.4417 -0.1103
  884BOLB   GL321207  18.204  18.922   5.091 -0.1113 -0.1536  0.0857
  884BOLB   GL421208  18.042  19.151   4.965  0.0021  0.2952 -0.2626
  884BOLB   C1C21209  17.769  18.715   4.882  0.0481 -0.1384  0.6741
  884BOLB   C2C21210  17.466  18.501   4.949  0.4164  0.0301  0.0661
  884BOLB   C3C21211  16.993  18.683   5.014 -0.2647  0.0747 -0.1947
  884BOLB   C4C21212  16.691  18.704   5.285 -0.0039  0.0299  0.1010
  884BOLB   C1D21213  17.949  19.590   5.128 -0.2275  0.1704  0.2450
  884BOLB   C2D21214  17.568  19.756   5.081 -0.0896  0.1353  0.1328
  884BOLB   C3D21215  17.127  19.553   5.148  0.1334  0.2783 -0.0820
  884BOLB   C4D21216  17.005  19.138   5.157  0.0369  0.1225  0.0234
  885BOLB   NC121217  10.341  26.797  14.715 -0.1115  0.4481 -0.2192
  885BOLB   PO121218  10.306  27.251  14.921  0.1276 -0.0307 -0.0711
  885BOLB   GL121219  10.440  27.473  15.194  0.0339 -0.0735 -0.2932
  885BOLB   GL221220  10.694  27.372  15.356 -0.1064  0.0059  0.1107
  885BOLB   C1A21221  10.855  27.814  15.150 -0.1626  0.1005 -0.2126
  885BOLB   C2A21222  11.119  28.230  15.187 -0.0346 -0.2221  0.0162
  885BOLB   C3A21223  11.320  28.520  15.435 -0.1048  0.1373 -0.0742
  885BOLB   C4A21224  11.308  28.922  15.351  0.3501 -0.0550 -0.0110
  885BOLB   C1B21225  10.746  27.688  15.641 -0.2103  0.0310  0.0110
  885BOLB   C2B21226  10.855  27.989  16.055 -0.0126 -0.1849 -0.4357
  885BOLB   C3B21227  10.947  28.154  16.489 -0.2727 -0.1882  0.0420
  885BOLB   C4B21228  11.089  28.407  16.879  0.2442 -0.0140 -0.1489
  885BOLB   NC221229  12.479  31.003  16.260  0.0688 -0.2799 -0.3035
  885BOLB   PO221230  12.215  30.807  15.947 -0.0044 -0.1091 -0.0995
  885BOLB   GL321231  11.831  30.675  15.685  0.1412 -0.1384  0.0003
  885BOLB   GL421232  11.771  30.765  15.318  0.0620 -0.0391 -0.1567
  885BOLB   C1C21233  11.712  30.257  15.647 -0.0126  0.1401  0.1058
  885BOLB   C2C21234  11.622  29.856  15.622 -0.0158 -0.3834 -0.0202
  885BOLB   C3C21235  11.513  29.661  15.307 -0.1483 -0.0900 -0.0638
  885BOLB   C4C21236  11.452  29.251  15.048 -0.1449 -0.2328 -0.2461
  885BOLB   C1D21237  11.380  30.772  15.191  0.0171  0.0865 -0.1882
  885BOLB   C2D21238  11.022  30.644  15.160  0.2049 -0.5287  0.0791
  885BOLB   C3D21239  10.598  30.445  15.248 -0.1743  0.0914  0.1283
  885BOLB   C4D21240  10.443  30.008  15.059 -0.1070  0.4333  0.1130
  886BOLB   NC121241   9.069  17.852  17.179  0.0441  0.2095  0.2290
  886BOLB   PO121242   9.041  18.289  17.237  0.0131  0.0247  0.1932
  886BOLB   GL121243   9.285  18.027  17.577  0.0885 -0.1542 -0.1588
  886BOLB   GL221244   9.051  17.892  17.770 -0.1128  0.0069  0.1032
  886BOLB   C1A21245   9.521  17.850  17.733 -0.1730  0.4177 -0.1488
  886BOLB   C2A21246   9.552  17.507  18.020  0.2189 -0.0077 -0.2552
  886BOLB   C3A21247   9.702  17.244  18.035 -0.0124  0.1626  0.2761
  886BOLB   C4A21248   9.978  16.978  18.274  0.2899 -0.2731  0.0091
  886BOLB   C1B21249   8.992  17.614  18.027 -0.3216  0.1492  0.0075
  886BOLB   C2B21250   9.158  17.340  18.249  0.1350 -0.0531  0.0667
  886BOLB   C3B21251   9.226  17.045  18.482  0.0015 -0.1474 -0.1019
  886BOLB   C4B21252   9.139  16.778  18.870 -0.1687 -0.4878  0.2442
  886BOLB   NC221253  11.835  14.863  19.297 -0.0718  0.0477 -0.1961
  886BOLB   PO221254  11.796  15.294  19.345 -0.1153 -0.1066  0.0093
  886BOLB   GL321255  11.496  15.526  19.358  0.1569 -0.1111  0.0001
  886BOLB   GL421256  11.467  15.577  18.983 -0.3167 -0.1981 -0.1373
  886BOLB   C1C21257  11.054  15.763  19.280  0.1437  0.2010  0.2127
  886BOLB   C2C21258  10.728  16.053  19.000 -0.0271  0.1181 -0.4485
  886BOLB   C3C21259  10.502  16.327  18.723 -0.1529 -0.0921 -0.0354
  886BOLB   C4C21260  10.269  16.665  18.469 -0.1402  0.2257  0.0188
  886BOLB   C1D21261  11.509  15.962  18.685  0.0558  0.2907 -0.0380
  886BOLB   C2D21262  11.858  16.169  18.605 -0.1905  0.0729 -0.1291
  886BOLB   C3D21263  12.057  16.548  18.463  0.0061  0.0213  0.0395
  886BOLB   C4D21264  12.176  16.999  18.496  0.0233 -0.3967  0.0673
  887BOLB   NC121265  11.154  27.400   9.338 -0.0068 -0.2176  0.1017
  887BOLB   PO121266  11.296  27.237   8.956 -0.0543  0.1033 -0.1539
  887BOLB   GL121267  11.483  27.535   8.891  0.1056 -0.2060 -0.0476
  887BOLB   GL221268  11.547  27.642   9.190  0.0393  0.2083  0.0423
  887BOLB   C1A21269  11.559  27.894   8.748 -0.0360 -0.0835 -0.0165
  887BOLB   C2A21270  11.890  28.163   8.721 -0.2809  0.1738 -0.1701
  887BOLB   C3A21271  12.314  28.331   8.539 -0.1605 -0.1134 -0.1503
  887BOLB   C4A21272  12.367  28.567   8.262 -0.2200  0.0961 -0.0513
  887BOLB   C1B21273  11.944  27.817   9.139  0.1195  0.1875  0.5296
  887BOLB   C2B21274  12.271  28.010   9.105 -0.4821  0.3597  0.2960
  887BOLB   C3B21275  12.654  27.956   9.166  0.0315  0.0562 -0.0156
  887BOLB   C4B21276  13.023  27.984   9.100 -0.3622 -0.1104  0.1177
  887BOLB   NC221277  13.860  29.954   7.575 -0.2685 -0.2788  0.5611
  887BOLB   PO221278  13.889  29.911   7.124 -0.0627  0.1107 -0.4272
  887BOLB   GL321279  13.586  29.618   7.149 -0.1066 -0.1724 -0.2304
  887BOLB   GL421280  13.440  29.688   7.432  0.1397  0.0445  0.2402
  887BOLB   C1C21281  13.323  29.254   7.078  0.4325 -0.0316  0.2502
  887BOLB   C2C21282  13.124  28.996   7.380 -0.0450 -0.0814  0.0282
  887BOLB   C3C21283  12.835  28.879   7.563 -0.0564 -0.3691 -0.1590
  887BOLB   C4C21284  12.656  28.753   7.912  0.1820  0.2890  0.1516
  887BOLB   C1D21285  13.096  29.531   7.525  0.2930 -0.0790 -0.0510
  887BOLB   C2D21286  12.745  29.343   7.601 -0.1578  0.0570  0.0100
  887BOLB   C3D21287  12.370  29.198   7.827  0.1131  0.0985 -0.2962
  887BOLB   C4D21288  12.064  28.983   8.034 -0.0762 -0.0054 -0.0358
  888BOLB   NC121289  11.895  26.208  13.824  0.1776 -0.3416 -0.2163
  888BOLB   PO121290  12.220  26.063  14.221  0.0833  0.2849  0.2135
  888BOLB   GL121291  12.449  26.272  14.525 -0.0659  0.0737  0.1444
  888BOLB   GL221292  12.261  26.480  14.776 -0.1610  0.1700 -0.1204
  888BOLB   C1A21293  12.699  26.705  14.672 -0.0491  0.2870  0.0561
  888BOLB   C2A21294  12.672  26.882  14.999 -0.0621 -0.0141  0.0682
  888BOLB   C3A21295  12.719  27.169  15.332 -0.2424 -0.0983 -0.1814
  888BOLB   C4A21296  12.956  27.498  15.411  0.1108 -0.1440  0.1820
  888BOLB   C1B21297  12.626  26.331  15.016 -0.1445 -0.0804 -0.0342
  888BOLB   C2B21298  12.975  26.436  15.059 -0.0388 -0.1758  0.2614
  888BOLB   C3B21299  13.117  26.774  15.183  0.0339 -0.2789 -0.0927
  888BOLB   C4B21300  13.328  27.180  15.192 -0.1554 -0.2403  0.0763
  888BOLB   NC221301  13.116  29.982  15.839 -0.0937 -0.0693 -0.0194
  888BOLB   PO221302  13.153  29.736  16.085  0.0138 -0.2992  0.1997
  888BOLB   GL321303  12.851  29.384  15.888  0.0753 -0.2225  0.2716
  888BOLB   GL421304  12.672  29.599  15.748 -0.1224  0.0085  0.2554
  888BOLB   C1C21305  12.904  29.146  15.508 -0.0590 -0.1972 -0.0162
  888BOLB   C2C21306  12.748  28.725  15.338  0.1650 -0.0168  0.1183
  888BOLB   C3C21307  12.853  28.343  15.073 -0.2296 -0.1757  0.2139
  888BOLB   C4C21308  12.872  27.883  15.133  0.0005  0.0942  0.1175
  888BOLB   C1D21309  12.416  29.416  15.481 -0.0354  0.2389  0.0046
  888BOLB   C2D21310  12.281  28.979  15.530 -0.1183 -0.2215 -0.0079
  888BOLB   C3D21311  12.477  28.627  15.718  0.2165 -0.0641 -0.3321
  888BOLB   C4D21312  12.512  28.202  15.486  0.0953 -0.0130 -0.0893
  889BOLB   NC121313  11.696  24.481  16.258  0.0918  0.3189 -0.0646
  889BOLB   PO121314  11.893  24.069  16.135  0.0870  0.3033 -0.1846
  889BOLB   GL121315  12.149  24.134  16.415 -0.0095  0.3331  0.1098
  889BOLB   GL221316  12.192  24.513  16.368  0.3556  0.0395 -0.2896
  889BOLB   C1A21317  12.420  23.949  16.840  0.0685 -0.0381  0.2748
  889BOLB   C2A21318  12.814  23.907  17.140 -0.0209 -0.1570  0.3128
  889BOLB   C3A21319  13.051  23.920  17.423 -0.0876  0.0227  0.1130
  889BOLB   C4A21320  13.452  23.874  17.547  0.0195  0.1520  0.1334
  889BOLB   C1B21321  12.510  24.749  16.468  0.1563  0.1593 -0.0043
  889BOLB   C2B21322  12.754  24.735  16.819 -0.0473  0.0860  0.3710
  889BOLB   C3B21323  13.123  24.973  16.899  0.1487  0.1088 -0.1299
  889BOLB   C4B21324  13.303  25.251  17.194 -0.1796  0.0312 -0.2107
  889BOLB   NC221325  15.745  24.355  18.769 -0.1667  0.0828  0.1296
  889BOLB   PO221326  15.544  24.199  19.084 -0.0387  0.0834 -0.0646
  889BOLB   GL321327  15.126  24.267  18.921 -0.1578 -0.0249  0.0823
  889BOLB   GL421328  15.177  24.529  18.802  0.1565 -0.0064 -0.1694
  889BOLB   C1C21329  14.821  24.250  18.615  0.0603 -0.1163  0.1272
  889BOLB   C2C21330  14.721  24.036  18.228 -0.1190  0.0899 -0.1208
  889BOLB   C3C21331  14.192  24.071  18.076 -0.0605  0.0313  0.0996
  889BOLB   C4C21332  13.855  23.986  17.837  0.1595  0.1182 -0.0682
  889BOLB   C1D21333  15.090  24.773  18.412  0.0915  0.3094 -0.4286
  889BOLB   C2D21334  14.783  25.093  18.076  0.0395  0.2603  0.0032
  889BOLB   C3D21335  14.418  24.980  17.854 -0.0212 -0.1848 -0.2439
  889BOLB   C4D21336  13.980  24.899  17.645 -0.2733  0.0166 -0.0218
  890BOLB   NC121337   7.259  28.947  11.178 -0.2341 -0.0820  0.0545
  890BOLB   PO121338   7.095  29.113  11.689  0.0324  0.1961  0.0622
  890BOLB   GL121339   7.048  29.523  11.779 -0.1503  0.2378 -0.3844
  890BOLB   GL221340   6.802  29.481  11.988  0.0384 -0.1958  0.1075
  890BOLB   C1A21341   6.888  30.006  11.645  0.0743 -0.0709  0.0715
  890BOLB   C2A21342   6.961  30.364  11.691 -0.0327 -0.0070  0.0886
  890BOLB   C3A21343   6.978  30.868  11.728  0.0564  0.2465  0.0139
  890BOLB   C4A21344   6.908  31.240  11.594 -0.3348 -0.0668 -0.0196
  890BOLB   C1B21345   6.881  29.908  12.089 -0.3510  0.1009 -0.1048
  890BOLB   C2B21346   6.861  30.379  12.206 -0.3701 -0.0105  0.0014
  890BOLB   C3B21347   7.037  30.751  12.250 -0.4449 -0.1521 -0.1553
  890BOLB   C4B21348   7.145  31.209  12.100 -0.1286 -0.3572  0.1767
  890BOLB   NC221349   6.182  33.699  10.762  0.2194  0.0713 -0.0194
  890BOLB   PO221350   5.872  33.458  10.928  0.0827 -0.1393 -0.2891
  890BOLB   GL321351   5.866  32.933  10.942 -0.0524  0.0499  0.0470
  890BOLB   GL421352   5.633  32.749  10.767 -0.1841 -0.0685 -0.0257
  890BOLB   C1C21353   6.082  32.631  11.139  0.0070  0.0270 -0.1231
  890BOLB   C2C21354   6.361  32.202  11.206  0.2727 -0.0746 -0.1124
  890BOLB   C3C21355   6.500  31.915  11.635 -0.1107 -0.0620  0.2833
  890BOLB   C4C21356   6.953  31.687  11.664 -0.0487 -0.2727  0.1978
  890BOLB   C1D21357   5.330  32.595  11.043  0.1340  0.5083  0.1451
  890BOLB   C2D21358   5.168  32.129  11.162  0.1787 -0.2487  0.3155
  890BOLB   C3D21359   5.047  31.783  11.352  0.0844 -0.1016 -0.1383
  890BOLB   C4D21360   5.007  31.448  11.646  0.0225  0.0527  0.2269
  891BOLB   NC121361   1.131  26.761   9.134  0.2497 -0.1648  0.2239
  891BOLB   PO121362   0.888  26.520   8.962  0.1877  0.2148  0.0440
  891BOLB   GL121363   0.749  26.977   8.866 -0.4637  0.0490 -0.1097
  891BOLB   GL221364   0.801  26.996   8.496  0.1947 -0.0027  0.0571
  891BOLB   C1A21365   0.524  27.327   8.718 -0.2604  0.1779  0.0359
  891BOLB   C2A21366   0.257  27.719   8.698 -0.3301  0.0326 -0.0126
  891BOLB   C3A21367  -0.016  27.887   8.464 -0.3052 -0.0064  0.0408
  891BOLB   C4A21368  -0.205  28.174   8.238 -0.1061 -0.1631 -0.0270
  891BOLB   C1B21369   0.301  27.007   8.348 -0.1575 -0.1950  0.1246
  891BOLB   C2B21370   0.104  27.177   8.094 -0.1705 -0.0340 -0.2014
  891BOLB   C3B21371   0.164  27.001   7.705 -0.0858 -0.3093 -0.2118
  891BOLB   C4B21372   0.172  27.119   7.241 -0.1751 -0.1493 -0.1419
  891BOLB   NC221373  -1.006  28.797   5.997 -0.1421 -0.0053 -0.1157
  891BOLB   PO221374  -1.124  29.022   6.374  0.3330  0.1423 -0.1035
  891BOLB   GL321375  -0.914  28.867   6.582  0.4201 -0.1319  0.1280
  891BOLB   GL421376  -0.681  28.706   6.355  0.1071  0.0106  0.0416
  891BOLB   C1C21377  -0.846  28.726   6.996 -0.0302  0.0171 -0.0091
  891BOLB   C2C21378  -0.783  28.564   7.309 -0.0669  0.1562 -0.1557
  891BOLB   C3C21379  -0.656  28.474   7.694  0.2560 -0.1450  0.1012
  891BOLB   C4C21380  -0.343  28.399   7.908 -0.2310  0.1286 -0.1053
  891BOLB   C1D21381  -0.479  28.382   6.593 -0.0824  0.1314  0.1408
  891BOLB   C2D21382  -0.083  28.295   6.862  0.0906  0.0770 -0.0855
  891BOLB   C3D21383   0.385  28.097   6.896 -0.1844  0.0737  0.1036
  891BOLB   C4D21384   0.716  27.779   6.866 -0.0372  0.1430 -0.1242
  892BOLB   NC121385  37.348   6.963   9.490 -0.0448 -0.1874 -0.2661
  892BOLB   PO121386  37.129   7.020   9.801  0.2253  0.1759 -0.0284
  892BOLB   GL121387  37.177   7.495   9.606 -0.1825  0.3622 -0.3656
  892BOLB   GL221388  37.229   7.489   9.325  0.0919 -0.4073  0.0038
  892BOLB   C1A21389  37.194   7.929   9.597 -0.1467 -0.2043  0.2146
  892BOLB   C2A21390  37.493   8.342   9.591 -0.1437  0.1697  0.0607
  892BOLB   C3A21391  37.716   8.651   9.419  0.1400  0.2014 -0.0268
  892BOLB   C4A21392  37.574   8.800   9.104 -0.0641  0.3195 -0.2272
  892BOLB   C1B21393  37.575   7.704   9.329 -0.0504 -0.1141 -0.1901
  892BOLB   C2B21394  37.979   7.948   9.305 -0.0168 -0.2106 -0.3041
  892BOLB   C3B21395  38.299   8.293   9.423  0.0106  0.2548  0.1745
  892BOLB   C4B21396  38.530   8.441   9.843 -0.1650 -0.0841 -0.3865
  892BOLB   NC221397  36.241   7.284   8.120  0.0571  0.2926 -0.3416
  892BOLB   PO221398  36.214   7.633   8.378  0.0879 -0.1557 -0.1268
  892BOLB   GL321399  36.276   8.109   8.307 -0.0928 -0.0353  0.1201
  892BOLB   GL421400  36.565   8.087   8.254  0.2329  0.1228 -0.2656
  892BOLB   C1C21401  36.340   8.555   8.302 -0.0595  0.0394 -0.1942
  892BOLB   C2C21402  36.647   8.919   8.316 -0.0255  0.2054 -0.0165
  892BOLB   C3C21403  37.122   8.834   8.401  0.0107  0.0935  0.1154
  892BOLB   C4C21404  37.467   8.783   8.652 -0.3273  0.0403 -0.2011
  892BOLB   C1D21405  36.824   8.410   8.492 -0.3266  0.0813 -0.0140
  892BOLB   C2D21406  36.802   8.771   8.780 -0.0453  0.2852  0.0225
  892BOLB   C3D21407  36.545   8.987   9.132  0.2024 -0.1083 -0.1411
  892BOLB   C4D21408  36.563   9.004   9.462 -0.1756 -0.0322 -0.1296
  893BOLB   NC121409   8.771  15.463  25.735  0.4208  0.0512  0.2397
  893BOLB   PO121410   8.277  15.420  25.849 -0.0631  0.1063 -0.1250
  893BOLB   GL121411   8.459  15.718  26.102  0.2601 -0.0476 -0.2052
  893BOLB   GL221412   8.775  15.819  26.095 -0.3388  0.2821 -0.1349
  893BOLB   C1A21413   8.694  15.989  26.498  0.0019  0.3594  0.0214
  893BOLB   C2A21414   8.772  16.351  26.895  0.1027  0.1573  0.1418
  893BOLB   C3A21415   8.656  16.631  27.027  0.0514 -0.0098  0.0473
  893BOLB   C4A21416   9.086  16.888  27.192  0.1693  0.4059  0.2446
  893BOLB   C1B21417   9.163  15.940  26.282 -0.4565  0.0384 -0.2512
  893BOLB   C2B21418   9.309  16.175  26.557 -0.1165 -0.1091 -0.1433
  893BOLB   C3B21419   9.268  16.462  26.891 -0.0932  0.1800  0.1398
  893BOLB   C4B21420   9.453  16.516  27.228 -0.2261 -0.1936  0.2818
  893BOLB   NC221421  10.422  17.838  24.927 -0.2894  0.0354  0.0254
  893BOLB   PO221422  10.083  17.553  25.164  0.0954 -0.0770  0.0819
  893BOLB   GL321423  10.042  17.780  25.574  0.3484 -0.0334 -0.1122
  893BOLB   GL421424   9.766  18.003  25.411 -0.0752 -0.4755  0.3246
  893BOLB   C1C21425   9.846  17.957  25.900  0.1623 -0.2026 -0.4368
  893BOLB   C2C21426   9.805  17.892  26.406 -0.3806 -0.2158 -0.3551
  893BOLB   C3C21427   9.499  17.652  26.632 -0.2611  0.2060  0.1488
  893BOLB   C4C21428   9.402  17.252  27.010  0.1083  0.0655  0.0642
  893BOLB   C1D21429   9.409  17.822  25.639  0.1253 -0.3640 -0.0912
  893BOLB   C2D21430   9.179  17.360  25.733  0.0527 -0.0647  0.4011
  893BOLB   C3D21431   9.013  17.340  26.089 -0.2804  0.4882 -0.3063
  893BOLB   C4D21432   9.237  17.278  26.496  0.3689 -0.1500 -0.0290
  894BOLB   NC121433  11.881  22.024  16.868 -0.0123 -0.4152 -0.3253
  894BOLB   PO121434  11.552  22.143  17.185 -0.1941  0.1394 -0.3050
  894BOLB   GL121435  11.946  22.077  17.419 -0.0454 -0.2371  0.0662
  894BOLB   GL221436  11.807  22.078  17.721  0.0254  0.2561 -0.0109
  894BOLB   C1A21437  12.292  22.081  17.549 -0.1410  0.0118  0.4758
  894BOLB   C2A21438  12.695  21.826  17.781 -0.3765  0.1758 -0.2483
  894BOLB   C3A21439  13.072  21.918  17.955 -0.1081 -0.0234  0.0678
  894BOLB   C4A21440  13.306  22.059  18.415 -0.0580  0.1895  0.0634
  894BOLB   C1B21441  11.928  22.015  18.158 -0.3010 -0.0246  0.0315
  894BOLB   C2B21442  12.187  21.931  18.547 -0.0491  0.3288 -0.1320
  894BOLB   C3B21443  12.514  21.867  18.713 -0.2442 -0.1646  0.0185
  894BOLB   C4B21444  12.527  21.463  18.639 -0.1220  0.1590  0.1179
  894BOLB   NC221445  14.442  21.131  19.891  0.1281  0.2204 -0.0062
  894BOLB   PO221446  14.858  21.178  19.882  0.0639 -0.0547  0.0025
  894BOLB   GL321447  14.847  21.032  19.458 -0.0641 -0.3022 -0.0373
  894BOLB   GL421448  15.127  21.039  19.235 -0.0086  0.5375  0.1708
  894BOLB   C1C21449  14.604  21.226  19.055  0.2115  0.4213  0.0022
  894BOLB   C2C21450  14.396  21.381  18.760 -0.2380 -0.0300 -0.0249
  894BOLB   C3C21451  13.879  21.542  18.765 -0.0910  0.3961  0.1092
  894BOLB   C4C21452  13.535  21.864  18.723 -0.0266 -0.2431 -0.0013
  894BOLB   C1D21453  14.932  20.867  18.909 -0.1081  0.0725  0.1487
  894BOLB   C2D21454  14.909  20.755  18.397  0.0376  0.1626  0.0391
  894BOLB   C3D21455  14.737  20.707  18.067  0.0719  0.0204 -0.3626
  894BOLB   C4D21456  14.531  20.690  17.618 -0.0134 -0.1267  0.3274
  895BOLB   NC121457   3.740  27.392   6.661  0.2847 -0.0145 -0.1005
  895BOLB   PO121458   3.651  27.032   6.399  0.0867 -0.1726 -0.0996
  895BOLB   GL121459   3.537  27.413   6.176 -0.0064 -0.0234 -0.1487
  895BOLB   GL221460   3.642  27.226   5.910 -0.0586 -0.1396 -0.2914
  895BOLB   C1A21461   3.415  27.766   5.935 -0.1690  0.0970 -0.0392
  895BOLB   C2A21462   3.585  28.042   5.724 -0.1843 -0.1949  0.0594
  895BOLB   C3A21463   3.888  28.411   5.620  0.0818 -0.1706 -0.1634
  895BOLB   C4A21464   3.721  28.716   5.398  0.1067 -0.0058  0.1097
  895BOLB   C1B21465   3.941  27.490   5.788  0.1002  0.0378 -0.1783
  895BOLB   C2B21466   3.957  27.814   5.542 -0.0271 -0.1108 -0.2424
  895BOLB   C3B21467   3.671  27.998   5.230 -0.0614  0.0893  0.0922
  895BOLB   C4B21468   3.446  28.277   5.204  0.0880  0.0234  0.1221
  895BOLB   NC221469   2.541  30.021   4.043 -0.0975 -0.1356  0.0367
  895BOLB   PO221470   2.807  30.400   3.975  0.3325 -0.0036  0.0951
  895BOLB   GL321471   3.032  30.041   4.245 -0.0473 -0.1454 -0.3686
  895BOLB   GL421472   3.015  30.070   4.645  0.1090 -0.0777 -0.0793
  895BOLB   C1C21473   3.053  29.645   4.457  0.2841  0.3038 -0.1101
  895BOLB   C2C21474   3.103  29.594   4.871  0.3090  0.0043 -0.0543
  895BOLB   C3C21475   3.403  29.237   4.999 -0.6095  0.1090 -0.0746
  895BOLB   C4C21476   3.531  29.037   5.160  0.2212 -0.1562 -0.2558
  895BOLB   C1D21477   2.790  29.998   4.983  0.0969 -0.0141  0.4643
  895BOLB   C2D21478   2.751  29.596   5.232 -0.0186 -0.1538 -0.1385
  895BOLB   C3D21479   3.024  29.294   5.307 -0.0119  0.4940  0.1670
  895BOLB   C4D21480   3.168  28.853   5.468  0.0015  0.2162  0.1687
  896BOLB   NC121481   7.539  13.459   8.784 -0.0333  0.1530 -0.3243
  896BOLB   PO121482   7.404  12.982   8.585 -0.0573 -0.2585 -0.3601
  896BOLB   GL121483   7.463  12.524   8.872  0.5223  0.0582  0.0028
  896BOLB   GL221484   7.245  12.322   8.996 -0.1078  0.0481 -0.0175
  896BOLB   C1A21485   7.798  12.216   9.027 -0.0832 -0.4386  0.1649
  896BOLB   C2A21486   7.761  11.829   9.159 -0.1320 -0.0099 -0.1633
  896BOLB   C3A21487   7.630  11.527   9.482  0.0545 -0.1612 -0.0127
  896BOLB   C4A21488   7.503  11.021   9.503 -0.3377 -0.2235  0.2670
  896BOLB   C1B21489   7.056  11.932   8.822 -0.1140 -0.0102 -0.2341
  896BOLB   C2B21490   6.771  11.547   8.689  0.1780  0.0782  0.1510
  896BOLB   C3B21491   6.320  11.633   8.699  0.2107  0.1559 -0.1675
  896BOLB   C4B21492   5.917  11.743   8.690 -0.0571 -0.2551  0.0323
  896BOLB   NC221493   6.778   8.726   9.872  0.0932  0.0522  0.0364
  896BOLB   PO221494   6.618   9.163   9.675  0.2546 -0.0022 -0.1367
  896BOLB   GL321495   6.567   9.485   9.577 -0.0533  0.0545  0.0369
  896BOLB   GL421496   6.410   9.533   9.346 -0.1374  0.3007 -0.1745
  896BOLB   C1C21497   6.785   9.797   9.260 -0.2339 -0.2516 -0.1505
  896BOLB   C2C21498   6.700  10.209   9.177 -0.1801  0.0461 -0.0690
  896BOLB   C3C21499   6.771  10.623   9.104  0.2915 -0.0630  0.0399
  896BOLB   C4C21500   7.143  10.763   9.218  0.0951  0.3609  0.0512
  896BOLB   C1D21501   6.329   9.901   9.398  0.2136  0.0472  0.0584
  896BOLB   C2D21502   6.310  10.079   9.687  0.1060 -0.1780 -0.0026
  896BOLB   C3D21503   6.635  10.091   9.851  0.3441 -0.0355  0.1838
  896BOLB   C4D21504   7.135   9.873   9.721 -0.1069  0.0894 -0.3060
  897BOLB   NC121505   9.807  15.787   4.542  0.0023 -0.3060 -0.1133
  897BOLB   PO121506   9.493  15.919   4.256 -0.2601  0.0769  0.0181
  897BOLB   GL121507   9.585  15.532   4.176  0.0502 -0.1220 -0.0514
  897BOLB   GL221508   9.826  15.499   4.102 -0.2027 -0.3103 -0.0091
  897BOLB   C1A21509   9.544  15.241   3.861 -0.1661 -0.1392 -0.0568
  897BOLB   C2A21510   9.755  15.309   3.460  0.1497 -0.0657 -0.0051
  897BOLB   C3A21511   9.834  15.440   3.120 -0.1788 -0.1374  0.0365
  897BOLB   C4A21512  10.190  15.409   2.781  0.1090 -0.2168  0.0701
  897BOLB   C1B21513  10.187  15.465   3.840 -0.3263  0.5178  0.0803
  897BOLB   C2B21514  10.252  15.290   3.526  0.1070 -0.2686 -0.2139
  897BOLB   C3B21515  10.190  15.064   3.150  0.2639 -0.1340  0.1784
  897BOLB   C4B21516  10.391  14.836   2.873 -0.2258  0.0363 -0.1305
  897BOLB   NC221517  11.712  14.642   0.874 -0.0656  0.2409  0.0418
  897BOLB   PO221518  12.051  14.550   1.156 -0.1017  0.1240  0.2277
  897BOLB   GL321519  11.739  14.689   1.457 -0.5459  0.2327  0.1894
  897BOLB   GL421520  11.960  14.808   1.656 -0.0983  0.3343  0.1734
  897BOLB   C1C21521  11.497  14.842   1.876 -0.0188 -0.2084 -0.2961
  897BOLB   C2C21522  11.272  15.200   2.074  0.0273  0.2639 -0.3509
  897BOLB   C3C21523  10.871  15.341   2.179  0.1467  0.0328  0.3278
  897BOLB   C4C21524  10.583  15.424   2.428 -0.0698 -0.2951 -0.0090
  897BOLB   C1D21525  11.870  15.169   2.003 -0.0262 -0.0895  0.2072
  897BOLB   C2D21526  11.668  15.471   2.186 -0.0570 -0.4307  0.1172
  897BOLB   C3D21527  11.602  15.681   2.673 -0.3171 -0.1810  0.4306
  897BOLB   C4D21528  11.386  15.657   3.094 -0.2268 -0.2733  0.1331
  898BOLB   NC121529   2.138  20.807  17.031  0.0155  0.0796 -0.0518
  898BOLB   PO121530   1.763  21.034  17.004 -0.0968 -0.0931  0.1144
  898BOLB   GL121531   1.416  20.909  17.281 -0.0919  0.1658 -0.2040
  898BOLB   GL221532   1.154  21.071  17.453  0.2482 -0.1891  0.1595
  898BOLB   C1A21533   1.417  20.688  17.691  0.4048 -0.1400 -0.1490
  898BOLB   C2A21534   1.443  20.661  18.087  0.1185  0.0743 -0.0389
  898BOLB   C3A21535   1.114  20.745  18.326  0.0922  0.0959 -0.1519
  898BOLB   C4A21536   0.754  20.933  18.421 -0.0332  0.1895  0.2523
  898BOLB   C1B21537   0.891  20.751  17.691 -0.0955 -0.0319 -0.3086
  898BOLB   C2B21538   0.569  20.672  17.996 -0.1063 -0.1112 -0.1246
  898BOLB   C3B21539   0.111  20.632  17.993  0.0255  0.0625  0.0524
  898BOLB   C4B21540  -0.248  20.316  18.006 -0.0948  0.3680 -0.4179
  898BOLB   NC221541  -0.568  21.688  20.361 -0.0384  0.0186 -0.5050
  898BOLB   PO221542  -0.465  22.170  20.103 -0.1029 -0.0606  0.2402
  898BOLB   GL321543  -0.429  21.970  19.708 -0.3041  0.0348 -0.0216
  898BOLB   GL421544  -0.406  21.590  19.840  0.0583 -0.0118  0.0257
  898BOLB   C1C21545  -0.209  21.828  19.377 -0.0449  0.0916  0.1621
  898BOLB   C2C21546  -0.070  21.778  19.040  0.0860 -0.3216  0.1467
  898BOLB   C3C21547   0.348  21.557  18.799 -0.3379 -0.0205  0.0557
  898BOLB   C4C21548   0.676  21.322  18.644 -0.1305  0.1062 -0.0295
  898BOLB   C1D21549  -0.060  21.427  19.609 -0.0678  0.1645  0.3900
  898BOLB   C2D21550   0.035  21.347  19.243 -0.1180  0.0326 -0.0775
  898BOLB   C3D21551   0.323  21.010  18.967 -0.2972  0.0951 -0.3264
  898BOLB   C4D21552   0.644  20.778  18.863 -0.2649 -0.0550  0.1490
  899BOLB   NC121553   0.449  23.759  15.513  0.1119 -0.1045  0.1541
  899BOLB   PO121554   0.741  23.410  15.625  0.0710 -0.4261  0.1219
  899BOLB   GL121555   0.478  23.432  16.009  0.0728  0.1534  0.1149
  899BOLB   GL221556   0.310  23.215  16.199 -0.0661 -0.2317  0.4287
  899BOLB   C1A21557   0.151  23.718  16.057  0.0071 -0.0161  0.1671
  899BOLB   C2A21558  -0.211  23.643  16.214  0.2397  0.2156  0.1326
  899BOLB   C3A21559  -0.583  23.503  16.412 -0.1353 -0.2676 -0.1811
  899BOLB   C4A21560  -1.039  23.544  16.504 -0.0210  0.0055  0.1819
  899BOLB   C1B21561  -0.068  23.274  15.907  0.1902  0.1094 -0.0627
  899BOLB   C2B21562  -0.538  23.274  15.797 -0.0710  0.1593 -0.1816
  899BOLB   C3B21563  -0.906  23.404  15.947  0.0785  0.0389 -0.1042
  899BOLB   C4B21564  -1.296  23.538  16.048 -0.0555 -0.1721 -0.1010
  899BOLB   NC221565  -3.083  23.485  17.722  0.2035 -0.0699 -0.2730
  899BOLB   PO221566  -3.027  23.114  17.968  0.0758 -0.0004  0.0236
  899BOLB   GL321567  -2.728  22.946  17.734 -0.0499  0.0704 -0.1068
  899BOLB   GL421568  -2.762  23.162  17.525  0.2034  0.1973 -0.1331
  899BOLB   C1C21569  -2.344  22.886  17.480  0.2205 -0.2926 -0.1621
  899BOLB   C2C21570  -1.921  23.046  17.260 -0.0679  0.0715  0.1566
  899BOLB   C3C21571  -1.730  23.295  16.867 -0.3407  0.0496 -0.0290
  899BOLB   C4C21572  -1.378  23.223  16.593 -0.3002 -0.2396  0.0113
  899BOLB   C1D21573  -2.407  23.359  17.380 -0.2683 -0.2068  0.7356
  899BOLB   C2D21574  -2.238  23.368  16.996  0.0838  0.2354 -0.2440
  899BOLB   C3D21575  -2.397  23.329  16.640  0.1506 -0.0401  0.1823
  899BOLB   C4D21576  -2.587  23.036  16.422  0.0802  0.1105  0.1903
  900BOLB   NC121577  11.426  15.479   8.772 -0.0190 -0.0228  0.2740
  900BOLB   PO121578  11.342  15.218   9.023  0.0260 -0.1746 -0.0526
  900BOLB   GL121579  11.652  14.926   9.100 -0.0671 -0.3003 -0.1979
  900BOLB   GL221580  11.702  14.676   9.378  0.2907 -0.1283 -0.0842
  900BOLB   C1A21581  12.048  14.788   9.039 -0.1195 -0.2624 -0.0434
  900BOLB   C2A21582  12.383  14.499   8.826 -0.2301  0.1214  0.0907
  900BOLB   C3A21583  12.607  14.289   8.632 -0.1423 -0.0569  0.1077
  900BOLB   C4A21584  12.877  13.930   8.790  0.0882 -0.1079 -0.1602
  900BOLB   C1B21585  11.963  14.252   9.270 -0.1985 -0.0013  0.0680
  900BOLB   C2B21586  12.301  13.979   9.113 -0.0778  0.1681 -0.0664
  900BOLB   C3B21587  12.544  13.703   9.110  0.0077 -0.1045 -0.2138
  900BOLB   C4B21588  12.836  13.376   9.039 -0.0730  0.1493  0.0534
  900BOLB   NC221589  14.681  11.820   8.923  0.1170  0.0439  0.1379
  900BOLB   PO221590  14.692  12.249   8.679  0.1030 -0.2455  0.0277
  900BOLB   GL321591  14.360  12.517   8.564  0.0112  0.2162 -0.1668
  900BOLB   GL421592  14.189  12.228   8.583  0.1459  0.2613 -0.3425
  900BOLB   C1C21593  14.210  12.965   8.481  0.0701  0.0620 -0.0354
  900BOLB   C2C21594  13.890  13.349   8.453  0.0742  0.1864 -0.1588
  900BOLB   C3C21595  13.409  13.422   8.504  0.0119  0.1879  0.1717
  900BOLB   C4C21596  13.170  13.657   8.792  0.1089 -0.0531  0.0087
  900BOLB   C1D21597  13.919  12.540   8.381 -0.0059  0.1250  0.2669
  900BOLB   C2D21598  13.688  12.873   8.427  0.1103 -0.1731  0.2109
  900BOLB   C3D21599  13.566  13.186   8.094 -0.0743 -0.0440 -0.2231
  900BOLB   C4D21600  13.622  13.172   7.685 -0.2501  0.1564  0.4113
  901BOLB   NC121601  37.758  25.066   9.204  0.1456  0.3490 -0.0810
  901BOLB   PO121602  37.777  25.398   9.473 -0.0554  0.0857  0.0618
  901BOLB   GL121603  37.581  25.540   9.187  0.0028 -0.2635  0.0221
  901BOLB   GL221604  37.483  25.386   8.953 -0.1466 -0.0389  0.1107
  901BOLB   C1A21605  37.382  25.914   9.193 -0.1594  0.0989  0.2709
  901BOLB   C2A21606  36.991  26.279   9.228 -0.1428  0.2440 -0.0838
  901BOLB   C3A21607  37.050  26.525   9.605 -0.0111  0.1677 -0.0175
  901BOLB   C4A21608  36.851  26.738   9.982 -0.0654  0.3067  0.0049
  901BOLB   C1B21609  37.097  25.552   8.978 -0.0712 -0.0659  0.0949
  901BOLB   C2B21610  36.775  25.794   9.076 -0.0207 -0.1643 -0.0069
  901BOLB   C3B21611  36.516  26.150   8.919  0.0828 -0.0865  0.0771
  901BOLB   C4B21612  36.463  26.598   9.016 -0.0750 -0.0769  0.3218
  901BOLB   NC221613  35.822  29.060  10.778  0.1781  0.2912 -0.1205
  901BOLB   PO221614  36.003  29.027  10.477 -0.0462  0.1422  0.1106
  901BOLB   GL321615  36.127  28.669  10.419  0.0495 -0.0677 -0.0600
  901BOLB   GL421616  36.412  28.706  10.466  0.2880 -0.1569  0.0561
  901BOLB   C1C21617  36.101  28.163  10.448  0.0507 -0.0772  0.1850
  901BOLB   C2C21618  36.485  27.923  10.260 -0.2264 -0.0811 -0.2220
  901BOLB   C3C21619  36.598  27.626   9.941 -0.2517  0.1730  0.2150
  901BOLB   C4C21620  36.693  27.054  10.018  0.0476 -0.0767 -0.1475
  901BOLB   C1D21621  36.648  28.397  10.395 -0.2739 -0.2804  0.0264
  901BOLB   C2D21622  36.935  28.105  10.383 -0.1544  0.1512 -0.1631
  901BOLB   C3D21623  37.000  27.613  10.307 -0.1025  0.0603  0.1857
  901BOLB   C4D21624  37.019  27.107  10.457  0.2569  0.0252 -0.0352
  902BOLB   NC121625  12.151  17.912  15.002 -0.0130  0.1985 -0.2112
  902BOLB   PO121626  11.956  17.501  15.156 -0.1581  0.0512  0.2793
  902BOLB   GL121627  12.077  17.276  15.425  0.1714 -0.1418 -0.0345
  902BOLB   GL221628  11.936  17.378  15.763  0.4697  0.4289 -0.2817
  902BOLB   C1A21629  12.443  17.079  15.568 -0.2108 -0.2484 -0.1461
  902BOLB   C2A21630  12.670  17.076  15.867 -0.1133  0.0360  0.0756
  902BOLB   C3A21631  12.668  17.049  16.260 -0.0927 -0.1312  0.2164
  902BOLB   C4A21632  12.889  17.106  16.674 -0.1691 -0.1476 -0.1369
  902BOLB   C1B21633  12.195  17.047  15.970  0.2605  0.0889 -0.0141
  902BOLB   C2B21634  12.265  16.650  16.007  0.2417  0.1351  0.2569
  902BOLB   C3B21635  12.671  16.560  16.229 -0.1769  0.0755 -0.4939
  902BOLB   C4B21636  13.094  16.594  16.405  0.1202  0.0825 -0.0561
  902BOLB   NC221637  13.273  14.366  17.260  0.0541 -0.0646  0.0487
  902BOLB   PO221638  13.366  14.863  17.478 -0.0091 -0.2340  0.0104
  902BOLB   GL321639  13.161  15.164  17.572  0.0170 -0.0050 -0.0852
  902BOLB   GL421640  12.934  15.120  17.799  0.0612  0.1588 -0.1767
  902BOLB   C1C21641  12.950  15.452  17.245  0.1149  0.1114  0.2561
  902BOLB   C2C21642  13.021  15.906  16.982 -0.0878 -0.4852  0.0139
  902BOLB   C3C21643  13.003  16.477  17.040  0.2920 -0.1068  0.0873
  902BOLB   C4C21644  13.177  16.840  16.928  0.1053  0.3504 -0.0321
  902BOLB   C1D21645  12.522  15.187  17.923  0.0678 -0.0153 -0.0332
  902BOLB   C2D21646  12.091  15.385  17.738  0.0560  0.2740  0.0255
  902BOLB   C3D21647  11.865  15.402  17.359 -0.0546  0.2173 -0.3478
  902BOLB   C4D21648  11.556  15.752  17.275  0.1266 -0.2653 -0.0422
  903BOLB   NC121649  15.172  20.809   9.876 -0.0854  0.0181 -0.0189
  903BOLB   PO121650  15.101  21.198  10.082 -0.0119  0.2911  0.3766
  903BOLB   GL121651  15.432  21.185  10.260 -0.0898 -0.2046  0.1318
  903BOLB   GL221652  15.565  20.920  10.119 -0.1935  0.2119  0.1719
  903BOLB   C1A21653  15.841  21.436  10.326 -0.2121 -0.0205  0.0341
  903BOLB   C2A21654  16.239  21.458  10.489  0.4150 -0.1909 -0.0744
  903BOLB   C3A21655  16.554  21.516  10.633  0.1830  0.0603  0.4724
  903BOLB   C4A21656  16.942  21.564  10.861  0.1390  0.0026 -0.3783
  903BOLB   C1B21657  15.946  20.757  10.031  0.0677  0.0124 -0.2201
  903BOLB   C2B21658  16.069  20.466   9.654  0.2532  0.0383  0.1391
  903BOLB   C3B21659  16.405  20.191   9.358  0.1757 -0.3094  0.0122
  903BOLB   C4B21660  16.788  20.017   9.410 -0.2824 -0.2204  0.2085
  903BOLB   NC221661  18.993  22.059  10.989 -0.0128  0.1795 -0.0612
  903BOLB   PO221662  18.955  21.612  11.110  0.0527  0.1325  0.1180
  903BOLB   GL321663  18.579  21.634  11.097 -0.6838 -0.0383 -0.2110
  903BOLB   GL421664  18.531  21.465  10.854 -0.1456  0.1518  0.1962
  903BOLB   C1C21665  18.105  21.542  11.349  0.2701  0.2845 -0.1622
  903BOLB   C2C21666  17.782  21.710  11.609 -0.0977 -0.1100 -0.1014
  903BOLB   C3C21667  17.332  21.601  11.638  0.1095 -0.1750 -0.1869
  903BOLB   C4C21668  17.002  21.555  11.329  0.0669 -0.2330  0.1952
  903BOLB   C1D21669  18.249  21.098  10.632 -0.4138 -0.1940  0.0642
  903BOLB   C2D21670  17.902  21.128  10.363 -0.2367  0.1692 -0.1091
  903BOLB   C3D21671  17.511  21.316  10.301 -0.3268  0.2036  0.2441
  903BOLB   C4D21672  17.385  21.490  10.049  0.1832  0.0009  0.0518
  904BOLB   NC121673  12.412  17.977   4.304  0.2561 -0.1967 -0.1498
  904BOLB   PO121674  12.772  18.296   4.372 -0.0928  0.1365 -0.0928
  904BOLB   GL121675  12.821  18.327   3.944  0.0860  0.1510  0.0344
  904BOLB   GL221676  13.020  18.581   3.944 -0.0704 -0.1457  0.0317
  904BOLB   C1A21677  12.895  18.097   3.619 -0.2660  0.3208  0.2732
  904BOLB   C2A21678  12.848  17.779   3.250 -0.1004 -0.1507 -0.0430
  904BOLB   C3A21679  12.922  17.377   3.037  0.0016 -0.2479  0.0086
  904BOLB   C4A21680  12.782  17.066   2.772 -0.0813  0.0034  0.0360
  904BOLB   C1B21681  13.316  18.549   3.648 -0.2199 -0.0163  0.2046
  904BOLB   C2B21682  13.482  18.537   3.171 -0.2013 -0.1414  0.1695
  904BOLB   C3B21683  13.820  18.411   3.042  0.1099  0.2131  0.1753
  904BOLB   C4B21684  14.176  18.429   2.991  0.2071 -0.0498  0.0893
  904BOLB   NC221685  14.448  16.258   0.747  0.1186  0.3136  0.1966
  904BOLB   PO221686  14.002  16.427   0.803  0.1017  0.3735  0.1637
  904BOLB   GL321687  13.798  16.754   0.991 -0.0233 -0.2845 -0.0339
  904BOLB   GL421688  14.023  16.801   1.262  0.1615  0.0129  0.1320
  904BOLB   C1C21689  13.490  16.770   1.276 -0.3132  0.0063 -0.1265
  904BOLB   C2C21690  13.344  16.752   1.695 -0.0158 -0.1413 -0.1125
  904BOLB   C3C21691  13.099  16.619   2.074 -0.1450  0.0251 -0.1029
  904BOLB   C4C21692  12.934  16.718   2.470  0.0012 -0.2422 -0.1358
  904BOLB   C1D21693  13.790  17.028   1.569 -0.0059 -0.2722  0.2893
  904BOLB   C2D21694  13.368  17.211   1.728 -0.5824 -0.1170  0.0960
  904BOLB   C3D21695  13.178  17.472   2.051  0.0212  0.0048 -0.1184
  904BOLB   C4D21696  13.153  17.833   2.276 -0.1770  0.0804 -0.0008
  905BOLB   NC121697  10.110  20.626  17.807  0.0421 -0.2967  0.0631
  905BOLB   PO121698  10.556  20.453  17.714 -0.0347  0.0299  0.0975
  905BOLB   GL121699  10.764  20.553  18.018 -0.0601 -0.0284  0.1140
  905BOLB   GL221700  10.683  20.238  18.277  0.0027  0.1884 -0.2118
  905BOLB   C1A21701  10.791  20.679  18.470  0.0670  0.1969 -0.4239
  905BOLB   C2A21702  10.885  20.675  18.940  0.1599 -0.2250 -0.2321
  905BOLB   C3A21703  11.111  20.507  19.259  0.0978 -0.0551 -0.3446
  905BOLB   C4A21704  11.158  20.464  19.712 -0.0309  0.1427 -0.1192
  905BOLB   C1B21705  10.807  19.971  18.632  0.3856  0.0355 -0.2421
  905BOLB   C2B21706  10.876  19.979  19.061 -0.2356  0.0533 -0.0970
  905BOLB   C3B21707  11.213  19.962  19.361  0.2320 -0.1634  0.2192
  905BOLB   C4B21708  11.535  19.803  19.317 -0.2054 -0.1416 -0.0735
  905BOLB   NC221709  12.589  19.798  21.143 -0.1877 -0.1985 -0.0482
  905BOLB   PO221710  12.682  20.156  21.294  0.1216 -0.1391  0.0917
  905BOLB   GL321711  12.508  20.285  20.916  0.3768  0.3347  0.0140
  905BOLB   GL421712  12.616  20.438  20.530  0.3510 -0.2385 -0.1803
  905BOLB   C1C21713  12.354  20.038  20.530  0.2065  0.0565 -0.0294
  905BOLB   C2C21714  12.143  20.033  20.177  0.2820 -0.0527  0.1311
  905BOLB   C3C21715  11.818  20.318  20.031 -0.0407  0.1848 -0.0457
  905BOLB   C4C21716  11.430  20.236  20.053  0.1307  0.0543  0.2839
  905BOLB   C1D21717  12.434  20.394  20.071 -0.0736 -0.0547  0.0645
  905BOLB   C2D21718  12.381  20.067  19.776  0.2467  0.0844  0.3567
  905BOLB   C3D21719  12.274  19.776  19.437  0.1560 -0.0173  0.2051
  905BOLB   C4D21720  11.929  19.524  19.371 -0.2793 -0.0108 -0.0170
  906BOLB   NC121721  12.222  15.319   9.956 -0.0072  0.1203  0.4711
  906BOLB   PO121722  11.930  15.128  10.246  0.0450 -0.1327 -0.1961
  906BOLB   GL121723  12.234  15.111  10.578 -0.0240 -0.1448  0.3635
  906BOLB   GL221724  12.443  15.330  10.690  0.0823  0.1505  0.1665
  906BOLB   C1A21725  12.244  14.544  10.608 -0.0850  0.0295 -0.0300
  906BOLB   C2A21726  12.346  14.097  10.605  0.1975 -0.2588 -0.0762
  906BOLB   C3A21727  12.372  13.643  10.475  0.0290 -0.2336 -0.1107
  906BOLB   C4A21728  12.422  13.267  10.519 -0.0864  0.2615  0.2502
  906BOLB   C1B21729  12.666  14.970  10.759  0.1135 -0.0910 -0.2139
  906BOLB   C2B21730  12.931  14.711  11.095  0.1976  0.1595 -0.0270
  906BOLB   C3B21731  13.191  14.524  11.433  0.0539  0.2604  0.0732
  906BOLB   C4B21732  13.137  14.025  11.699 -0.1690 -0.2203 -0.4062
  906BOLB   NC221733  13.361  11.312  11.393 -0.0112 -0.0128  0.1835
  906BOLB   PO221734  13.328  11.397  10.961 -0.1283 -0.3617  0.3978
  906BOLB   GL321735  13.226  11.785  10.730 -0.0851 -0.1488  0.0012
  906BOLB   GL421736  13.524  11.855  10.411 -0.1505  0.1012  0.1051
  906BOLB   C1C21737  13.147  12.130  10.931  0.3123 -0.2443 -0.1334
  906BOLB   C2C21738  12.934  12.387  11.139 -0.1311 -0.1107  0.0105
  906BOLB   C3C21739  12.698  12.579  11.063 -0.0898 -0.0575  0.3144
  906BOLB   C4C21740  12.491  12.848  10.660  0.0875 -0.3808 -0.0829
  906BOLB   C1D21741  13.204  11.869  10.025  0.2993  0.0548 -0.0952
  906BOLB   C2D21742  12.796  11.803   9.971 -0.2789  0.1103  0.0122
  906BOLB   C3D21743  12.436  11.761  10.159  0.2051 -0.3747  0.0091
  906BOLB   C4D21744  11.981  11.961  10.195  0.3975 -0.1898 -0.4040
  907BOLB   NC121745  10.612  25.401  16.309  0.0724  0.2787  0.0749
  907BOLB   PO121746  11.047  25.223  16.182  0.0943  0.1470 -0.0433
  907BOLB   GL121747  11.435  25.227  16.377  0.3207 -0.2254  0.4633
  907BOLB   GL221748  11.580  25.018  16.344 -0.0262 -0.0006 -0.0885
  907BOLB   C1A21749  11.741  25.392  16.683 -0.2460  0.0478  0.1188
  907BOLB   C2A21750  12.106  25.384  16.902 -0.0078 -0.2090 -0.5043
  907BOLB   C3A21751  12.336  25.573  17.266 -0.2973  0.0500  0.0254
  907BOLB   C4A21752  12.580  25.814  17.524  0.0762  0.2002 -0.0248
  907BOLB   C1B21753  12.076  25.089  16.475 -0.2587 -0.1220  0.2397
  907BOLB   C2B21754  12.477  25.238  16.625 -0.3344  0.0605 -0.0955
  907BOLB   C3B21755  12.778  25.522  16.907  0.1026  0.0615 -0.1929
  907BOLB   C4B21756  12.970  25.618  17.334 -0.0112  0.1052 -0.0534
  907BOLB   NC221757  13.357  27.029  19.699  0.3271 -0.1294  0.1523
  907BOLB   PO221758  13.586  26.650  19.697  0.2202  0.1004  0.0391
  907BOLB   GL321759  13.420  26.535  19.199  0.3782  0.3037 -0.1992
  907BOLB   GL421760  13.235  26.822  18.971 -0.1373 -0.1817  0.2521
  907BOLB   C1C21761  13.252  26.203  19.032  0.3023  0.0355 -0.0410
  907BOLB   C2C21762  13.007  25.984  18.838  0.2424  0.0904  0.0819
  907BOLB   C3C21763  12.890  26.072  18.320  0.0728  0.5395 -0.0387
  907BOLB   C4C21764  12.828  25.850  17.946  0.1963 -0.1071  0.1964
  907BOLB   C1D21765  13.023  26.580  18.723 -0.2006  0.2288 -0.2091
  907BOLB   C2D21766  12.689  26.390  18.700  0.1826 -0.1571  0.0565
  907BOLB   C3D21767  12.410  26.072  18.430  0.1367 -0.4089 -0.1313
  907BOLB   C4D21768  12.507  25.693  18.340  0.3087 -0.3576  0.2914
  908BOLB   NC121769  11.597  20.156  16.933  0.1337 -0.0229 -0.0506
  908BOLB   PO121770  11.678  19.761  16.838 -0.1246 -0.1733  0.3318
  908BOLB   GL121771  11.995  19.909  17.155  0.0486  0.3624  0.2553
  908BOLB   GL221772  12.249  20.126  16.982 -0.0498  0.4278  0.0873
  908BOLB   C1A21773  12.333  19.917  17.427 -0.2378 -0.0742 -0.2008
  908BOLB   C2A21774  12.558  19.765  17.881 -0.0507  0.1584  0.0247
  908BOLB   C3A21775  12.531  19.484  18.171  0.1980  0.1558 -0.1342
  908BOLB   C4A21776  12.777  19.474  18.550  0.0038  0.3664 -0.1907
  908BOLB   C1B21777  12.728  20.007  17.100 -0.0100 -0.0538  0.0476
  908BOLB   C2B21778  13.009  19.880  17.441  0.0010  0.1242 -0.0174
  908BOLB   C3B21779  13.051  19.604  17.812 -0.0772 -0.4417  0.1375
  908BOLB   C4B21780  13.217  19.738  18.224  0.0932  0.2172  0.0299
  908BOLB   NC221781  14.678  18.659  19.632 -0.2698 -0.2284 -0.3917
  908BOLB   PO221782  14.537  18.362  19.850 -0.2766 -0.1479  0.5066
  908BOLB   GL321783  14.204  18.522  19.612 -0.3678 -0.2517 -0.3446
  908BOLB   GL421784  14.212  18.893  19.764 -0.1942 -0.1308  0.2774
  908BOLB   C1C21785  13.769  18.596  19.488 -0.0156  0.0112  0.1363
  908BOLB   C2C21786  13.513  18.958  19.413 -0.0150  0.0109  0.1548
  908BOLB   C3C21787  13.401  19.247  19.161  0.0326 -0.0399  0.0320
  908BOLB   C4C21788  13.092  19.490  18.880  0.1155 -0.0047  0.2242
  908BOLB   C1D21789  14.006  19.080  19.282 -0.1457 -0.1624  0.1134
  908BOLB   C2D21790  13.797  19.154  18.824  0.1749 -0.1689 -0.3263
  908BOLB   C3D21791  13.648  19.417  18.575 -0.0766 -0.2675 -0.3721
  908BOLB   C4D21792  13.750  19.781  18.250  0.2072  0.0080  0.0253
  909BOLB   NC121793   5.589  19.328  17.925 -0.2684  0.2433 -0.0210
  909BOLB   PO121794   5.449  19.111  18.212  0.0634 -0.2474 -0.0724
  909BOLB   GL121795   5.382  18.868  18.607 -0.0226  0.3453  0.3050
  909BOLB   GL221796   5.326  18.523  18.532  0.3073 -0.1957 -0.0337
  909BOLB   C1A21797   4.930  18.604  18.829 -0.0696 -0.2318 -0.0356
  909BOLB   C2A21798   4.794  18.600  19.293 -0.2858  0.0024  0.0833
  909BOLB   C3A21799   4.891  18.464  19.633 -0.0429  0.1466 -0.2839
  909BOLB   C4A21800   4.911  18.331  20.017  0.3398  0.2697 -0.0067
  909BOLB   C1B21801   5.588  18.441  18.857 -0.0132  0.1709  0.2667
  909BOLB   C2B21802   5.299  18.422  19.153  0.2449 -0.1086  0.0929
  909BOLB   C3B21803   5.371  18.186  19.538  0.0896  0.0704  0.1589
  909BOLB   C4B21804   5.734  18.273  19.767  0.0971 -0.0342  0.4339
  909BOLB   NC221805   4.109  17.689  21.688 -0.2352 -0.0530 -0.4966
  909BOLB   PO221806   3.773  17.630  21.617 -0.2756  0.0860 -0.7114
  909BOLB   GL321807   3.941  17.358  21.352  0.3552 -0.2324  0.0899
  909BOLB   GL421808   3.744  17.048  21.126  0.2420 -0.2797  0.3596
  909BOLB   C1C21809   4.341  17.346  21.096  0.2987  0.3345 -0.0156
  909BOLB   C2C21810   4.587  17.383  20.735 -0.2472  0.1146 -0.0004
  909BOLB   C3C21811   4.882  17.582  20.537 -0.1018  0.0372 -0.1748
  909BOLB   C4C21812   5.029  17.952  20.328 -0.0457 -0.1343  0.4711
  909BOLB   C1D21813   4.058  17.040  20.848  0.0060 -0.0719  0.1375
  909BOLB   C2D21814   4.093  17.232  20.443  0.0022  0.2264 -0.1338
  909BOLB   C3D21815   3.957  17.229  19.987  0.0239  0.2099  0.2174
  909BOLB   C4D21816   3.814  17.377  19.561  0.1362 -0.1234  0.0865
  910BOLB   NC121817  33.584  14.186   2.249 -0.2037  0.0946 -0.1808
  910BOLB   PO121818  33.443  14.632   2.384  0.0375  0.0515 -0.1065
  910BOLB   GL121819  33.675  14.700   2.666 -0.0007  0.2770  0.0654
  910BOLB   GL221820  33.663  14.929   3.059 -0.1114  0.3598  0.2195
  910BOLB   C1A21821  34.082  14.990   2.817  0.0693  0.1257  0.1693
  910BOLB   C2A21822  34.279  15.209   3.111 -0.3099 -0.2925  0.0683
  910BOLB   C3A21823  34.527  15.181   3.350 -0.1039  0.2366 -0.2951
  910BOLB   C4A21824  34.751  14.813   3.251  0.0364  0.1672  0.1094
  910BOLB   C1B21825  33.729  15.319   3.260 -0.0576 -0.0122  0.2410
  910BOLB   C2B21826  34.016  15.669   3.367 -0.1453 -0.1379  0.0836
  910BOLB   C3B21827  34.477  15.672   3.294  0.2167 -0.0890 -0.2142
  910BOLB   C4B21828  34.710  15.613   3.035  0.1620 -0.4306  0.1391
  910BOLB   NC221829  33.264  13.853   2.063 -0.1889 -0.4008 -0.1731
  910BOLB   PO221830  33.762  13.829   1.957 -0.0048  0.3091 -0.0347
  910BOLB   GL321831  34.154  13.798   2.214  0.1149 -0.0415 -0.0137
  910BOLB   GL421832  34.080  14.122   2.266  0.2466 -0.2379 -0.1118
  910BOLB   C1C21833  34.194  13.578   2.581  0.0878 -0.2720  0.2227
  910BOLB   C2C21834  34.662  13.653   2.825 -0.0384  0.1287  0.0095
  910BOLB   C3C21835  34.806  13.972   2.983  0.0295  0.0068 -0.2347
  910BOLB   C4C21836  34.732  14.414   3.115 -0.1056 -0.0404  0.2068
  910BOLB   C1D21837  34.437  14.292   2.102  0.2245  0.2724  0.1288
  910BOLB   C2D21838  34.928  14.250   2.059  0.1724  0.3667  0.1075
  910BOLB   C3D21839  35.236  14.364   2.329  0.1257 -0.0428 -0.5117
  910BOLB   C4D21840  35.172  14.431   2.754  0.1950  0.0587  0.0091
  911BOLB   NC121841   0.711  22.353   6.404 -0.1395  0.1921  0.0568
  911BOLB   PO121842   0.515  22.060   6.066 -0.0057 -0.2157  0.0355
  911BOLB   GL121843   0.064  21.864   5.984 -0.1205 -0.2271  0.1117
  911BOLB   GL221844  -0.132  22.109   6.082  0.0925  0.0415  0.4860
  911BOLB   C1A21845  -0.253  21.656   5.816  0.2198  0.0684  0.2503
  911BOLB   C2A21846  -0.565  21.382   5.614 -0.0302  0.2903  0.1454
  911BOLB   C3A21847  -0.575  21.050   5.197 -0.2852 -0.1416 -0.3402
  911BOLB   C4A21848  -0.561  20.584   5.247  0.0116 -0.4310 -0.3606
  911BOLB   C1B21849  -0.484  21.979   6.039  0.2563 -0.1966  0.2790
  911BOLB   C2B21850  -0.704  21.867   5.679 -0.2301  0.2220 -0.0806
  911BOLB   C3B21851  -0.935  22.065   5.423  0.2065 -0.2289 -0.0065
  911BOLB   C4B21852  -1.218  22.045   5.120  0.0158  0.2584  0.0716
  911BOLB   NC221853   1.329  19.561   6.019 -0.0485  0.0281  0.1666
  911BOLB   PO221854   1.104  19.795   5.653  0.1763  0.1712 -0.0973
  911BOLB   GL321855   1.010  19.544   5.364 -0.1306 -0.0722 -0.0064
  911BOLB   GL421856   1.025  19.305   5.591 -0.0147 -0.1388 -0.1499
  911BOLB   C1C21857   0.666  19.429   5.160  0.0996  0.0626 -0.2628
  911BOLB   C2C21858   0.339  19.700   5.203 -0.0486 -0.0069 -0.4004
  911BOLB   C3C21859   0.006  19.966   5.074 -0.3110 -0.0077 -0.1893
  911BOLB   C4C21860  -0.226  20.274   5.264 -0.0299 -0.2420 -0.1946
  911BOLB   C1D21861   0.797  18.895   5.522  0.2036  0.1712  0.2506
  911BOLB   C2D21862   0.544  18.494   5.547 -0.1753  0.1171 -0.0740
  911BOLB   C3D21863   0.257  18.355   5.298  0.0120  0.1801 -0.0029
  911BOLB   C4D21864  -0.025  18.125   5.172  0.0488  0.0109 -0.2276
  912BOLB   NC121865   3.020  11.636  19.414 -0.2653 -0.0592  0.1940
  912BOLB   PO121866   2.944  11.989  19.503 -0.4170 -0.0381  0.3714
  912BOLB   GL121867   2.598  12.123  19.364  0.1412  0.2304  0.0448
  912BOLB   GL221868   2.577  12.393  19.478  0.0475  0.0328  0.2444
  912BOLB   C1A21869   2.261  12.218  19.136  0.0301 -0.0085 -0.0189
  912BOLB   C2A21870   1.756  12.220  18.922 -0.4767 -0.0502  0.0931
  912BOLB   C3A21871   1.681  11.928  18.575 -0.0572 -0.2825  0.0320
  912BOLB   C4A21872   1.696  12.006  18.109  0.1975  0.2640 -0.0613
  912BOLB   C1B21873   2.730  12.483  19.052 -0.0022  0.1723  0.0338
  912BOLB   C2B21874   2.951  12.425  18.593  0.0780  0.3893 -0.1464
  912BOLB   C3B21875   2.576  12.405  18.326  0.0634  0.0314 -0.1411
  912BOLB   C4B21876   1.956  12.425  18.248  0.0972 -0.3381 -0.2174
  912BOLB   NC221877   3.446  10.796  18.430  0.0847 -0.1598  0.0675
  912BOLB   PO221878   3.581  11.165  18.126 -0.0585 -0.3428 -0.1656
  912BOLB   GL321879   3.390  11.524  17.920 -0.3185 -0.1403 -0.3364
  912BOLB   GL421880   3.414  11.569  17.609 -0.1043 -0.0408 -0.0016
  912BOLB   C1C21881   2.979  11.587  17.780  0.0968  0.0022  0.2476
  912BOLB   C2C21882   2.500  11.580  17.698  0.3124 -0.1360  0.1196
  912BOLB   C3C21883   2.246  11.776  17.551 -0.0787 -0.3236 -0.0698
  912BOLB   C4C21884   1.900  12.001  17.750 -0.0932 -0.0814  0.0336
  912BOLB   C1D21885   3.408  11.677  17.074 -0.2072  0.1432  0.0686
  912BOLB   C2D21886   3.239  11.794  16.730 -0.2432  0.0243 -0.0342
  912BOLB   C3D21887   2.954  12.114  16.564  0.0078 -0.2820 -0.0794
  912BOLB   C4D21888   2.528  12.107  16.766  0.0893  0.1407  0.3137
  913BOLB   NC121889   7.342  28.097  14.533  0.0224  0.0905 -0.1536
  913BOLB   PO121890   7.717  27.968  14.704  0.1265  0.1807 -0.0358
  913BOLB   GL121891   7.508  28.392  14.917  0.3531 -0.0415 -0.0504
  913BOLB   GL221892   7.637  28.545  15.135  0.2018 -0.0736  0.1999
  913BOLB   C1A21893   7.267  28.888  15.054 -0.0678  0.5022 -0.1308
  913BOLB   C2A21894   7.495  29.359  15.057  0.0670 -0.2391  0.0855
  913BOLB   C3A21895   7.264  29.810  15.137  0.2184  0.2222  0.0287
  913BOLB   C4A21896   6.923  30.253  15.031 -0.1796 -0.1014 -0.2363
  913BOLB   C1B21897   7.692  28.969  15.393 -0.1395 -0.0520  0.2619
  913BOLB   C2B21898   7.597  29.432  15.533 -0.1021  0.0846  0.1716
  913BOLB   C3B21899   7.528  29.624  15.940 -0.2493 -0.2437  0.1735
  913BOLB   C4B21900   7.228  29.871  16.138 -0.1645 -0.0491  0.1488
  913BOLB   NC221901   6.066  32.614  15.277  0.0318 -0.2845 -0.4558
  913BOLB   PO221902   6.457  32.472  15.157  0.3106  0.0867 -0.2208
  913BOLB   GL321903   6.627  32.121  14.908 -0.1539  0.0899 -0.0764
  913BOLB   GL421904   6.638  31.890  15.201 -0.3406  0.0601 -0.0599
  913BOLB   C1C21905   6.844  31.719  14.785 -0.1278  0.1601 -0.0239
  913BOLB   C2C21906   6.868  31.320  14.681 -0.1480  0.1355  0.0128
  913BOLB   C3C21907   6.667  30.914  14.712  0.0351 -0.3194  0.0240
  913BOLB   C4C21908   6.644  30.491  14.781 -0.4423  0.2815  0.1673
  913BOLB   C1D21909   6.694  31.470  15.180 -0.2079 -0.1675  0.1492
  913BOLB   C2D21910   6.767  31.238  15.431 -0.0256  0.1934  0.0392
  913BOLB   C3D21911   7.024  30.953  15.106  0.0271 -0.3773  0.2798
  913BOLB   C4D21912   7.111  30.669  14.792  0.1600 -0.4570  0.0447
  914BOLB   NC121913   2.584  28.216  10.854  0.1403  0.0958  0.3293
  914BOLB   PO121914   3.015  28.282  11.144 -0.0401 -0.1365  0.1317
  914BOLB   GL121915   3.155  28.733  11.159  0.2560  0.2353 -0.0115
  914BOLB   GL221916   3.035  28.859  11.433  0.0125  0.1498  0.0919
  914BOLB   C1A21917   3.052  29.175  10.992 -0.1088  0.0440  0.0735
  914BOLB   C2A21918   3.014  29.532  11.006  0.1320  0.2660  0.2554
  914BOLB   C3A21919   2.677  29.844  10.951 -0.0220  0.2748  0.1263
  914BOLB   C4A21920   2.565  30.241  11.240  0.0005 -0.0849 -0.0555
  914BOLB   C1B21921   3.050  29.248  11.561 -0.0651 -0.3580 -0.1355
  914BOLB   C2B21922   2.842  29.687  11.455 -0.3682 -0.2432 -0.0500
  914BOLB   C3B21923   2.757  29.955  11.814 -0.0395 -0.3263  0.0404
  914BOLB   C4B21924   2.594  30.286  12.136  0.1880  0.1420 -0.2843
  914BOLB   NC221925   1.944  31.694  12.840  0.1031  0.1058  0.0742
  914BOLB   PO221926   2.317  31.787  12.682 -0.1544  0.2213  0.1496
  914BOLB   GL321927   2.537  31.396  12.855 -0.0895 -0.0674 -0.1888
  914BOLB   GL421928   2.790  31.389  12.633  0.4653 -0.1053 -0.2876
  914BOLB   C1C21929   2.499  31.034  12.849 -0.1263 -0.0156 -0.0359
  914BOLB   C2C21930   2.463  30.682  12.481  0.0368  0.2346 -0.0540
  914BOLB   C3C21931   2.446  30.745  12.029  0.0172  0.1758 -0.2745
  914BOLB   C4C21932   2.524  30.481  11.623  0.2404  0.0907 -0.1909
  914BOLB   C1D21933   3.276  31.314  12.661 -0.2235  0.0831 -0.0788
  914BOLB   C2D21934   3.593  31.311  12.526  0.2383 -0.0162 -0.1521
  914BOLB   C3D21935   3.881  30.949  12.648 -0.5546  0.0015  0.1958
  914BOLB   C4D21936   4.153  30.655  12.552  0.2155 -0.1057 -0.2849
  915BOLB   NC121937  34.913   9.390  14.675 -0.1218  0.1942 -0.2378
  915BOLB   PO121938  35.124   8.943  14.503  0.1670  0.0343  0.1894
  915BOLB   GL121939  35.475   9.198  14.418 -0.0431 -0.2315  0.1763
  915BOLB   GL221940  35.754   9.101  14.370 -0.0156 -0.1351  0.4831
  915BOLB   C1A21941  35.665   9.486  14.699 -0.0257  0.0883  0.2207
  915BOLB   C2A21942  35.816   9.887  14.540  0.1907  0.0850  0.2190
  915BOLB   C3A21943  35.790  10.049  14.179 -0.0977  0.0371  0.1081
  915BOLB   C4A21944  35.830  10.440  13.874  0.2135  0.0517 -0.4674
  915BOLB   C1B21945  35.861   9.505  14.240 -0.1474  0.3328 -0.2029
  915BOLB   C2B21946  36.226   9.692  14.249  0.0951 -0.1623 -0.1173
  915BOLB   C3B21947  36.540   9.726  14.437  0.3258 -0.1216 -0.2374
  915BOLB   C4B21948  36.951   9.582  14.435  0.0510 -0.3030 -0.2458
  915BOLB   NC221949  34.205   8.870  13.021  0.1608 -0.2031  0.0877
  915BOLB   PO221950  34.474   8.974  12.669 -0.0340  0.0249  0.4668
  915BOLB   GL321951  34.760   9.359  12.680 -0.1080 -0.1292  0.1556
  915BOLB   GL421952  34.642   9.707  12.780  0.0364 -0.3776  0.0863
  915BOLB   C1C21953  35.113   9.447  12.847  0.0441 -0.1051  0.2006
  915BOLB   C2C21954  35.321   9.762  13.055  0.1290 -0.1027 -0.1163
  915BOLB   C3C21955  35.609  10.105  13.243  0.1772  0.2162  0.2010
  915BOLB   C4C21956  35.812  10.466  13.420 -0.2980 -0.0542 -0.0744
  915BOLB   C1D21957  34.920  10.042  12.858  0.0576 -0.4112 -0.4337
  915BOLB   C2D21958  35.163  10.354  12.888 -0.2331  0.0134  0.1723
  915BOLB   C3D21959  35.388  10.668  13.154 -0.0714  0.2300 -0.0405
  915BOLB   C4D21960  35.515  10.928  13.474  0.0136  0.1603  0.1070
  916BOLB   NC121961   8.886  19.487   2.679 -0.2040 -0.1662 -0.1669
  916BOLB   PO121962   9.111  19.111   2.446 -0.0624 -0.1444  0.0294
  916BOLB   GL121963   9.053  18.899   1.993 -0.1924  0.4161 -0.6348
  916BOLB   GL221964   8.766  18.994   1.847 -0.1682 -0.4378 -0.1313
  916BOLB   C1A21965   9.301  18.889   1.646 -0.1047  0.0273  0.3737
  916BOLB   C2A21966   9.323  18.799   1.168  0.1366  0.3452  0.0613
  916BOLB   C3A21967   9.638  18.837   0.923 -0.0359 -0.2447  0.0536
  916BOLB   C4A21968   9.790  19.053   0.496 -0.2933 -0.2818  0.1752
  916BOLB   C1B21969   8.811  19.065   1.431 -0.1215 -0.0872  0.2218
  916BOLB   C2B21970   8.737  19.129   0.955  0.1461  0.1071 -0.0208
  916BOLB   C3B21971   8.944  19.176   0.532 -0.1813  0.1386 -0.0642
  916BOLB   C4B21972   9.283  19.005   0.303 -0.0780 -0.3248 -0.1412
  916BOLB   NC221973  11.148  17.866  -0.958 -0.1846  0.1187  0.0166
  916BOLB   PO221974  11.086  18.125  -1.342 -0.0543 -0.1122  0.0401
  916BOLB   GL321975  10.822  18.228  -1.062  0.1105  0.0136  0.2665
  916BOLB   GL421976  10.864  18.148  -0.733 -0.1684  0.0118  0.0705
  916BOLB   C1C21977  10.488  18.544  -0.870 -0.0431  0.0532 -0.0877
  916BOLB   C2C21978  10.258  18.831  -0.645  0.0822 -0.1480  0.0581
  916BOLB   C3C21979  10.087  18.973  -0.189  0.1188  0.0779  0.3717
  916BOLB   C4C21980   9.908  19.059   0.120 -0.2278 -0.1655  0.1300
  916BOLB   C1D21981  10.660  18.206  -0.450 -0.1220 -0.0937 -0.0952
  916BOLB   C2D21982  10.672  18.395   0.016 -0.0947 -0.2354 -0.1261
  916BOLB   C3D21983  10.624  18.703   0.376 -0.2193  0.4050  0.1818
  916BOLB   C4D21984  10.359  18.916   0.573  0.0719 -0.0668  0.2016
  917BOLB   NC121985  33.580  10.564   6.348 -0.0684 -0.4225 -0.2355
  917BOLB   PO121986  33.922  10.331   6.147 -0.1680  0.2525 -0.2794
  917BOLB   GL121987  34.259  10.477   6.080 -0.0771 -0.0272 -0.0614
  917BOLB   GL221988  34.551  10.623   5.913  0.1136  0.1024  0.0620
  917BOLB   C1A21989  34.524  10.865   6.307  0.1271  0.0742 -0.0039
  917BOLB   C2A21990  34.935  10.929   6.354 -0.2579 -0.2941 -0.2501
  917BOLB   C3A21991  35.251  11.244   6.467 -0.2629 -0.2922 -0.1345
  917BOLB   C4A21992  35.690  11.386   6.657  0.4792  0.3174 -0.1320
  917BOLB   C1B21993  34.647  11.093   5.850 -0.0626 -0.0433 -0.0274
  917BOLB   C2B21994  34.946  11.345   6.027 -0.1831 -0.0208  0.2965
  917BOLB   C3B21995  35.326  11.634   5.949  0.1739 -0.3647 -0.1780
  917BOLB   C4B21996  35.659  11.939   6.083  0.0982  0.2253  0.3192
  917BOLB   NC221997  33.766  10.088   7.635 -0.0140  0.2461  0.0751
  917BOLB   PO221998  34.261  10.060   7.695  0.1308 -0.0758 -0.1181
  917BOLB   GL321999  34.502  10.506   7.685 -0.2681  0.0513  0.0198
  917BOLB   GL422000  34.531  10.766   7.917  0.2658 -0.1099 -0.3596
  917BOLB   C1C22001  34.969  10.576   7.473 -0.1120 -0.2399  0.1907
  917BOLB   C2C22002  35.170  10.980   7.379  0.0656 -0.0186  0.0548
  917BOLB   C3C22003  35.601  11.219   7.295 -0.1012  0.1480  0.3004
  917BOLB   C4C22004  35.787  11.159   6.904 -0.0710  0.0561 -0.0267
  917BOLB   C1D22005  34.960  10.951   7.947  0.1728  0.1430  0.2128
  917BOLB   C2D22006  35.436  11.159   7.815 -0.1436  0.2436  0.1073
  917BOLB   C3D22007  35.951  11.036   7.661 -0.3811 -0.1692  0.3286
  917BOLB   C4D22008  36.058  11.334   7.303 -0.0912  0.0230 -0.2602
  918BOLB   NC122009   1.081   7.330  14.731 -0.2196  0.2882  0.0735
  918BOLB   PO122010   1.506   7.293  14.872  0.2761  0.1327  0.0901
  918BOLB   GL122011   1.473   7.477  14.406 -0.2926  0.0324 -0.0890
  918BOLB   GL222012   1.745   7.325  14.052 -0.2740  0.1348 -0.3469
  918BOLB   C1A22013   1.675   7.857  14.109  0.0637 -0.1056  0.1210
  918BOLB   C2A22014   1.797   8.109  13.766 -0.0978 -0.3152  0.0836
  918BOLB   C3A22015   2.091   8.569  13.738 -0.0938 -0.0750 -0.1167
  918BOLB   C4A22016   2.336   8.754  13.873  0.3253 -0.0102  0.1120
  918BOLB   C1B22017   1.831   7.584  13.669  0.1226 -0.1180  0.0396
  918BOLB   C2B22018   1.733   7.881  13.346  0.1388 -0.0828 -0.0478
  918BOLB   C3B22019   1.618   8.268  13.287 -0.0934 -0.2258  0.1157
  918BOLB   C4B22020   1.558   8.571  12.957  0.0618  0.0636 -0.3509
  918BOLB   NC222021   4.524   8.371  14.810  0.0965  0.0193  0.0566
  918BOLB   PO222022   4.127   8.386  14.660  0.4432 -0.0040 -0.1219
  918BOLB   GL322023   3.711   8.620  14.421 -0.0391 -0.1870 -0.1214
  918BOLB   GL422024   3.399   8.541  14.420 -0.2796 -0.0253 -0.3358
  918BOLB   C1C22025   3.403   8.950  14.189  0.3514  0.1641  0.0470
  918BOLB   C2C22026   3.222   9.234  13.885  0.1988 -0.2265 -0.2276
  918BOLB   C3C22027   2.835   9.323  13.891 -0.0721 -0.1950 -0.1252
  918BOLB   C4C22028   2.568   9.000  13.902  0.4497  0.0043 -0.1453
  918BOLB   C1D22029   3.083   8.541  14.174  0.1000  0.1051  0.1254
  918BOLB   C2D22030   2.922   8.652  13.786 -0.1940  0.0961 -0.1468
  918BOLB   C3D22031   3.066   8.546  13.361 -0.3751  0.2259 -0.1586
  918BOLB   C4D22032   3.450   8.596  13.129  0.0062 -0.2543  0.3346
  919BOLB   NC122033  31.778  26.229   9.650  0.0542 -0.0939 -0.1156
  919BOLB   PO122034  32.130  26.510   9.669 -0.0401  0.0877 -0.0438
  919BOLB   GL122035  32.395  26.274   9.790  0.5098  0.4832 -0.2728
  919BOLB   GL222036  32.418  26.078  10.086  0.1365 -0.3121 -0.0785
  919BOLB   C1A22037  32.801  26.135   9.674  0.1454  0.0887  0.1083
  919BOLB   C2A22038  33.160  25.937   9.691 -0.1807  0.2637 -0.3194
  919BOLB   C3A22039  33.292  25.473   9.676 -0.1246  0.2324  0.0302
  919BOLB   C4A22040  33.321  25.190   9.942 -0.2515  0.0105  0.1803
  919BOLB   C1B22041  32.598  25.821  10.000  0.0424 -0.0409 -0.3642
  919BOLB   C2B22042  32.853  25.440   9.980  0.0801  0.0598 -0.2982
  919BOLB   C3B22043  32.886  25.157   9.719  0.4951 -0.2579 -0.1007
  919BOLB   C4B22044  32.673  25.026   9.441 -0.1851 -0.1115 -0.1073
  919BOLB   NC222045  32.600  26.066  10.606 -0.4663 -0.0723 -0.1019
  919BOLB   PO222046  32.127  26.247  10.708 -0.0770 -0.0840  0.2273
  919BOLB   GL322047  32.129  25.802  10.701 -0.0905  0.1271 -0.0948
  919BOLB   GL422048  32.541  25.570  10.638  0.0777 -0.0165 -0.2181
  919BOLB   C1C22049  32.066  25.306  10.758  0.2007 -0.2305 -0.3489
  919BOLB   C2C22050  32.485  25.119  10.829  0.2492 -0.2938 -0.1682
  919BOLB   C3C22051  32.834  25.049  10.580 -0.0339 -0.0129 -0.0768
  919BOLB   C4C22052  33.143  25.129  10.217  0.0580  0.0096  0.2311
  919BOLB   C1D22053  32.944  25.493  10.806 -0.1005 -0.0208  0.1293
  919BOLB   C2D22054  33.241  25.595  11.152  0.2132  0.3168 -0.1138
  919BOLB   C3D22055  33.582  25.401  11.419 -0.3464  0.0399 -0.5493
  919BOLB   C4D22056  33.752  24.996  11.397  0.0366 -0.0543  0.1674
  920BOLB   NC122057   2.664  10.776  18.928 -0.1604 -0.2385 -0.0304
  920BOLB   PO122058   2.973  10.635  18.604  0.0168 -0.0473  0.1454
  920BOLB   GL122059   2.875  10.894  18.212 -0.1618 -0.0529 -0.0304
  920BOLB   GL222060   3.123  10.929  18.020 -0.5782 -0.0541 -0.1840
  920BOLB   C1A22061   2.551  11.212  18.054 -0.1228  0.1537  0.2101
  920BOLB   C2A22062   2.297  11.128  17.670  0.0184  0.0931  0.1777
  920BOLB   C3A22063   2.119  10.766  17.522  0.0751  0.1859 -0.1954
  920BOLB   C4A22064   2.056  10.346  17.650 -0.0572 -0.1025 -0.2418
  920BOLB   C1B22065   2.770  10.915  17.719 -0.3248 -0.1101  0.1535
  920BOLB   C2B22066   2.596  11.050  17.203  0.4084 -0.2424  0.4906
  920BOLB   C3B22067   2.456  10.827  16.821 -0.0031 -0.1148  0.2524
  920BOLB   C4B22068   2.546  10.601  16.396  0.2031  0.2617  0.0863
  920BOLB   NC222069   1.578   8.891  17.765  0.3818 -0.2850 -0.0016
  920BOLB   PO222070   1.881   8.583  17.577 -0.1094  0.3787 -0.1963
  920BOLB   GL322071   1.636   8.838  17.265  0.0293  0.0823  0.1508
  920BOLB   GL422072   1.625   8.768  16.978  0.1076  0.1722  0.2193
  920BOLB   C1C22073   1.617   9.251  17.050 -0.0906  0.0451  0.2266
  920BOLB   C2C22074   1.777   9.678  16.907 -0.2031  0.0020  0.2440
  920BOLB   C3C22075   2.007   9.904  17.095  0.3591  0.1502  0.1676
  920BOLB   C4C22076   2.280   9.970  17.525  0.0198  0.0670 -0.0152
  920BOLB   C1D22077   1.339   8.968  16.809  0.1601 -0.0869  0.1295
  920BOLB   C2D22078   1.309   9.487  16.765  0.1804 -0.2588 -0.2682
  920BOLB   C3D22079   1.360   9.871  16.562  0.2110  0.4068 -0.1428
  920BOLB   C4D22080   1.179  10.260  16.757  0.3828  0.1139  0.1700
  921BOLB   NC122081  36.489   7.491  11.587  0.1335 -0.1051  0.2233
  921BOLB   PO122082  36.327   7.398  11.126 -0.0840 -0.2000  0.2196
  921BOLB   GL122083  36.624   7.760  11.048  0.2205 -0.1022  0.1340
  921BOLB   GL222084  36.251   7.942  11.002  0.0392 -0.0770  0.1453
  921BOLB   C1A22085  37.050   7.895  11.262 -0.0036  0.3357  0.1758
  921BOLB   C2A22086  37.227   8.275  11.354 -0.2682  0.1744  0.0628
  921BOLB   C3A22087  37.378   8.640  11.388  0.0771  0.2559 -0.1055
  921BOLB   C4A22088  37.725   8.922  11.262 -0.1128 -0.0720 -0.0608
  921BOLB   C1B22089  36.621   8.143  11.335  0.2538  0.0191  0.1145
  921BOLB   C2B22090  36.827   8.305  11.730  0.1448 -0.0082  0.0869
  921BOLB   C3B22091  37.067   8.535  11.949  0.3210 -0.3212 -0.0023
  921BOLB   C4B22092  37.180   8.877  11.763 -0.0207 -0.5711 -0.0051
  921BOLB   NC222093  37.891   6.690  11.671 -0.0594 -0.1367  0.0968
  921BOLB   PO222094  38.229   6.548  11.606  0.1077  0.0924 -0.1701
  921BOLB   GL322095  38.292   6.982  11.623 -0.0321  0.0004 -0.0936
  921BOLB   GL422096  38.494   7.062  11.988 -0.0717 -0.1432 -0.1165
  921BOLB   C1C22097  38.494   7.428  11.543 -0.0129  0.3368 -0.0814
  921BOLB   C2C22098  38.450   7.936  11.544 -0.0552 -0.0705 -0.2321
  921BOLB   C3C22099  38.551   8.375  11.327 -0.4430 -0.0149  0.1592
  921BOLB   C4C22100  38.200   8.711  11.189  0.0024 -0.1359  0.0551
  921BOLB   C1D22101  38.857   7.060  12.258 -0.1176 -0.2639 -0.0076
  921BOLB   C2D22102  38.855   7.513  12.436  0.1712  0.0719 -0.1947
  921BOLB   C3D22103  39.095   7.925  12.403  0.0473  0.2712  0.3172
  921BOLB   C4D22104  39.202   8.193  12.160 -0.1868 -0.0013 -0.1019
  922BOLB   NC122105   2.616  25.241   5.125 -0.2805  0.3270  0.1290
  922BOLB   PO122106   2.270  24.935   5.006  0.0096 -0.3994 -0.0660
  922BOLB   GL122107   1.974  25.054   4.696 -0.0289  0.2130  0.1597
  922BOLB   GL222108   1.920  24.932   4.377 -0.1800  0.2838 -0.0801
  922BOLB   C1A22109   1.512  25.191   4.562 -0.3151 -0.0350 -0.0765
  922BOLB   C2A22110   1.045  25.167   4.684  0.2929  0.1324  0.3295
  922BOLB   C3A22111   0.707  25.479   4.658  0.0985  0.0571  0.2398
  922BOLB   C4A22112   0.321  25.433   4.275  0.2445 -0.0482 -0.3551
  922BOLB   C1B22113   2.061  25.360   4.326  0.1237 -0.1863  0.0571
  922BOLB   C2B22114   1.692  25.628   4.384  0.1184 -0.0980 -0.0895
  922BOLB   C3B22115   1.413  25.991   4.280 -0.0882  0.0918  0.2453
  922BOLB   C4B22116   1.086  26.169   4.079 -0.0485 -0.2093 -0.0357
  922BOLB   NC222117  -0.326  26.709   2.252  0.1462  0.1061  0.2245
  922BOLB   PO222118  -0.232  27.057   2.319  0.2106  0.0340  0.0509
  922BOLB   GL322119   0.145  26.871   2.473 -0.0393 -0.1871  0.0926
  922BOLB   GL422120   0.488  26.885   2.421 -0.0063 -0.0612  0.1567
  922BOLB   C1C22121   0.148  26.580   2.846  0.3387  0.2661  0.2665
  922BOLB   C2C22122   0.127  26.301   3.282  0.2084  0.0063  0.0142
  922BOLB   C3C22123   0.349  25.984   3.546 -0.2003 -0.2326 -0.4600
  922BOLB   C4C22124   0.195  25.659   3.892 -0.0193  0.1479  0.3353
  922BOLB   C1D22125   0.853  26.597   2.540  0.2974  0.0438  0.2152
  922BOLB   C2D22126   0.992  26.255   2.720  0.2012  0.1365  0.0223
  922BOLB   C3D22127   1.387  26.056   3.015 -0.1445 -0.0451  0.0075
  922BOLB   C4D22128   1.678  25.717   3.078 -0.0530 -0.2041 -0.1896
  923BOLB   NC122129   5.282  13.572  20.550  0.0072 -0.1839 -0.0051
  923BOLB   PO122130   5.048  13.710  20.242 -0.1614 -0.1082  0.2408
  923BOLB   GL122131   4.952  14.113  20.053  0.2311 -0.0288  0.1634
  923BOLB   GL222132   5.018  14.490  19.997 -0.2205  0.1348  0.2651
  923BOLB   C1A22133   4.566  14.309  20.038 -0.0459  0.2006  0.1122
  923BOLB   C2A22134   4.300  14.427  19.576  0.0149 -0.0189 -0.2316
  923BOLB   C3A22135   4.235  14.665  19.241 -0.0534  0.0724 -0.0801
  923BOLB   C4A22136   4.168  14.869  18.941 -0.0670  0.2420 -0.1294
  923BOLB   C1B22137   5.241  14.441  19.657 -0.0461 -0.2200 -0.2745
  923BOLB   C2B22138   5.695  14.538  19.463 -0.4674  0.2417 -0.0293
  923BOLB   C3B22139   6.074  14.562  19.241 -0.0120  0.0810 -0.0877
  923BOLB   C4B22140   6.292  14.255  19.231  0.1409  0.0846  0.0378
  923BOLB   NC222141   5.966  13.575  19.628  0.1005 -0.1278  0.0557
  923BOLB   PO222142   5.576  13.689  19.501 -0.1492  0.2272 -0.0647
  923BOLB   GL322143   5.375  14.031  19.345 -0.3453  0.0608  0.0505
  923BOLB   GL422144   5.051  14.002  19.393 -0.0938 -0.2730 -0.2645
  923BOLB   C1C22145   5.285  14.177  18.935 -0.2254 -0.2469  0.0524
  923BOLB   C2C22146   4.930  14.290  18.594  0.0494  0.2218  0.3420
  923BOLB   C3C22147   4.831  14.690  18.560 -0.0197  0.1768  0.0349
  923BOLB   C4C22148   4.405  14.949  18.655  0.0465  0.0475 -0.0439
  923BOLB   C1D22149   4.794  14.224  19.585 -0.0803 -0.1711 -0.2390
  923BOLB   C2D22150   4.759  14.643  19.526  0.0530 -0.0333 -0.1781
  923BOLB   C3D22151   4.920  15.046  19.593 -0.0404 -0.0894 -0.1383
  923BOLB   C4D22152   5.026  15.268  19.983 -0.2147 -0.1300  0.0771
  924BOLB   NC122153  33.656  26.881   8.791 -0.2301  0.0614 -0.1734
  924BOLB   PO122154  33.673  26.909   8.342 -0.1424 -0.0448 -0.0272
  924BOLB   GL122155  33.496  26.512   8.464 -0.0509  0.1617 -0.3182
  924BOLB   GL222156  33.758  26.414   8.745 -0.1598 -0.1544  0.3818
  924BOLB   C1A22157  33.304  26.079   8.384  0.0182  0.2125  0.0310
  924BOLB   C2A22158  33.575  25.738   8.320 -0.0296  0.2504  0.0851
  924BOLB   C3A22159  33.708  25.365   8.195 -0.2949 -0.0193  0.2689
  924BOLB   C4A22160  33.613  25.174   7.801 -0.1805  0.1556  0.0401
  924BOLB   C1B22161  33.687  26.144   8.924 -0.2393  0.1097 -0.0629
  924BOLB   C2B22162  33.584  25.881   8.775  0.0790 -0.0263 -0.0078
  924BOLB   C3B22163  33.120  25.737   8.700  0.5038  0.0559 -0.0974
  924BOLB   C4B22164  32.789  25.702   8.963  0.0613 -0.1858 -0.0109
  924BOLB   NC222165  31.711  26.219   6.341 -0.0317 -0.0322 -0.3531
  924BOLB   PO222166  32.113  26.285   6.264  0.2689  0.0739 -0.3828
  924BOLB   GL322167  32.113  25.855   6.367  0.0064  0.1030 -0.1742
  924BOLB   GL422168  32.175  25.557   6.199  0.1658 -0.1752  0.2549
  924BOLB   C1C22169  32.567  25.609   6.415 -0.3871  0.0947 -0.1512
  924BOLB   C2C22170  32.876  25.237   6.603 -0.2779 -0.0674  0.3699
  924BOLB   C3C22171  33.198  25.185   7.042  0.1536  0.1422 -0.1810
  924BOLB   C4C22172  33.388  25.393   7.375  0.1201  0.0548 -0.1757
  924BOLB   C1D22173  32.204  25.101   6.277  0.0546 -0.1584 -0.0883
  924BOLB   C2D22174  32.363  24.679   6.161 -0.1932 -0.3784  0.0475
  924BOLB   C3D22175  32.574  24.239   6.160 -0.2871  0.1711  0.0726
  924BOLB   C4D22176  32.581  23.820   6.235 -0.1266  0.0930 -0.0973
  925BOLB   NC122177  11.747  17.194   4.303 -0.4298  0.0567  0.2551
  925BOLB   PO122178  12.087  17.606   4.164 -0.0307  0.1654  0.1265
  925BOLB   GL122179  12.306  17.232   4.185 -0.4024  0.6036 -0.1879
  925BOLB   GL222180  12.193  16.944   4.221 -0.0499 -0.0340 -0.1437
  925BOLB   C1A22181  12.619  17.064   3.903  0.0264  0.0569  0.3501
  925BOLB   C2A22182  13.062  16.862   3.781  0.1034  0.2686 -0.0192
  925BOLB   C3A22183  13.465  16.736   3.920 -0.2063  0.1892  0.0218
  925BOLB   C4A22184  13.760  16.444   3.649 -0.2515 -0.0562  0.3641
  925BOLB   C1B22185  12.397  16.614   4.085  0.2593 -0.0877  0.1252
  925BOLB   C2B22186  12.741  16.529   3.993  0.1347 -0.2208 -0.0576
  925BOLB   C3B22187  13.151  16.415   4.136 -0.0819 -0.1029  0.2921
  925BOLB   C4B22188  13.485  16.090   3.995  0.0341 -0.0260  0.0191
  925BOLB   NC222189  15.905  15.567   2.821  0.0690 -0.1928  0.1406
  925BOLB   PO222190  16.003  15.898   3.173  0.1397 -0.2102  0.1219
  925BOLB   GL322191  15.661  16.192   3.436  0.0100 -0.2823  0.0763
  925BOLB   GL422192  15.640  16.170   3.792 -0.0558 -0.3300  0.0747
  925BOLB   C1C22193  15.164  16.320   3.460  0.2646  0.0099  0.0842
  925BOLB   C2C22194  14.944  16.036   3.487  0.0057  0.1417 -0.1126
  925BOLB   C3C22195  14.401  15.935   3.587 -0.0361 -0.1583  0.1417
  925BOLB   C4C22196  14.027  16.136   3.624 -0.3121 -0.0550  0.1361
  925BOLB   C1D22197  15.484  16.558   3.892  0.0212 -0.1498  0.0422
  925BOLB   C2D22198  15.250  16.867   4.017 -0.0600 -0.2352 -0.1408
  925BOLB   C3D22199  15.272  17.247   4.362 -0.0365 -0.1872  0.2361
  925BOLB   C4D22200  15.133  17.460   4.663 -0.1438 -0.0241  0.0849
  926BOLB   NC122201  10.564  20.356   2.877 -0.1902 -0.0324  0.3612
  926BOLB   PO122202  10.320  20.577   2.641 -0.2498 -0.1759 -0.0972
  926BOLB   GL122203  10.519  20.294   2.393  0.0726 -0.0388  0.0493
  926BOLB   GL222204  10.478  20.590   2.087 -0.0346  0.3233  0.0644
  926BOLB   C1A22205  10.728  20.149   2.076 -0.2008  0.4238 -0.0377
  926BOLB   C2A22206  10.979  19.968   1.659 -0.6064  0.1227  0.2568
  926BOLB   C3A22207  11.290  19.950   1.294  0.0354 -0.3710  0.2384
  926BOLB   C4A22208  11.603  19.931   1.045 -0.1250 -0.0267 -0.0110
  926BOLB   C1B22209  10.449  20.965   1.766  0.1305 -0.0820  0.2380
  926BOLB   C2B22210  10.185  21.272   1.506  0.0480  0.0133 -0.0038
  926BOLB   C3B22211  10.021  21.133   1.165  0.1977 -0.0129 -0.0171
  926BOLB   C4B22212   9.944  21.058   0.683 -0.2737 -0.3540 -0.0560
  926BOLB   NC222213  11.697  18.919  -1.295  0.0500  0.2190  0.2770
  926BOLB   PO222214  12.062  19.172  -1.050 -0.0040  0.1246  0.1053
  926BOLB   GL322215  12.218  19.270  -0.668  0.0973 -0.0694  0.4661
  926BOLB   GL422216  12.157  19.025  -0.385 -0.1248 -0.1952  0.0169
  926BOLB   C1C22217  12.278  19.488  -0.323  0.1702  0.0231  0.1698
  926BOLB   C2C22218  12.021  19.537  -0.041  0.3035 -0.1176  0.4421
  926BOLB   C3C22219  11.825  19.493   0.303 -0.1543  0.0252  0.1525
  926BOLB   C4C22220  11.783  19.598   0.720 -0.0385 -0.2744 -0.0020
  926BOLB   C1D22221  12.386  19.149   0.118  0.1572  0.0229  0.2164
  926BOLB   C2D22222  12.185  19.087   0.511 -0.0892  0.1799 -0.0253
  926BOLB   C3D22223  11.949  19.102   0.850  0.1931 -0.0093  0.0317
  926BOLB   C4D22224  11.915  19.040   1.333 -0.1370 -0.3602 -0.2847
  927BOLB   NC122225   8.653  31.360   4.052  0.2640  0.0293 -0.1159
  927BOLB   PO122226   8.167  31.285   3.921 -0.1211  0.0642  0.0183
  927BOLB   GL122227   8.133  31.113   4.277  0.2865  0.0452  0.2049
  927BOLB   GL222228   8.364  31.152   4.433 -0.2787  0.1334  0.1244
  927BOLB   C1A22229   8.058  30.778   4.474  0.0512 -0.2099  0.0784
  927BOLB   C2A22230   7.979  30.697   4.977  0.0680  0.0329 -0.3346
  927BOLB   C3A22231   8.227  30.649   5.375  0.2073 -0.0051  0.1220
  927BOLB   C4A22232   8.509  30.914   5.521  0.1995  0.2420 -0.1450
  927BOLB   C1B22233   8.357  31.062   4.785 -0.2977  0.2612 -0.0737
  927BOLB   C2B22234   8.709  30.720   5.054  0.0282  0.0346 -0.1057
  927BOLB   C3B22235   8.796  30.267   5.126 -0.0799 -0.0888 -0.0700
  927BOLB   C4B22236   8.745  29.799   5.148  0.0685  0.2610 -0.2466
  927BOLB   NC222237  10.294  32.286   6.445  0.6189 -0.5502 -0.1117
  927BOLB   PO222238   9.864  32.268   6.232  0.0914  0.0674 -0.0082
  927BOLB   GL322239   9.569  31.971   6.414  0.0370  0.0117  0.3438
  927BOLB   GL422240   9.255  31.991   6.466 -0.2672  0.1348  0.1186
  927BOLB   C1C22241   9.599  31.556   6.505 -0.2978 -0.1917  0.1055
  927BOLB   C2C22242   9.448  31.264   6.158  0.1756  0.0028  0.1706
  927BOLB   C3C22243   9.184  31.194   5.787 -0.1133 -0.1201 -0.2490
  927BOLB   C4C22244   8.872  31.110   5.532 -0.0359  0.3396  0.1055
  927BOLB   C1D22245   9.121  31.563   6.453 -0.0148 -0.1774  0.1201
  927BOLB   C2D22246   8.900  31.155   6.661 -0.3931  0.2201 -0.0786
  927BOLB   C3D22247   8.884  30.743   6.790  0.0559  0.0510 -0.2272
  927BOLB   C4D22248   9.052  30.426   7.191 -0.1290 -0.0614  0.0346
  928BOLB   NC122249   5.950  32.827   8.801  0.3050 -0.2420 -0.3279
  928BOLB   PO122250   5.845  32.816   9.247 -0.1757  0.3455 -0.3929
  928BOLB   GL122251   5.892  32.450   9.388 -0.1433 -0.0422 -0.2347
  928BOLB   GL222252   6.079  32.449   9.648 -0.1187 -0.2473 -0.2468
  928BOLB   C1A22253   6.145  32.034   9.358 -0.0320 -0.1085  0.3053
  928BOLB   C2A22254   6.385  31.721   9.428 -0.1699  0.0954  0.3235
  928BOLB   C3A22255   6.456  31.332   9.211 -0.1504 -0.2329 -0.0415
  928BOLB   C4A22256   6.328  31.024   8.799  0.1605  0.2554  0.1205
  928BOLB   C1B22257   6.029  32.059   9.921 -0.1899 -0.0613 -0.1310
  928BOLB   C2B22258   6.052  31.628  10.008  0.1343  0.0346  0.3573
  928BOLB   C3B22259   5.987  31.201  10.005  0.0987 -0.1924  0.0710
  928BOLB   C4B22260   6.195  30.844  10.052 -0.2906 -0.2384 -0.0426
  928BOLB   NC222261   5.734  32.683   7.176  0.1227 -0.2256  0.0543
  928BOLB   PO222262   5.731  32.781   7.602 -0.1157 -0.0518 -0.1949
  928BOLB   GL322263   5.578  32.405   7.758  0.0184 -0.2905  0.0835
  928BOLB   GL422264   5.398  32.368   7.493  0.2499 -0.0652 -0.0666
  928BOLB   C1C22265   5.514  32.119   7.897  0.1195 -0.0860 -0.1685
  928BOLB   C2C22266   5.573  31.676   7.974  0.1682  0.0800 -0.3098
  928BOLB   C3C22267   5.665  31.198   8.146 -0.0444  0.0028  0.1306
  928BOLB   C4C22268   6.029  31.137   8.524  0.0254 -0.5852 -0.2070
  928BOLB   C1D22269   5.197  31.993   7.294  0.2833 -0.0404 -0.3358
  928BOLB   C2D22270   5.154  31.509   7.296  0.1211  0.3011  0.1924
  928BOLB   C3D22271   5.158  31.134   7.467 -0.0651  0.2434  0.0140
  928BOLB   C4D22272   5.272  30.999   7.933 -0.2351 -0.0580  0.1635
  929BOLB   NC122273  32.843  24.204  16.954 -0.4173  0.0092 -0.0732
  929BOLB   PO122274  33.198  24.117  16.679 -0.0438  0.0434  0.1158
  929BOLB   GL122275  33.208  23.992  16.264  0.1122  0.1544  0.1822
  929BOLB   GL222276  32.888  23.958  16.171 -0.0028 -0.1231 -0.0035
  929BOLB   C1A22277  33.273  23.845  15.881  0.0041  0.2963 -0.0013
  929BOLB   C2A22278  33.119  23.798  15.542 -0.2536 -0.0984  0.0307
  929BOLB   C3A22279  33.166  23.743  15.192 -0.0859 -0.0074 -0.1753
  929BOLB   C4A22280  32.903  23.906  14.844  0.2355 -0.0774 -0.1758
  929BOLB   C1B22281  32.709  23.609  15.978 -0.1245  0.1046  0.0603
  929BOLB   C2B22282  32.913  23.302  15.664  0.3050 -0.0077  0.0344
  929BOLB   C3B22283  33.129  23.189  15.212  0.0561  0.4219 -0.1466
  929BOLB   C4B22284  33.333  22.922  14.798  0.1328 -0.3012  0.1536
  929BOLB   NC222285  30.823  24.567  14.202 -0.1901 -0.0927 -0.4155
  929BOLB   PO222286  31.102  24.960  14.174  0.2341 -0.3337 -0.0654
  929BOLB   GL322287  31.291  24.594  13.927  0.2085 -0.3285 -0.2237
  929BOLB   GL422288  31.170  24.227  13.921  0.2668  0.1883 -0.3807
  929BOLB   C1C22289  31.679  24.332  13.887  0.0129 -0.1687  0.1359
  929BOLB   C2C22290  32.069  24.438  13.969 -0.0659  0.3963  0.0253
  929BOLB   C3C22291  32.428  24.319  14.172 -0.4133  0.2416  0.2892
  929BOLB   C4C22292  32.766  24.134  14.383 -0.3358 -0.0915 -0.3596
  929BOLB   C1D22293  31.425  23.924  13.823  0.0541  0.1608  0.0235
  929BOLB   C2D22294  31.553  23.479  13.959  0.1677  0.2691 -0.0882
  929BOLB   C3D22295  31.583  23.011  13.823 -0.2017 -0.1834 -0.0172
  929BOLB   C4D22296  31.261  22.817  13.700  0.0915  0.0835  0.0049
  930BOLB   NC122297   8.170  15.980  15.262  0.2054 -0.0112 -0.0341
  930BOLB   PO122298   7.758  15.956  15.456 -0.0135 -0.0463  0.0278
  930BOLB   GL122299   7.722  15.556  15.608 -0.0158  0.4281  0.1227
  930BOLB   GL222300   7.505  15.437  15.903  0.1118 -0.3510  0.1732
  930BOLB   C1A22301   7.906  15.146  15.831  0.1533 -0.0335 -0.1038
  930BOLB   C2A22302   8.051  14.895  16.145  0.2290  0.1583 -0.4993
  930BOLB   C3A22303   7.867  14.773  16.470  0.0178 -0.1796 -0.0073
  930BOLB   C4A22304   7.940  14.380  16.551  0.1358  0.0192  0.3292
  930BOLB   C1B22305   7.538  14.982  16.090 -0.1088  0.1078  0.1685
  930BOLB   C2B22306   7.603  14.461  16.151  0.1792  0.2859 -0.3310
  930BOLB   C3B22307   7.739  14.011  16.217 -0.2213 -0.2406 -0.1118
  930BOLB   C4B22308   7.614  13.632  16.433  0.0211  0.2021 -0.4941
  930BOLB   NC222309   8.847  13.650  18.878  0.3525 -0.0007 -0.1360
  930BOLB   PO222310   8.653  13.278  18.665 -0.1992  0.0878  0.0133
  930BOLB   GL322311   8.403  13.571  18.494 -0.1926 -0.1592 -0.2261
  930BOLB   GL422312   8.611  13.751  18.433  0.0020  0.3427 -0.2815
  930BOLB   C1C22313   8.107  13.933  18.250 -0.0794 -0.0066  0.1346
  930BOLB   C2C22314   8.271  14.104  17.842 -0.0784  0.0103 -0.0407
  930BOLB   C3C22315   8.271  14.136  17.317 -0.1810 -0.0156 -0.0649
  930BOLB   C4C22316   7.967  14.138  16.952 -0.2636  0.0527 -0.2508
  930BOLB   C1D22317   8.663  14.009  18.158 -0.1971  0.1363  0.0610
  930BOLB   C2D22318   8.991  14.302  18.181 -0.1086 -0.0671  0.1942
  930BOLB   C3D22319   9.138  14.532  17.806 -0.1221 -0.0099  0.2886
  930BOLB   C4D22320   9.144  14.587  17.335  0.2009 -0.0324  0.2543
  931BOLB   NC122321   4.949  13.505   0.191 -0.2022 -0.2208 -0.3692
  931BOLB   PO122322   5.102  13.245   0.493  0.4720  0.0160  0.0716
  931BOLB   GL122323   5.157  13.321   1.017 -0.1485  0.0044  0.0340
  931BOLB   GL222324   5.357  13.116   1.311 -0.0144 -0.3576  0.0973
  931BOLB   C1A22325   5.291  13.611   1.299  0.0317  0.0783  0.2536
  931BOLB   C2A22326   5.454  13.908   1.695 -0.1302 -0.1663  0.1524
  931BOLB   C3A22327   5.269  13.864   2.110 -0.2163  0.2151  0.0169
  931BOLB   C4A22328   4.880  14.008   2.496 -0.0490 -0.2210 -0.0094
  931BOLB   C1B22329   5.485  13.233   1.592  0.1060  0.0398  0.2400
  931BOLB   C2B22330   5.588  13.509   1.940  0.2237  0.0586 -0.0252
  931BOLB   C3B22331   5.791  13.853   2.033  0.1732  0.1399  0.0254
  931BOLB   C4B22332   5.665  14.042   2.358  0.0909 -0.0878 -0.0581
  931BOLB   NC222333   5.337  12.000   1.631  0.0035  0.1400  0.0965
  931BOLB   PO222334   5.814  12.047   1.710  0.4008  0.1035 -0.1903
  931BOLB   GL322335   5.539  12.480   1.700  0.0396  0.3912 -0.2341
  931BOLB   GL422336   5.267  12.588   1.546  0.0968  0.0901 -0.0204
  931BOLB   C1C22337   5.528  12.863   2.092 -0.3544 -0.0988 -0.2390
  931BOLB   C2C22338   5.352  12.930   2.429 -0.0906  0.0096  0.3484
  931BOLB   C3C22339   4.997  13.195   2.556  0.1186  0.0944 -0.4415
  931BOLB   C4C22340   4.853  13.559   2.719 -0.1980  0.0693 -0.3368
  931BOLB   C1D22341   5.119  12.897   1.845  0.1552  0.0222  0.0055
  931BOLB   C2D22342   4.812  12.892   2.143 -0.1542  0.0921  0.1169
  931BOLB   C3D22343   4.566  13.005   2.583  0.0503  0.1267 -0.3257
  931BOLB   C4D22344   4.480  13.298   2.888 -0.1894  0.3902 -0.2575
  932BOLB   NC122345  36.265  20.566   0.120 -0.6654  0.0006  0.1941
  932BOLB   PO122346  36.562  20.785   0.230 -0.0631 -0.2424  0.1379
  932BOLB   GL122347  36.436  20.620   0.588  0.0252  0.1488  0.0166
  932BOLB   GL222348  36.227  20.847   0.872 -0.4727  0.1369 -0.2441
  932BOLB   C1A22349  36.319  20.256   0.936 -0.3346  0.1574 -0.2318
  932BOLB   C2A22350  36.404  19.893   1.100 -0.2734 -0.3686  0.2342
  932BOLB   C3A22351  36.676  19.578   1.188  0.0089  0.1043 -0.1584
  932BOLB   C4A22352  37.140  19.365   1.232 -0.0853  0.1113 -0.0846
  932BOLB   C1B22353  36.331  20.715   1.227 -0.2523 -0.0979  0.1085
  932BOLB   C2B22354  36.818  20.731   1.433  0.0987 -0.2486 -0.1748
  932BOLB   C3B22355  37.275  20.614   1.376  0.0481  0.1908  0.0579
  932BOLB   C4B22356  37.591  20.256   1.284  0.0508  0.2464 -0.3049
  932BOLB   NC222357  37.038  19.694  -0.814  0.0435  0.1845  0.0452
  932BOLB   PO222358  37.249  19.964  -0.496  0.1827  0.2530  0.2318
  932BOLB   GL322359  37.443  19.807  -0.101  0.0472  0.0238  0.3997
  932BOLB   GL422360  37.715  19.927   0.103 -0.1798  0.0531 -0.2815
  932BOLB   C1C22361  37.512  19.443   0.212  0.0339  0.0336 -0.2959
  932BOLB   C2C22362  37.611  19.093   0.476 -0.1652 -0.0683  0.2387
  932BOLB   C3C22363  37.784  19.077   0.862  0.0982 -0.0332  0.1350
  932BOLB   C4C22364  37.395  19.131   1.174 -0.1827 -0.0032  0.0392
  932BOLB   C1D22365  37.963  19.880   0.316 -0.2148 -0.1190  0.1606
  932BOLB   C2D22366  38.050  20.000   0.649  0.2391 -0.0663 -0.1458
  932BOLB   C3D22367  38.069  19.897   1.109  0.0333  0.0586 -0.0171
  932BOLB   C4D22368  38.346  19.689   1.465  0.3714 -0.1527  0.0723
  933BOLB   NC122369  31.739  13.109   6.869 -0.3191 -0.1769  0.0881
  933BOLB   PO122370  32.101  13.078   7.092  0.1295 -0.0152  0.0493
  933BOLB   GL122371  32.377  12.965   7.479 -0.0599  0.0644 -0.2637
  933BOLB   GL222372  32.650  12.701   7.604  0.2639  0.2772 -0.1071
  933BOLB   C1A22373  32.658  13.186   7.684  0.0031 -0.1730  0.3135
  933BOLB   C2A22374  32.783  13.308   8.140  0.1325 -0.0856  0.1055
  933BOLB   C3A22375  33.034  13.554   8.339 -0.3621  0.2868  0.1153
  933BOLB   C4A22376  33.198  13.935   8.150 -0.0639 -0.0366 -0.0238
  933BOLB   C1B22377  33.042  12.866   7.764  0.0445 -0.1028 -0.2964
  933BOLB   C2B22378  33.232  13.224   7.909 -0.0803  0.0705  0.2501
  933BOLB   C3B22379  33.075  13.620   7.789  0.0483  0.1110  0.0069
  933BOLB   C4B22380  32.808  13.893   7.716  0.1390 -0.1005 -0.1165
  933BOLB   NC222381  32.402  12.743   6.521 -0.0842  0.3848  0.1001
  933BOLB   PO222382  32.081  13.075   6.506  0.0698 -0.0850  0.3525
  933BOLB   GL322383  32.512  13.149   6.785 -0.1084  0.2374 -0.3725
  933BOLB   GL422384  32.793  13.114   6.645  0.0610 -0.0379 -0.2203
  933BOLB   C1C22385  32.711  13.425   7.110 -0.1374  0.0207 -0.4054
  933BOLB   C2C22386  32.911  13.862   7.238  0.1086  0.0941 -0.0649
  933BOLB   C3C22387  33.230  14.176   7.372 -0.3137  0.1933  0.0478
  933BOLB   C4C22388  33.171  14.252   7.754  0.1347 -0.0895  0.0730
  933BOLB   C1D22389  33.192  13.237   6.961 -0.0145 -0.0447 -0.1962
  933BOLB   C2D22390  33.629  13.197   7.184 -0.0574 -0.0373 -0.0798
  933BOLB   C3D22391  33.925  13.238   7.387 -0.0768  0.0362 -0.1235
  933BOLB   C4D22392  33.929  13.388   7.802  0.2129  0.0313 -0.1056
  934BOLB   NC122393  11.360  31.003   5.912 -0.1711 -0.3686 -0.1801
  934BOLB   PO122394  11.692  30.842   5.710 -0.1112 -0.1488 -0.3216
  934BOLB   GL122395  11.775  30.491   5.979  0.2732 -0.2041  0.1279
  934BOLB   GL222396  11.492  30.472   6.197  0.1057 -0.0459  0.2501
  934BOLB   C1A22397  11.694  30.064   5.891 -0.0811 -0.0594 -0.0363
  934BOLB   C2A22398  11.479  29.662   6.009 -0.1780 -0.0203 -0.1149
  934BOLB   C3A22399  11.191  29.370   6.196 -0.0119  0.0188  0.2995
  934BOLB   C4A22400  10.732  29.259   6.155  0.1269  0.1018  0.0809
  934BOLB   C1B22401  11.364  30.103   6.303 -0.1061 -0.0613  0.1174
  934BOLB   C2B22402  11.024  29.818   6.623 -0.0268  0.1030  0.0374
  934BOLB   C3B22403  10.790  29.465   6.697  0.1345 -0.2437  0.0658
  934BOLB   C4B22404  10.571  29.130   6.929  0.3502 -0.1351  0.0963
  934BOLB   NC222405  10.764  31.782   5.835  0.0201  0.1173  0.0490
  934BOLB   PO222406  10.383  31.620   5.984  0.2033  0.0173  0.0505
  934BOLB   GL322407  10.503  31.214   6.228  0.1097 -0.1366 -0.1020
  934BOLB   GL422408  10.313  31.439   6.429  0.1387 -0.2209 -0.1396
  934BOLB   C1C22409  10.315  30.831   6.041  0.0919  0.3224  0.0167
  934BOLB   C2C22410  10.326  30.385   6.107  0.1298 -0.0752  0.2433
  934BOLB   C3C22411  10.247  30.001   6.112  0.2525  0.2353 -0.4888
  934BOLB   C4C22412  10.408  29.571   6.246  0.1736  0.1794  0.1237
  934BOLB   C1D22413   9.995  31.310   6.718 -0.2834  0.0062 -0.2406
  934BOLB   C2D22414  10.009  31.051   7.137  0.0956  0.0274  0.0562
  934BOLB   C3D22415   9.636  30.827   7.217 -0.3512 -0.4550  0.2532
  934BOLB   C4D22416   9.151  30.968   7.231 -0.1758  0.5144 -0.1093
  935BOLB   NC122417  10.383  13.946   9.142  0.0446 -0.1995 -0.4178
  935BOLB   PO122418  10.294  13.725   8.721  0.3678  0.1740  0.1527
  935BOLB   GL122419  10.365  13.378   8.628 -0.2969  0.0261 -0.0190
  935BOLB   GL222420  10.190  13.290   8.445  0.2352  0.1059  0.1270
  935BOLB   C1A22421  10.741  13.260   8.269 -0.1796  0.0286  0.0165
  935BOLB   C2A22422  11.068  12.988   8.025 -0.2966 -0.0192 -0.0782
  935BOLB   C3A22423  11.225  12.539   7.787 -0.2676  0.0015  0.1824
  935BOLB   C4A22424  11.550  12.273   7.927  0.2527 -0.2185 -0.0304
  935BOLB   C1B22425  10.394  12.963   8.164  0.5707 -0.0709 -0.2122
  935BOLB   C2B22426  10.681  12.592   8.033 -0.0692  0.4760 -0.0987
  935BOLB   C3B22427  10.800  12.277   7.729  0.1945  0.3359  0.1765
  935BOLB   C4B22428  10.787  12.210   7.254 -0.0058  0.2176 -0.2422
  935BOLB   NC222429  14.329  11.184   8.491  0.0408 -0.0550 -0.1856
  935BOLB   PO222430  14.047  11.399   8.149 -0.1136 -0.0922  0.3469
  935BOLB   GL322431  13.597  11.553   8.151 -0.0438  0.1281  0.2584
  935BOLB   GL422432  13.533  11.712   7.946 -0.0037 -0.1008  0.4172
  935BOLB   C1C22433  13.127  11.604   8.205  0.1391 -0.1885 -0.0767
  935BOLB   C2C22434  12.655  11.611   8.219  0.0375  0.0277 -0.0462
  935BOLB   C3C22435  12.219  11.816   8.091 -0.4205  0.0039 -0.0530
  935BOLB   C4C22436  11.926  12.191   7.911  0.1946  0.0877  0.0226
  935BOLB   C1D22437  13.239  11.904   7.684  0.0612  0.1128 -0.1152
  935BOLB   C2D22438  12.878  12.312   7.642 -0.1893  0.1929  0.0093
  935BOLB   C3D22439  12.885  12.748   7.653  0.2061 -0.0280  0.1695
  935BOLB   C4D22440  13.063  13.110   7.559  0.2246 -0.3779 -0.0306
  936BOLB   NC122441  29.370  23.794   8.951  0.0460 -0.1389 -0.0891
  936BOLB   PO122442  29.684  23.955   9.194  0.2128  0.0314  0.0831
  936BOLB   GL122443  30.172  23.913   9.036 -0.1266  0.0609 -0.1047
  936BOLB   GL222444  30.284  24.189   8.784  0.1002  0.1957 -0.4039
  936BOLB   C1A22445  30.458  23.723   8.804  0.0806  0.0437 -0.1064
  936BOLB   C2A22446  30.937  23.666   8.981  0.0393 -0.1151 -0.0322
  936BOLB   C3A22447  31.077  23.821   9.363  0.2526  0.0630  0.1532
  936BOLB   C4A22448  31.116  24.055   9.727  0.0338 -0.3779 -0.1221
  936BOLB   C1B22449  30.111  23.838   8.460  0.4005 -0.1782 -0.0750
  936BOLB   C2B22450  30.285  23.449   8.152  0.0544  0.2410  0.1977
  936BOLB   C3B22451  30.172  23.001   8.177  0.2315  0.2281 -0.1198
  936BOLB   C4B22452  30.072  22.575   8.493  0.0849 -0.2064 -0.0475
  936BOLB   NC222453  31.633  26.584  10.362  0.0672 -0.2983  0.0998
  936BOLB   PO222454  31.507  26.164  10.107  0.1256  0.1933 -0.2418
  936BOLB   GL322455  31.659  25.830  10.288 -0.1193 -0.0239  0.2800
  936BOLB   GL422456  31.954  25.864  10.135  0.2748  0.1225 -0.2945
  936BOLB   C1C22457  31.816  25.412   9.990 -0.0196  0.0863  0.1589
  936BOLB   C2C22458  31.713  24.937   9.915  0.1646  0.2249 -0.1231
  936BOLB   C3C22459  31.583  24.673   9.991 -0.1650 -0.2030 -0.1598
  936BOLB   C4C22460  31.439  24.370  10.030  0.2198 -0.0975 -0.1677
  936BOLB   C1D22461  32.222  25.549  10.267  0.0496 -0.0213 -0.1285
  936BOLB   C2D22462  32.506  25.201  10.260  0.1557  0.3946  0.0082
  936BOLB   C3D22463  32.595  24.768  10.259 -0.0099 -0.1553  0.1643
  936BOLB   C4D22464  33.003  24.456  10.397  0.0295 -0.2854 -0.0125
  937BOLB   NC122465   7.003   9.523  12.844 -0.0385  0.2101 -0.0754
  937BOLB   PO122466   7.366   9.729  12.768 -0.3283  0.0202  0.3413
  937BOLB   GL122467   7.608  10.020  12.498 -0.1096 -0.1641  0.0489
  937BOLB   GL222468   7.345  10.205  12.301 -0.1340 -0.1759  0.3557
  937BOLB   C1A22469   7.733  10.482  12.511 -0.3654  0.1812  0.0937
  937BOLB   C2A22470   7.799  10.978  12.554 -0.2169 -0.1266 -0.0445
  937BOLB   C3A22471   8.155  11.237  12.612 -0.0723 -0.1215  0.0161
  937BOLB   C4A22472   8.125  11.656  12.839 -0.0788 -0.1849  0.1117
  937BOLB   C1B22473   6.923  10.324  12.209  0.0765 -0.0278  0.7566
  937BOLB   C2B22474   6.595  10.522  11.947 -0.2318  0.1506 -0.0737
  937BOLB   C3B22475   6.222  10.363  11.770  0.1912  0.1347 -0.1011
  937BOLB   C4B22476   6.272   9.925  11.581 -0.1664 -0.1173  0.1379
  937BOLB   NC222477   8.422  10.515  15.172  0.0186 -0.0360 -0.2415
  937BOLB   PO222478   7.922  10.539  15.090  0.1752 -0.3525 -0.2585
  937BOLB   GL322479   8.033  10.884  14.905  0.0365 -0.0119  0.3643
  937BOLB   GL422480   8.373  11.021  14.923  0.3113  0.0897 -0.1848
  937BOLB   C1C22481   8.158  11.085  14.494  0.4259  0.0591  0.0109
  937BOLB   C2C22482   8.030  11.295  14.090 -0.0690 -0.0140  0.3122
  937BOLB   C3C22483   7.949  11.448  13.643  0.3222  0.0176 -0.1598
  937BOLB   C4C22484   8.155  11.619  13.278  0.2932 -0.1939  0.0459
  937BOLB   C1D22485   8.302  11.501  14.921  0.3281 -0.1479 -0.1053
  937BOLB   C2D22486   8.079  11.809  14.958 -0.2687 -0.1197  0.0138
  937BOLB   C3D22487   7.638  11.957  14.894  0.2370 -0.1941 -0.2400
  937BOLB   C4D22488   7.225  12.038  14.892  0.1509  0.1595 -0.2683
  938BOLB   NC122489  36.587   7.291  10.565  0.2898 -0.0926  0.0559
  938BOLB   PO122490  36.462   7.746  10.495  0.3129  0.0902 -0.0109
  938BOLB   GL122491  36.707   8.052  10.360  0.0625  0.0330  0.2743
  938BOLB   GL222492  36.459   8.222  10.179  0.0526  0.2175  0.3886
  938BOLB   C1A22493  36.990   8.118  10.017 -0.1548 -0.1645  0.1456
  938BOLB   C2A22494  37.273   8.461  10.008  0.1803  0.3548 -0.0118
  938BOLB   C3A22495  37.311   8.937   9.650  0.1450 -0.2019  0.0116
  938BOLB   C4A22496  37.758   9.152   9.565 -0.3838 -0.0186 -0.0398
  938BOLB   C1B22497  36.807   8.573  10.140  0.0792  0.1112  0.0187
  938BOLB   C2B22498  37.069   8.897  10.242 -0.3342 -0.3526 -0.0112
  938BOLB   C3B22499  37.044   9.222  10.640  0.0451 -0.2069  0.0568
  938BOLB   C4B22500  36.758   9.420  10.678  0.1908  0.0649 -0.2748
  938BOLB   NC222501  38.273   6.856  10.247  0.0181  0.2330  0.0464
  938BOLB   PO222502  38.283   6.896  10.648  0.0113 -0.1255  0.0747
  938BOLB   GL322503  38.411   7.321  10.682  0.0883  0.0639 -0.0396
  938BOLB   GL422504  38.736   7.275  10.464 -0.0771  0.1602 -0.1644
  938BOLB   C1C22505  38.374   7.780  10.537 -0.3567 -0.0219  0.0466
  938BOLB   C2C22506  38.121   8.136  10.316  0.0777 -0.0932 -0.4514
  938BOLB   C3C22507  38.032   8.433   9.896  0.0255  0.2217  0.1444
  938BOLB   C4C22508  38.077   8.863   9.742  0.0975 -0.4673  0.1347
  938BOLB   C1D22509  38.589   7.567  10.109  0.2617 -0.0371 -0.1120
  938BOLB   C2D22510  38.683   7.540   9.587 -0.1491 -0.0199  0.3838
  938BOLB   C3D22511  38.541   7.793   9.312  0.0432 -0.0407 -0.1336
  938BOLB   C4D22512  38.543   8.078   9.051 -0.0641 -0.2812  0.1029
  939BOLB   NC122513  11.398  14.660  10.248 -0.0465 -0.1939  0.0939
  939BOLB   PO122514  11.216  14.384  10.064 -0.1498 -0.2343  0.0160
  939BOLB   GL122515  11.521  14.122   9.905  0.1600 -0.2884  0.2734
  939BOLB   GL222516  11.868  14.300   9.727  0.1965 -0.1734  0.0956
  939BOLB   C1A22517  11.640  13.732   9.951 -0.0649  0.1079 -0.0767
  939BOLB   C2A22518  11.861  13.338   9.829  0.0917 -0.1564  0.0931
  939BOLB   C3A22519  12.309  13.179   9.917  0.2058  0.2500  0.1042
  939BOLB   C4A22520  12.669  13.137   9.686  0.0570  0.1360  0.0498
  939BOLB   C1B22521  12.214  14.084   9.662  0.1945 -0.0499  0.0204
  939BOLB   C2B22522  12.455  13.742   9.974  0.3587  0.2172  0.2507
  939BOLB   C3B22523  12.692  13.519  10.090 -0.2135  0.0433  0.0775
  939BOLB   C4B22524  13.090  13.324  10.039  0.1283 -0.2576  0.0098
  939BOLB   NC222525  14.237  11.686  10.255  0.0145  0.0823  0.2119
  939BOLB   PO222526  14.031  11.865  10.598 -0.4637 -0.1205 -0.1700
  939BOLB   GL322527  13.873  12.188  10.383  0.3253  0.0248 -0.3695
  939BOLB   GL422528  14.021  12.509  10.170  0.0353 -0.0369 -0.0397
  939BOLB   C1C22529  13.708  12.147   9.958 -0.4657  0.1376  0.0945
  939BOLB   C2C22530  13.508  12.441   9.712  0.0914  0.0150  0.2929
  939BOLB   C3C22531  13.294  12.677   9.541 -0.0191  0.1194  0.1851
  939BOLB   C4C22532  13.023  13.081   9.423  0.2479  0.2125  0.0549
  939BOLB   C1D22533  14.004  12.648  10.552 -0.0350 -0.2703  0.0740
  939BOLB   C2D22534  13.648  12.869  10.737 -0.0803  0.2007 -0.2636
  939BOLB   C3D22535  13.328  13.150  10.673  0.1804  0.1547  0.1884
  939BOLB   C4D22536  12.920  13.200  10.455 -0.0234 -0.0909  0.0892
  940BOLB   NC122537   8.702  28.456  11.890 -0.2434  0.0962  0.0757
  940BOLB   PO122538   8.986  28.787  11.824 -0.2470  0.1512 -0.0308
  940BOLB   GL122539   8.891  29.105  11.999 -0.0309  0.2055  0.0882
  940BOLB   GL222540   8.618  29.173  11.759 -0.0695 -0.1423 -0.1041
  940BOLB   C1A22541   9.193  29.375  12.088  0.2619 -0.0889 -0.1826
  940BOLB   C2A22542   9.359  29.843  12.015  0.0760  0.4553 -0.0357
  940BOLB   C3A22543   9.537  30.127  11.749  0.0776 -0.0064  0.3629
  940BOLB   C4A22544   9.961  30.174  11.662  0.0167  0.0832 -0.4592
  940BOLB   C1B22545   8.879  29.553  11.773  0.0783  0.0795  0.2293
  940BOLB   C2B22546   8.898  29.922  12.021 -0.1141 -0.1192  0.0431
  940BOLB   C3B22547   9.058  30.221  12.193  0.0844  0.4348  0.1448
  940BOLB   C4B22548   9.417  30.225  12.406  0.0159  0.0735 -0.4087
  940BOLB   NC222549  10.869  32.319  12.046  0.2415 -0.1178 -0.0546
  940BOLB   PO222550  11.325  32.321  12.053  0.2139  0.2472  0.0222
  940BOLB   GL322551  11.179  31.938  12.025 -0.1504 -0.1060 -0.0363
  940BOLB   GL422552  11.417  31.724  12.122 -0.1803 -0.0925  0.0744
  940BOLB   C1C22553  10.884  31.561  11.961 -0.2662  0.0394  0.0364
  940BOLB   C2C22554  10.760  31.172  12.183  0.1708 -0.0566  0.0930
  940BOLB   C3C22555  10.523  30.784  12.161  0.1000 -0.1851  0.1666
  940BOLB   C4C22556  10.346  30.441  11.819 -0.1175 -0.2657  0.0986
  940BOLB   C1D22557  11.345  31.321  12.052  0.0685  0.2613  0.0658
  940BOLB   C2D22558  11.533  31.005  11.861 -0.1785 -0.0022 -0.3571
  940BOLB   C3D22559  11.474  30.532  11.823 -0.0645  0.1342  0.2790
  940BOLB   C4D22560  11.236  30.342  11.471 -0.2290 -0.1550 -0.0649
  941BOLB   NC122561  32.392  25.241  14.252  0.2593  0.0468  0.3684
  941BOLB   PO122562  32.381  25.496  13.937 -0.1280  0.1266  0.1439
  941BOLB   GL122563  32.484  24.993  13.736  0.0500  0.2909 -0.2068
  941BOLB   GL222564  32.267  24.860  13.669  0.0200  0.2547 -0.1365
  941BOLB   C1A22565  32.806  24.959  13.400  0.1836 -0.4137  0.1217
  941BOLB   C2A22566  32.973  24.657  13.029 -0.0261  0.0042 -0.0352
  941BOLB   C3A22567  32.927  24.252  12.844  0.1620  0.1558 -0.3269
  941BOLB   C4A22568  32.564  23.974  12.793  0.0814  0.0140  0.0517
  941BOLB   C1B22569  32.183  24.685  13.388 -0.3347 -0.1822 -0.0173
  941BOLB   C2B22570  31.885  24.336  13.446  0.0886  0.1269 -0.1128
  941BOLB   C3B22571  31.806  23.962  13.535  0.0764  0.1220 -0.1674
  941BOLB   C4B22572  31.498  23.630  13.451  0.2008  0.5029 -0.0560
  941BOLB   NC222573  30.564  24.975  12.869  0.1916  0.0280 -0.1517
  941BOLB   PO222574  30.376  24.641  12.944  0.0010  0.2267 -0.0596
  941BOLB   GL322575  30.764  24.476  12.978 -0.2137 -0.2685  0.0016
  941BOLB   GL422576  30.840  24.292  13.251 -0.2340 -0.0938  0.1563
  941BOLB   C1C22577  31.044  24.116  12.829  0.0695 -0.0378 -0.0002
  941BOLB   C2C22578  31.248  23.823  13.069 -0.1776  0.2146  0.0841
  941BOLB   C3C22579  31.709  23.959  13.051 -0.2639  0.4055  0.2662
  941BOLB   C4C22580  32.137  23.900  13.000  0.0805  0.2267 -0.3593
  941BOLB   C1D22581  30.983  23.875  13.500 -0.0330 -0.0244  0.1034
  941BOLB   C2D22582  31.040  23.427  13.684 -0.1248  0.0248 -0.1010
  941BOLB   C3D22583  30.833  23.118  13.938 -0.5133  0.3504  0.1753
  941BOLB   C4D22584  30.666  22.706  13.710 -0.1215  0.0933  0.3199
  942BOLB   NC122585   8.122   8.863   8.464 -0.0957  0.1386  0.4779
  942BOLB   PO122586   7.783   9.100   8.204 -0.2626  0.3161 -0.0833
  942BOLB   GL122587   7.807   9.468   8.532  0.0016 -0.0460 -0.0282
  942BOLB   GL222588   7.437   9.544   8.442 -0.1937  0.2862 -0.1354
  942BOLB   C1A22589   8.055   9.750   8.747 -0.2212 -0.0688 -0.1426
  942BOLB   C2A22590   8.408  10.060   9.104  0.2505  0.0297  0.2754
  942BOLB   C3A22591   8.232  10.318   9.471 -0.0906  0.0596  0.2553
  942BOLB   C4A22592   8.404  10.722   9.836  0.0566 -0.3241  0.1205
  942BOLB   C1B22593   7.175   9.959   8.349 -0.1392  0.2187 -0.3055
  942BOLB   C2B22594   6.924  10.231   8.088 -0.0751 -0.0247 -0.3877
  942BOLB   C3B22595   6.770  10.598   8.276 -0.0846  0.0663  0.4631
  942BOLB   C4B22596   6.557  11.009   8.572  0.1011 -0.0027  0.4187
  942BOLB   NC222597   8.857   9.172  10.598 -0.0407 -0.2613 -0.1134
  942BOLB   PO222598   9.088   9.217  10.953 -0.0160  0.2461  0.0285
  942BOLB   GL322599   9.021   9.634  10.818  0.1911 -0.0397 -0.0487
  942BOLB   GL422600   8.881   9.927  10.890  0.2193  0.2321  0.0993
  942BOLB   C1C22601   9.316   9.988  10.667  0.4183 -0.0726  0.1198
  942BOLB   C2C22602   9.062  10.372  10.642 -0.4105 -0.2900 -0.0270
  942BOLB   C3C22603   8.730  10.684  10.550 -0.3540 -0.2739  0.4772
  942BOLB   C4C22604   8.661  10.843  10.206 -0.0491 -0.1091 -0.2018
  942BOLB   C1D22605   8.522  10.238  10.818  0.2736  0.0250 -0.1363
  942BOLB   C2D22606   8.277  10.583  10.786  0.0854  0.2494  0.2511
  942BOLB   C3D22607   7.841  10.634  10.627 -0.2831  0.1742 -0.1032
  942BOLB   C4D22608   7.655  10.903  10.412 -0.1498 -0.4062 -0.4089
  943BOLB   NC122609  18.400  25.329   6.566 -0.0976  0.0695 -0.1691
  943BOLB   PO122610  18.156  25.331   6.869  0.0639 -0.2916 -0.2854
  943BOLB   GL122611  17.798  25.566   6.991  0.0525 -0.3625  0.0209
  943BOLB   GL222612  17.585  25.346   6.749  0.0637  0.3232 -0.0807
  943BOLB   C1A22613  17.508  25.580   7.324 -0.1605 -0.0012  0.0246
  943BOLB   C2A22614  17.191  25.419   7.511  0.0761 -0.1614  0.0123
  943BOLB   C3A22615  16.929  25.164   7.692  0.2780  0.1488  0.0418
  943BOLB   C4A22616  16.864  24.855   7.910  0.5071  0.1662 -0.2342
  943BOLB   C1B22617  17.121  25.406   6.603  0.0075  0.4048 -0.0168
  943BOLB   C2B22618  16.801  25.217   6.622 -0.3342  0.0086 -0.4517
  943BOLB   C3B22619  16.604  25.063   6.790  0.1581  0.0550  0.1702
  943BOLB   C4B22620  16.475  24.680   6.945  0.0114 -0.3076 -0.1670
  943BOLB   NC222621  18.579  26.334   9.017 -0.0689 -0.1074 -0.0924
  943BOLB   PO222622  18.188  26.358   8.893  0.0059  0.0428 -0.1958
  943BOLB   GL322623  17.713  26.204   8.755 -0.0833 -0.1096 -0.1763
  943BOLB   GL422624  17.596  26.411   8.409 -0.2755  0.1254 -0.0967
  943BOLB   C1C22625  17.594  25.765   8.612 -0.2053  0.3439 -0.1326
  943BOLB   C2C22626  17.370  25.335   8.781 -0.1831  0.0579 -0.2180
  943BOLB   C3C22627  16.978  25.186   8.611 -0.3916 -0.2225 -0.0179
  943BOLB   C4C22628  16.821  24.835   8.371 -0.1531  0.1890  0.2206
  943BOLB   C1D22629  17.334  26.089   8.424 -0.2747  0.0142 -0.1522
  943BOLB   C2D22630  17.090  25.613   8.378  0.0502  0.0657 -0.2088
  943BOLB   C3D22631  16.774  25.294   8.154 -0.0688  0.2198 -0.4198
  943BOLB   C4D22632  16.467  25.156   8.430  0.3142  0.3165  0.0687
  944BOLB   NC122633  34.644   9.291   8.165  0.1178 -0.2783  0.1833
  944BOLB   PO122634  34.971   9.507   8.206  0.0182 -0.1500 -0.0622
  944BOLB   GL122635  35.207   9.558   8.484 -0.0568 -0.3849  0.0036
  944BOLB   GL222636  35.153   9.332   8.852 -0.4752 -0.1677 -0.0550
  944BOLB   C1A22637  35.580   9.811   8.601  0.1696  0.2319 -0.1358
  944BOLB   C2A22638  35.934  10.096   8.635  0.1219 -0.3684 -0.3283
  944BOLB   C3A22639  36.260  10.106   8.937 -0.0239  0.1627  0.0593
  944BOLB   C4A22640  36.789   9.926   8.871 -0.0116  0.1532  0.1076
  944BOLB   C1B22641  35.614   9.505   9.044 -0.3386  0.0590 -0.2570
  944BOLB   C2B22642  36.061   9.628   8.947  0.3394 -0.0863 -0.1022
  944BOLB   C3B22643  36.513   9.687   9.205 -0.4821 -0.0370 -0.3095
  944BOLB   C4B22644  36.852   9.420   9.399  0.0734  0.0397 -0.1288
  944BOLB   NC222645  36.042   8.249   9.948  0.2033 -0.2002  0.2599
  944BOLB   PO222646  35.979   8.059   9.568  0.0621 -0.0971 -0.1248
  944BOLB   GL322647  36.130   8.392   9.220  0.4720  0.2392 -0.0203
  944BOLB   GL422648  36.121   8.794   9.225  0.2935 -0.0901 -0.2553
  944BOLB   C1C22649  36.588   8.504   9.250 -0.4360 -0.2087  0.3589
  944BOLB   C2C22650  37.006   8.865   9.242  0.3698  0.0548  0.2804
  944BOLB   C3C22651  37.183   9.218   8.996  0.1706  0.0646  0.1743
  944BOLB   C4C22652  36.946   9.406   8.882  0.4840  0.2011  0.1630
  944BOLB   C1D22653  36.032   9.152   9.200 -0.3455 -0.2159  0.0085
  944BOLB   C2D22654  36.183   9.346   9.435  0.0299 -0.1405  0.2661
  944BOLB   C3D22655  36.480   9.387   9.806 -0.1508 -0.1504 -0.0714
  944BOLB   C4D22656  36.874   9.160   9.831 -0.2248  0.2209 -0.1641
  945BOLB   NC122657   4.905   7.585  10.913 -0.0484  0.2668 -0.3710
  945BOLB   PO122658   4.734   7.882  11.263 -0.2086 -0.2375  0.3566
  945BOLB   GL122659   4.542   7.965  10.881  0.1488  0.1561 -0.1966
  945BOLB   GL222660   4.632   8.257  10.886  0.2211  0.1098 -0.0650
  945BOLB   C1A22661   4.181   8.004  10.582 -0.1113 -0.1043 -0.2238
  945BOLB   C2A22662   3.852   8.215  10.180  0.2505  0.0352 -0.2491
  945BOLB   C3A22663   3.536   8.302   9.860  0.0475  0.1173 -0.2339
  945BOLB   C4A22664   3.533   7.981   9.506 -0.0676 -0.0184 -0.0003
  945BOLB   C1B22665   4.184   8.544  10.868  0.0343  0.0199 -0.2524
  945BOLB   C2B22666   3.800   8.691  10.623 -0.0058 -0.0571  0.2035
  945BOLB   C3B22667   3.793   8.780  10.201 -0.1707 -0.0319  0.0886
  945BOLB   C4B22668   4.091   8.649   9.829  0.2437 -0.0767 -0.0904
  945BOLB   NC222669   3.173   7.119   7.650  0.2819  0.2212 -0.0946
  945BOLB   PO222670   3.554   6.927   7.939  0.1050  0.0727 -0.2106
  945BOLB   GL322671   3.765   7.340   8.122 -0.0972 -0.1352 -0.3022
  945BOLB   GL422672   3.909   7.241   8.377  0.0312  0.0264 -0.2247
  945BOLB   C1C22673   3.658   7.797   8.197  0.0428  0.4213  0.2898
  945BOLB   C2C22674   3.383   7.934   8.419 -0.0550 -0.2365  0.1297
  945BOLB   C3C22675   3.268   7.865   8.731 -0.1267  0.0403 -0.1960
  945BOLB   C4C22676   3.418   7.814   9.142 -0.2268 -0.1403 -0.0634
  945BOLB   C1D22677   3.583   7.526   8.587  0.0727 -0.0757 -0.1729
  945BOLB   C2D22678   3.328   7.340   8.907 -0.0306  0.2503  0.2506
  945BOLB   C3D22679   2.965   7.455   9.101  0.2228  0.0982 -0.2679
  945BOLB   C4D22680   2.683   7.689   8.954 -0.1660 -0.1831 -0.0543
  946BOLB   NC122681  10.380  13.691   0.880  0.0226 -0.1389  0.4645
  946BOLB   PO122682  10.895  13.656   0.927  0.0598 -0.0534  0.1543
  946BOLB   GL122683  10.670  13.854   1.224  0.1211 -0.1373 -0.2666
  946BOLB   GL222684  10.454  13.680   1.463 -0.2259 -0.1166 -0.2762
  946BOLB   C1A22685  10.396  14.190   1.467  0.0601 -0.0768  0.2062
  946BOLB   C2A22686  10.305  14.600   1.553 -0.0711 -0.0012  0.0157
  946BOLB   C3A22687  10.444  14.941   1.635  0.0477  0.1723  0.0152
  946BOLB   C4A22688  10.356  15.176   2.048 -0.0110  0.0276  0.1020
  946BOLB   C1B22689  10.594  13.867   1.884  0.0851 -0.1683  0.2923
  946BOLB   C2B22690  10.659  14.009   2.310  0.0271  0.0097 -0.2466
  946BOLB   C3B22691  10.448  14.394   2.547 -0.3707  0.1604  0.1716
  946BOLB   C4B22692  10.058  14.511   2.539  0.0478 -0.2227  0.2072
  946BOLB   NC222693   9.032  17.293   2.883  0.7874  0.1852 -0.1223
  946BOLB   PO222694   9.517  17.228   3.056 -0.2020  0.0059 -0.1145
  946BOLB   GL322695   9.451  16.920   2.751 -0.0816 -0.0350 -0.1355
  946BOLB   GL422696   9.110  17.005   2.461 -0.0007  0.0151 -0.2716
  946BOLB   C1C22697   9.801  16.709   2.521 -0.2543 -0.2773 -0.0221
  946BOLB   C2C22698  10.117  16.364   2.433  0.2105  0.0846  0.2710
  946BOLB   C3C22699  10.252  16.002   2.278  0.1382 -0.0669  0.3227
  946BOLB   C4C22700  10.120  15.580   2.294  0.2644 -0.1982  0.0011
  946BOLB   C1D22701   9.095  16.838   2.026 -0.1911 -0.1634 -0.0931
  946BOLB   C2D22702   9.512  16.629   1.782  0.1448 -0.2609 -0.1779
  946BOLB   C3D22703   9.862  16.632   1.531 -0.0317 -0.0581  0.3058
  946BOLB   C4D22704  10.281  16.341   1.423  0.2147  0.0685  0.3574
  947BOLB   NC122705  31.578  18.517  19.535 -0.4199  0.4520 -0.0228
  947BOLB   PO122706  31.436  18.145  19.161 -0.5150  0.2792  0.4526
  947BOLB   GL122707  31.670  18.264  18.792  0.2189  0.3006  0.1574
  947BOLB   GL222708  31.883  18.516  18.845 -0.0512 -0.0164  0.0270
  947BOLB   C1A22709  31.932  18.259  18.388  0.0072 -0.2308  0.0499
  947BOLB   C2A22710  32.256  18.340  18.050  0.3243 -0.2821 -0.1750
  947BOLB   C3A22711  32.650  18.015  18.018  0.1369 -0.2919 -0.2074
  947BOLB   C4A22712  32.771  17.922  17.621  0.1234 -0.0496  0.1058
  947BOLB   C1B22713  32.187  18.067  18.802  0.0866  0.1153 -0.4430
  947BOLB   C2B22714  32.665  18.025  18.716  0.0511  0.0228 -0.0088
  947BOLB   C3B22715  32.997  18.211  18.854  0.0951  0.2674  0.1457
  947BOLB   C4B22716  33.331  18.515  18.751  0.2403 -0.1236 -0.1843
  947BOLB   NC222717  31.371  16.339  17.902 -0.0503  0.1111  0.1934
  947BOLB   PO222718  31.131  16.611  17.766 -0.2807 -0.1171 -0.1111
  947BOLB   GL322719  31.414  16.911  17.714  0.1759  0.1463  0.3774
  947BOLB   GL422720  31.570  16.903  17.990 -0.0891 -0.1661 -0.1705
  947BOLB   C1C22721  31.738  17.080  17.441 -0.1346  0.1166  0.1502
  947BOLB   C2C22722  32.147  17.010  17.596  0.2067 -0.1013 -0.0038
  947BOLB   C3C22723  32.476  17.267  17.662  0.0849  0.1022 -0.0885
  947BOLB   C4C22724  32.800  17.488  17.484  0.1818 -0.0393  0.2855
  947BOLB   C1D22725  31.796  17.275  17.893  0.1550 -0.0196  0.0772
  947BOLB   C2D22726  32.058  17.488  17.631  0.5195 -0.4416  0.1789
  947BOLB   C3D22727  32.369  17.698  17.266  0.0108 -0.1107 -0.1273
  947BOLB   C4D22728  32.460  17.634  16.790  0.0549 -0.0231  0.3155
  948BOLB   NC122729   5.438  28.550   0.982  0.0375  0.3251  0.0117
  948BOLB   PO122730   5.146  28.133   0.926 -0.1198 -0.2014  0.2153
  948BOLB   GL122731   5.374  27.879   1.219 -0.3919  0.2642  0.3208
  948BOLB   GL222732   5.587  28.015   1.353 -0.1464 -0.1623  0.1866
  948BOLB   C1A22733   5.507  27.470   1.355 -0.0723  0.1527  0.0351
  948BOLB   C2A22734   5.719  27.166   1.573  0.0195  0.0944 -0.2495
  948BOLB   C3A22735   5.971  26.866   1.715  0.1326  0.0143 -0.1138
  948BOLB   C4A22736   6.077  26.585   2.091 -0.1556 -0.1437 -0.2599
  948BOLB   C1B22737   5.915  27.936   1.764 -0.0696 -0.1901 -0.0288
  948BOLB   C2B22738   6.011  27.941   2.099 -0.4696  0.1404  0.1404
  948BOLB   C3B22739   6.072  27.971   2.589  0.1945  0.2132 -0.2429
  948BOLB   C4B22740   6.046  28.086   3.004  0.0321 -0.0797 -0.0531
  948BOLB   NC222741   5.331  25.572   4.395 -0.1461  0.0960  0.0738
  948BOLB   PO222742   5.738  25.428   4.153  0.0810 -0.1170 -0.3871
  948BOLB   GL322743   5.581  25.743   3.970 -0.1344  0.1351 -0.0726
  948BOLB   GL422744   5.740  26.037   4.063  0.0035  0.0718  0.3677
  948BOLB   C1C22745   5.556  25.859   3.518 -0.0589  0.1200  0.0815
  948BOLB   C2C22746   5.883  25.994   3.180  0.1428  0.3592  0.1689
  948BOLB   C3C22747   5.821  26.158   2.762 -0.0331 -0.0373 -0.0605
  948BOLB   C4C22748   5.848  26.428   2.452 -0.1287  0.2535  0.2491
  948BOLB   C1D22749   5.711  26.297   3.764  0.1309  0.0275 -0.1859
  948BOLB   C2D22750   5.547  26.588   3.496  0.3277 -0.1000  0.0418
  948BOLB   C3D22751   5.282  26.801   3.230  0.0904 -0.1352 -0.0477
  948BOLB   C4D22752   4.915  27.067   3.061  0.0366 -0.0590 -0.0484
  949BOLB   NC122753  29.646  19.752  15.850  0.1108 -0.1759 -0.0180
  949BOLB   PO122754  29.636  19.732  16.383 -0.0964 -0.0966  0.0268
  949BOLB   GL122755  29.939  19.967  16.209  0.0255  0.1696 -0.1400
  949BOLB   GL222756  29.981  20.314  16.012  0.3846  0.5289 -0.4458
  949BOLB   C1A22757  30.342  19.950  16.010 -0.1884 -0.1180 -0.3821
  949BOLB   C2A22758  30.610  20.296  15.917  0.1572  0.0468 -0.1036
  949BOLB   C3A22759  30.949  20.524  15.795  0.3284 -0.1532 -0.0445
  949BOLB   C4A22760  30.920  20.790  15.442  0.1730  0.2709  0.0227
  949BOLB   C1B22761  30.336  20.540  16.319 -0.1380  0.0008  0.0624
  949BOLB   C2B22762  30.604  20.710  16.184 -0.1677 -0.0143  0.2292
  949BOLB   C3B22763  31.116  20.747  16.217  0.0795  0.1018 -0.0611
  949BOLB   C4B22764  31.160  21.226  16.304  0.0280 -0.0770  0.1039
  949BOLB   NC222765  29.385  20.356  14.384 -0.1220  0.1719 -0.0513
  949BOLB   PO222766  29.320  20.466  13.984  0.2729 -0.1947 -0.3334
  949BOLB   GL322767  29.740  20.520  14.027  0.1876 -0.0113 -0.1449
  949BOLB   GL422768  29.961  20.220  14.032 -0.1886 -0.1861  0.1572
  949BOLB   C1C22769  30.101  20.763  14.094  0.0034 -0.2240 -0.1574
  949BOLB   C2C22770  30.251  21.031  14.438  0.3836  0.0540 -0.1615
  949BOLB   C3C22771  30.242  20.904  14.918  0.0561 -0.1337 -0.0233
  949BOLB   C4C22772  30.478  20.989  15.277  0.0097  0.0114 -0.1738
  949BOLB   C1D22773  30.369  20.386  14.071 -0.0058 -0.2832  0.1231
  949BOLB   C2D22774  30.660  20.687  14.081 -0.4277  0.1213 -0.1895
  949BOLB   C3D22775  30.618  20.990  13.837 -0.1268  0.1407 -0.1708
  949BOLB   C4D22776  30.746  21.046  13.365  0.0533 -0.0138  0.0142
  950BOLB   NC122777  10.258  16.443  15.186 -0.1069  0.3891 -0.0574
  950BOLB   PO122778  10.466  16.785  15.042 -0.0606 -0.2256  0.0479
  950BOLB   GL122779  10.873  16.448  15.017  0.2655  0.3289 -0.0697
  950BOLB   GL222780  11.099  16.535  14.845 -0.3000  0.0984  0.0468
  950BOLB   C1A22781  11.078  16.081  15.138  0.2131 -0.1131 -0.1478
  950BOLB   C2A22782  11.412  15.831  15.366 -0.0361  0.0917 -0.2190
  950BOLB   C3A22783  11.826  15.670  15.561 -0.3406  0.0800  0.1024
  950BOLB   C4A22784  12.008  15.390  15.962  0.1643 -0.2149  0.1327
  950BOLB   C1B22785  11.442  16.241  14.846 -0.0002 -0.0631  0.2062
  950BOLB   C2B22786  11.682  16.164  15.114  0.0468  0.0329 -0.4003
  950BOLB   C3B22787  11.989  16.257  15.396  0.1307  0.3125 -0.0917
  950BOLB   C4B22788  12.449  16.167  15.307  0.0670 -0.1100  0.1850
  950BOLB   NC222789  12.434  13.438  16.858  0.0214  0.2561  0.0721
  950BOLB   PO222790  12.771  13.357  16.522 -0.2122  0.0575 -0.2982
  950BOLB   GL322791  12.396  13.413  16.337  0.2130  0.2372 -0.0460
  950BOLB   GL422792  12.166  13.537  16.526  0.1002  0.0806 -0.0259
  950BOLB   C1C22793  12.282  13.702  16.045  0.0924  0.0473 -0.2274
  950BOLB   C2C22794  12.078  14.064  15.891 -0.1658 -0.0346  0.1122
  950BOLB   C3C22795  11.920  14.495  15.838 -0.0967 -0.2708  0.1669
  950BOLB   C4C22796  11.991  14.947  16.009 -0.0812 -0.1929 -0.2643
  950BOLB   C1D22797  12.097  13.912  16.504  0.0691 -0.2492 -0.2418
  950BOLB   C2D22798  11.706  14.193  16.478  0.2183  0.0138 -0.1012
  950BOLB   C3D22799  11.290  14.481  16.513  0.0617  0.1312  0.0045
  950BOLB   C4D22800  11.130  14.819  16.233  0.0947  0.1813 -0.0062
  951BOLB   NC122801  36.567  18.236  21.587  0.1889  0.3542 -0.0972
  951BOLB   PO122802  36.436  17.918  21.531  0.2619 -0.2512  0.0156
  951BOLB   GL122803  36.652  17.919  21.131  0.1226  0.2347  0.1591
  951BOLB   GL222804  36.881  17.849  21.012  0.2443 -0.2151 -0.4607
  951BOLB   C1A22805  36.557  17.660  20.689 -0.1603  0.2274  0.1126
  951BOLB   C2A22806  36.336  17.592  20.293 -0.1677 -0.1760  0.0660
  951BOLB   C3A22807  36.265  17.178  20.118 -0.0197 -0.1412  0.3886
  951BOLB   C4A22808  36.393  16.739  20.043 -0.1424  0.0556  0.0204
  951BOLB   C1B22809  37.208  18.001  20.707 -0.1442  0.0148  0.0090
  951BOLB   C2B22810  37.228  17.780  20.342  0.0671  0.1652 -0.0939
  951BOLB   C3B22811  37.389  17.505  20.251  0.4910  0.2495 -0.0777
  951BOLB   C4B22812  37.278  17.088  20.313 -0.0761 -0.1493 -0.0393
  951BOLB   NC222813  35.144  15.312  21.207 -0.1670  0.1828 -0.0570
  951BOLB   PO222814  35.498  15.317  21.441  0.1224  0.0300 -0.1792
  951BOLB   GL322815  35.834  15.188  21.136  0.0540 -0.1983  0.1876
  951BOLB   GL422816  36.061  14.996  21.251 -0.0995  0.0289  0.1859
  951BOLB   C1C22817  36.197  15.431  20.965 -0.1657 -0.0453  0.0751
  951BOLB   C2C22818  36.405  15.757  20.731  0.2262  0.0682 -0.1641
  951BOLB   C3C22819  36.485  15.986  20.355 -0.1510 -0.0936  0.1844
  951BOLB   C4C22820  36.411  16.355  20.224  0.1042  0.2533 -0.0333
  951BOLB   C1D22821  36.156  14.930  20.778  0.1489  0.1116 -0.3108
  951BOLB   C2D22822  36.367  15.218  20.577 -0.1219 -0.1942 -0.0391
  951BOLB   C3D22823  36.319  15.262  20.141 -0.0106 -0.1960  0.0950
  951BOLB   C4D22824  36.492  14.946  19.859 -0.0079  0.0563 -0.3405
  952BOLB   NC122825  29.898  19.087  16.208 -0.1130 -0.3491 -0.0340
  952BOLB   PO122826  29.989  19.312  15.793 -0.0313 -0.3127  0.0650
  952BOLB   GL122827  30.100  19.732  15.603  0.2756 -0.2299 -0.1185
  952BOLB   GL222828  29.983  19.866  15.329 -0.1676 -0.0253 -0.0464
  952BOLB   C1A22829  30.305  20.150  15.529 -0.0834  0.2558 -0.3191
  952BOLB   C2A22830  30.641  20.306  15.444  0.0125  0.0698 -0.1478
  952BOLB   C3A22831  31.100  20.284  15.321  0.0670 -0.0623 -0.2824
  952BOLB   C4A22832  31.457  20.225  15.486 -0.2122  0.3199  0.0517
  952BOLB   C1B22833  30.342  19.954  15.043 -0.0692  0.0470 -0.0607
  952BOLB   C2B22834  30.844  19.880  15.068 -0.0282 -0.0774  0.0052
  952BOLB   C3B22835  31.144  20.057  14.908 -0.2601 -0.1897  0.0049
  952BOLB   C4B22836  31.486  19.749  14.692 -0.1178 -0.1238 -0.2601
  952BOLB   NC222837  30.638  20.543  17.668  0.1224  0.1001 -0.0588
  952BOLB   PO222838  30.990  20.960  17.566  0.1315 -0.0059 -0.2100
  952BOLB   GL322839  31.418  20.846  17.306  0.0250  0.1038 -0.3784
  952BOLB   GL422840  31.494  20.484  17.251 -0.2685  0.0308 -0.3237
  952BOLB   C1C22841  31.528  20.765  16.831  0.2014  0.0501 -0.0249
  952BOLB   C2C22842  31.732  20.692  16.425  0.1759 -0.0967  0.0580
  952BOLB   C3C22843  31.911  20.401  16.080 -0.0293 -0.2606 -0.0436
  952BOLB   C4C22844  31.838  20.378  15.609 -0.0450 -0.0594  0.0612
  952BOLB   C1D22845  31.488  20.232  16.862  0.2752 -0.2522 -0.1469
  952BOLB   C2D22846  31.498  19.804  16.715  0.2536  0.2090  0.3085
  952BOLB   C3D22847  31.503  19.338  16.877 -0.4503  0.4404 -0.0384
  952BOLB   C4D22848  31.359  19.139  17.244  0.2577  0.0746 -0.1785
  953BOLB   NC122849   9.141  27.780  13.582 -0.1919  0.0452  0.1617
  953BOLB   PO122850   9.296  28.033  13.872 -0.0088 -0.1133 -0.3017
  953BOLB   GL122851   9.659  28.297  14.059  0.0873 -0.0208  0.0339
  953BOLB   GL222852  10.015  28.365  14.030 -0.0526 -0.3811 -0.2591
  953BOLB   C1A22853   9.659  28.725  13.905  0.0677  0.2414  0.1190
  953BOLB   C2A22854   9.678  29.135  13.954  0.0423  0.1462  0.2541
  953BOLB   C3A22855   9.473  29.533  14.001  0.1848  0.0970 -0.0814
  953BOLB   C4A22856   9.500  30.005  14.272 -0.0684  0.1053 -0.4385
  953BOLB   C1B22857  10.025  28.730  14.257 -0.0730  0.1429 -0.1164
  953BOLB   C2B22858  10.099  29.029  14.542 -0.0403  0.1661 -0.0234
  953BOLB   C3B22859  10.208  29.398  14.642 -0.2381  0.0792 -0.1792
  953BOLB   C4B22860   9.992  29.775  14.839 -0.1957  0.0738 -0.0072
  953BOLB   NC222861  10.086  31.845  15.498  0.1658 -0.2560 -0.0333
  953BOLB   PO222862   9.973  31.907  14.994  0.0716 -0.0711 -0.2385
  953BOLB   GL322863  10.335  31.667  14.828  0.0410 -0.0910 -0.0773
  953BOLB   GL422864  10.444  31.619  15.149  0.1509 -0.1279  0.0013
  953BOLB   C1C22865  10.311  31.380  14.538  0.2080 -0.0335  0.0576
  953BOLB   C2C22866  10.177  30.979  14.543  0.1617  0.0265 -0.2549
  953BOLB   C3C22867   9.904  30.685  14.561  0.1426 -0.1938 -0.0948
  953BOLB   C4C22868   9.801  30.191  14.569 -0.2748 -0.0936 -0.2026
  953BOLB   C1D22869  10.177  31.214  15.019 -0.1418  0.0550 -0.0188
  953BOLB   C2D22870  10.123  30.773  15.002  0.2822  0.0890  0.0458
  953BOLB   C3D22871  10.158  30.372  14.874  0.1707  0.0602  0.0331
  953BOLB   C4D22872  10.289  30.044  14.601 -0.0188  0.1532 -0.3253
  954BOLB   NC122873  34.648  17.432   0.136  0.2921  0.1884 -0.0070
  954BOLB   PO122874  34.633  17.785   0.015  0.2913  0.0137  0.0807
  954BOLB   GL122875  34.492  17.920   0.337  0.2215  0.1518 -0.1741
  954BOLB   GL222876  34.454  17.606   0.709  0.0849  0.1518  0.0780
  954BOLB   C1A22877  34.653  18.062   0.789  0.0807 -0.0187 -0.0110
  954BOLB   C2A22878  34.864  17.992   1.201 -0.1184  0.0010  0.2130
  954BOLB   C3A22879  34.855  17.976   1.664 -0.0246  0.0598 -0.0285
  954BOLB   C4A22880  34.968  17.727   1.984  0.1030  0.0460 -0.3046
  954BOLB   C1B22881  34.530  17.636   1.153  0.0188  0.0130  0.1681
  954BOLB   C2B22882  34.422  17.435   1.600 -0.1044 -0.1261 -0.2936
  954BOLB   C3B22883  34.478  17.605   1.936 -0.0989  0.1559 -0.3771
  954BOLB   C4B22884  34.321  17.599   2.355  0.0612  0.0910 -0.1005
  954BOLB   NC222885  33.326  16.156   1.495 -0.0169  0.0540  0.0437
  954BOLB   PO222886  33.196  16.535   1.674 -0.2024 -0.4579  0.1205
  954BOLB   GL322887  33.592  16.470   1.816  0.0620  0.0494  0.0106
  954BOLB   GL422888  33.759  16.120   1.783 -0.2816  0.0204 -0.1095
  954BOLB   C1C22889  33.880  16.808   1.941 -0.0100 -0.1372 -0.1719
  954BOLB   C2C22890  34.301  17.027   1.854  0.2774  0.2783  0.1539
  954BOLB   C3C22891  34.694  17.093   1.799 -0.3433  0.0749 -0.0692
  954BOLB   C4C22892  34.957  17.291   1.925  0.3085  0.1308  0.1301
  954BOLB   C1D22893  34.184  16.284   1.864 -0.0009 -0.1743 -0.1065
  954BOLB   C2D22894  34.534  16.444   2.046 -0.0620  0.2183  0.0583
  954BOLB   C3D22895  34.755  16.728   2.333 -0.1063 -0.1289  0.0414
  954BOLB   C4D22896  34.718  16.970   2.644  0.1377  0.1978  0.0457
  955BOLB   NC122897  29.652  24.092  11.167  0.4119 -0.0922  0.0090
  955BOLB   PO122898  29.747  24.407  10.967  0.2531 -0.0687 -0.2842
  955BOLB   GL122899  30.092  24.155  10.722  0.1237  0.1769 -0.3157
  955BOLB   GL222900  29.926  23.918  10.627 -0.0740 -0.1334  0.2241
  955BOLB   C1A22901  30.354  23.884  10.946  0.7110 -0.1251 -0.1816
  955BOLB   C2A22902  30.601  23.462  11.003 -0.1976 -0.1712  0.3203
  955BOLB   C3A22903  30.747  23.168  11.163  0.0395 -0.0476  0.0283
  955BOLB   C4A22904  30.845  23.273  11.557  0.0871  0.1714  0.1433
  955BOLB   C1B22905  30.138  23.439  10.736 -0.3881 -0.4183  0.0792
  955BOLB   C2B22906  30.493  23.230  10.592 -0.2137  0.5225  0.1143
  955BOLB   C3B22907  30.881  23.345  10.618  0.1956 -0.1057 -0.2366
  955BOLB   C4B22908  31.266  23.058  10.575 -0.2622  0.1978  0.4507
  955BOLB   NC222909  29.929  24.969  12.340  0.3810 -0.0459 -0.0270
  955BOLB   PO222910  30.257  25.188  11.994 -0.0016  0.0065 -0.2668
  955BOLB   GL322911  30.607  24.819  11.926  0.3884 -0.0544  0.0388
  955BOLB   GL422912  30.818  24.610  11.726  0.1899 -0.0340 -0.1127
  955BOLB   C1C22913  30.626  24.399  12.172  0.1262  0.0364 -0.0186
  955BOLB   C2C22914  30.684  23.925  12.279 -0.0838 -0.0384  0.1904
  955BOLB   C3C22915  30.847  23.663  12.098 -0.0305 -0.1734  0.1075
  955BOLB   C4C22916  30.717  23.463  11.890 -0.0948  0.1560 -0.2800
  955BOLB   C1D22917  30.467  24.238  11.700  0.1574  0.1978  0.1546
  955BOLB   C2D22918  30.284  23.829  11.956  0.1094 -0.3166  0.1657
  955BOLB   C3D22919  30.111  23.462  11.822 -0.5343 -0.0663 -0.1005
  955BOLB   C4D22920  30.341  23.192  11.607 -0.1699  0.0456  0.0602
  956BOLB   NC122921  11.126  15.172  11.234  0.2154  0.5657  0.1860
  956BOLB   PO122922  11.258  15.454  10.906 -0.2164 -0.3790 -0.1776
  956BOLB   GL122923  11.624  15.157  11.079  0.2640 -0.3883  0.2097
  956BOLB   GL222924  11.529  14.893  11.184  0.1900  0.1433 -0.0404
  956BOLB   C1A22925  12.034  15.103  11.055  0.0046  0.1204 -0.3768
  956BOLB   C2A22926  12.311  14.755  11.092 -0.0627  0.1959  0.0684
  956BOLB   C3A22927  12.603  14.246  10.989 -0.3095  0.0879  0.2134
  956BOLB   C4A22928  12.702  13.873  10.777 -0.0764 -0.3189 -0.0990
  956BOLB   C1B22929  11.849  14.508  11.036 -0.0517  0.0433 -0.3322
  956BOLB   C2B22930  12.170  14.238  11.174 -0.0789 -0.1738  0.0426
  956BOLB   C3B22931  12.367  13.811  11.192  0.2076  0.1911  0.0271
  956BOLB   C4B22932  12.433  13.420  11.249 -0.1357  0.2083 -0.0607
  956BOLB   NC222933  14.183  12.115  10.950 -0.2368 -0.0541 -0.1134
  956BOLB   PO222934  14.138  11.910  11.358  0.1035  0.2363  0.0270
  956BOLB   GL322935  13.721  12.214  11.159  0.0303  0.0774 -0.0241
  956BOLB   GL422936  13.763  12.331  10.894  0.0154 -0.0688 -0.0775
  956BOLB   C1C22937  13.538  12.657  11.186  0.0367  0.3363 -0.1657
  956BOLB   C2C22938  13.213  12.926  11.121  0.1069  0.2256 -0.1235
  956BOLB   C3C22939  12.868  13.153  11.021  0.0473  0.2850 -0.2870
  956BOLB   C4C22940  12.704  13.536  10.802 -0.0018  0.1607  0.2872
  956BOLB   C1D22941  13.469  12.478  10.588  0.2647  0.0541  0.2744
  956BOLB   C2D22942  13.264  12.369  10.230 -0.1820 -0.0158 -0.1451
  956BOLB   C3D22943  12.919  12.344   9.873  0.4103  0.0510 -0.0266
  956BOLB   C4D22944  12.750  12.505   9.531  0.2263  0.1315  0.0185
  957BOLB   NC122945  16.681  16.733  15.630  0.1795 -0.2128 -0.1587
  957BOLB   PO122946  16.576  16.747  15.286 -0.3714  0.2286 -0.1539
  957BOLB   GL122947  16.278  16.888  15.144 -0.0948  0.1889 -0.1224
  957BOLB   GL222948  16.027  16.713  15.009 -0.0939 -0.0342  0.1766
  957BOLB   C1A22949  16.054  17.224  14.907  0.1088 -0.0292 -0.1712
  957BOLB   C2A22950  15.684  17.492  14.668 -0.0357 -0.0706 -0.1191
  957BOLB   C3A22951  15.381  17.618  14.407 -0.2279  0.0435  0.0659
  957BOLB   C4A22952  15.237  17.325  14.124  0.3284  0.1684  0.1125
  957BOLB   C1B22953  15.655  16.926  15.065 -0.1005 -0.2242  0.3488
  957BOLB   C2B22954  15.373  16.991  14.749  0.1769 -0.3332 -0.0696
  957BOLB   C3B22955  14.939  17.018  14.487 -0.1526 -0.1871 -0.1102
  957BOLB   C4B22956  14.624  16.958  14.155 -0.0349 -0.0496  0.2198
  957BOLB   NC222957  16.177  15.608  14.275  0.0374  0.2978 -0.2322
  957BOLB   PO222958  15.897  15.707  14.668  0.1563 -0.3200  0.2220
  957BOLB   GL322959  15.616  15.939  14.359  0.0088 -0.3782 -0.0449
  957BOLB   GL422960  15.681  15.753  14.159  0.1183  0.0547 -0.2431
  957BOLB   C1C22961  15.277  16.218  14.179  0.0439 -0.2653 -0.0152
  957BOLB   C2C22962  15.152  16.515  13.974  0.0868  0.2344 -0.3798
  957BOLB   C3C22963  15.003  16.712  13.671  0.1812  0.0047 -0.1908
  957BOLB   C4C22964  15.080  17.034  13.851  0.0753 -0.0706 -0.0119
  957BOLB   C1D22965  15.377  15.827  13.940  0.0602 -0.0627  0.1518
  957BOLB   C2D22966  15.082  15.977  13.622  0.1721 -0.1378  0.0853
  957BOLB   C3D22967  15.292  16.328  13.430 -0.1798  0.0070  0.3481
  957BOLB   C4D22968  15.092  16.526  13.029 -0.0289 -0.2876 -0.0648
  958BOLB   NC122969  10.576  23.914  16.982 -0.0079  0.0716 -0.0581
  958BOLB   PO122970  10.899  24.090  17.230 -0.0324  0.2791 -0.2031
  958BOLB   GL122971  11.184  24.260  17.472  0.2034  0.1545 -0.1269
  958BOLB   GL222972  11.135  24.576  17.520 -0.1094  0.1301  0.1849
  958BOLB   C1A22973  11.404  24.282  17.848 -0.1223 -0.0098 -0.1249
  958BOLB   C2A22974  11.655  24.162  18.142 -0.2637 -0.0530 -0.2218
  958BOLB   C3A22975  11.616  24.274  18.592 -0.0503  0.1785  0.0022
  958BOLB   C4A22976  11.511  24.434  19.003  0.3186  0.2840  0.0138
  958BOLB   C1B22977  11.253  24.943  17.604 -0.1223 -0.1477  0.1670
  958BOLB   C2B22978  11.601  25.204  17.564  0.0073 -0.0355  0.2688
  958BOLB   C3B22979  11.927  25.402  17.665  0.2691  0.1290  0.1673
  958BOLB   C4B22980  12.338  25.542  17.860  0.0884  0.2073 -0.1146
  958BOLB   NC222981  13.268  24.981  20.349 -0.4243 -0.0082  0.0137
  958BOLB   PO222982  13.202  24.566  20.600 -0.0220 -0.2279  0.1292
  958BOLB   GL322983  12.995  24.429  20.267  0.2348 -0.2127  0.0884
  958BOLB   GL422984  12.922  24.652  19.984  0.1524  0.4913 -0.1877
  958BOLB   C1C22985  12.513  24.517  20.152 -0.0873  0.0511 -0.2509
  958BOLB   C2C22986  12.126  24.690  19.953  0.2700 -0.2017 -0.0361
  958BOLB   C3C22987  11.756  24.775  19.718 -0.2717  0.3108  0.0236
  958BOLB   C4C22988  11.520  24.799  19.291  0.0424 -0.0066  0.3513
  958BOLB   C1D22989  12.893  24.814  19.527 -0.2058  0.0428 -0.0858
  958BOLB   C2D22990  13.010  24.726  19.168 -0.1960 -0.1597  0.1366
  958BOLB   C3D22991  12.869  24.605  18.816  0.1108  0.1553 -0.0621
  958BOLB   C4D22992  12.854  24.639  18.342  0.1610  0.1519 -0.0619
  959BOLB   NC122993  32.277  19.280   1.440  0.0221 -0.1686  0.2145
  959BOLB   PO122994  32.207  19.665   1.587  0.2141 -0.0893  0.1099
  959BOLB   GL122995  32.381  19.540   1.933  0.1249 -0.0190 -0.0117
  959BOLB   GL222996  32.498  19.307   1.892  0.0562  0.0821  0.0865
  959BOLB   C1A22997  32.666  19.625   2.235 -0.2919  0.0500  0.3428
  959BOLB   C2A22998  33.134  19.589   2.443  0.0800  0.3426 -0.0840
  959BOLB   C3A22999  33.114  19.541   2.805  0.2134  0.1508 -0.1604
  959BOLB   C4A23000  33.232  19.151   3.031 -0.2851  0.0112 -0.1516
  959BOLB   C1B23001  32.708  18.932   1.891  0.1616  0.0323  0.0874
  959BOLB   C2B23002  32.975  18.572   2.152 -0.2393 -0.2797 -0.0601
  959BOLB   C3B23003  33.377  18.375   1.998  0.0118 -0.0292 -0.2172
  959BOLB   C4B23004  33.779  18.326   1.831  0.2688 -0.2876 -0.2637
  959BOLB   NC223005  31.586  17.829   2.451 -0.2638 -0.0762 -0.2783
  959BOLB   PO223006  31.875  17.406   2.484  0.1816 -0.1365 -0.2539
  959BOLB   GL323007  31.921  17.754   2.846 -0.0258  0.1196 -0.0926
  959BOLB   GL423008  31.788  17.686   3.190  0.1228 -0.0592  0.1476
  959BOLB   C1C23009  32.143  18.000   3.164 -0.1930  0.0870 -0.2754
  959BOLB   C2C23010  32.399  18.246   3.402 -0.1643 -0.2500 -0.2289
  959BOLB   C3C23011  32.611  18.698   3.350  0.0070 -0.0448 -0.0543
  959BOLB   C4C23012  32.949  18.862   3.182 -0.2360  0.0587 -0.3143
  959BOLB   C1D23013  31.875  17.781   3.585 -0.0466  0.0115 -0.1501
  959BOLB   C2D23014  32.078  17.571   3.873 -0.0102 -0.1855  0.1719
  959BOLB   C3D23015  32.407  17.262   3.814 -0.0078 -0.0075  0.4327
  959BOLB   C4D23016  32.796  17.326   3.676 -0.1910  0.4109 -0.1819
  960BOLB   NC123017  13.333  12.661  13.964 -0.0762  0.2436  0.0684
  960BOLB   PO123018  13.518  12.908  13.678  0.1272  0.0975 -0.1662
  960BOLB   GL123019  13.591  12.965  13.205 -0.1698  0.1551 -0.2580
  960BOLB   GL223020  13.448  12.773  12.957 -0.1833 -0.0388  0.0072
  960BOLB   C1A23021  13.560  13.157  12.744 -0.0110 -0.0300 -0.0946
  960BOLB   C2A23022  13.370  13.432  12.491  0.0004  0.0300  0.0869
  960BOLB   C3A23023  13.165  13.664  12.104 -0.4586  0.1427 -0.0653
  960BOLB   C4A23024  12.794  13.559  12.121  0.0259 -0.1613  0.0554
  960BOLB   C1B23025  13.167  12.900  12.740  0.0765  0.0659 -0.3744
  960BOLB   C2B23026  12.942  13.131  12.510 -0.2619  0.2901 -0.2527
  960BOLB   C3B23027  12.661  13.178  12.394  0.2825 -0.2291 -0.1837
  960BOLB   C4B23028  12.488  12.730  12.468  0.0785  0.0924  0.0323
  960BOLB   NC223029  14.710  12.130  12.802  0.1543 -0.1326 -0.0347
  960BOLB   PO223030  14.501  12.366  12.456 -0.4475 -0.2579  0.0132
  960BOLB   GL323031  14.172  12.565  12.152  0.1719  0.3230 -0.0544
  960BOLB   GL423032  14.163  12.872  12.100 -0.2903  0.0559 -0.5012
  960BOLB   C1C23033  13.592  12.455  12.030  0.0312  0.1185 -0.3420
  960BOLB   C2C23034  13.060  12.574  12.097  0.0232 -0.4676 -0.3404
  960BOLB   C3C23035  12.723  12.894  11.963  0.0034  0.1231  0.2819
  960BOLB   C4C23036  12.627  13.303  11.870 -0.1003 -0.0671 -0.0962
  960BOLB   C1D23037  13.875  13.163  11.958  0.2891 -0.2255 -0.0742
  960BOLB   C2D23038  13.660  13.387  11.649 -0.1451 -0.3310  0.1229
  960BOLB   C3D23039  13.412  13.708  11.449 -0.1434 -0.1930  0.2512
  960BOLB   C4D23040  13.517  14.127  11.391 -0.2846 -0.2658 -0.0472
  961BOLB   NC123041   6.353  18.350   2.104 -0.2285  0.0947 -0.0077
  961BOLB   PO123042   6.738  18.215   2.143  0.0669 -0.2285  0.0312
  961BOLB   GL123043   6.764  18.355   1.702 -0.2414 -0.3573  0.0998
  961BOLB   GL223044   6.902  18.658   1.544 -0.1500 -0.4050 -0.0858
  961BOLB   C1A23045   6.796  18.296   1.229 -0.3436  0.3484 -0.0940
  961BOLB   C2A23046   6.584  18.271   0.801 -0.1716 -0.1622 -0.0935
  961BOLB   C3A23047   6.369  17.904   0.646  0.0165 -0.3461 -0.1171
  961BOLB   C4A23048   6.385  17.858   0.186  0.4370 -0.0504 -0.2447
  961BOLB   C1B23049   6.874  18.722   1.086  0.0681 -0.3488 -0.0585
  961BOLB   C2B23050   6.822  18.613   0.577 -0.1876 -0.2322  0.0572
  961BOLB   C3B23051   6.748  18.227   0.308  0.0269 -0.0824 -0.5203
  961BOLB   C4B23052   6.896  17.856   0.030 -0.0935  0.3391  0.2156
  961BOLB   NC223053   7.153  17.468  -1.675 -0.0359  0.1964 -0.0430
  961BOLB   PO223054   7.040  16.967  -1.717  0.1291  0.2353  0.3555
  961BOLB   GL323055   6.896  17.067  -1.279  0.0804  0.0629 -0.1382
  961BOLB   GL423056   6.541  17.197  -1.263 -0.1176  0.1107 -0.0242
  961BOLB   C1C23057   6.827  17.443  -1.076 -0.1112 -0.0556 -0.0683
  961BOLB   C2C23058   6.933  17.773  -0.833  0.1479 -0.1046  0.1981
  961BOLB   C3C23059   6.723  17.833  -0.441  0.0677  0.0832  0.0338
  961BOLB   C4C23060   6.395  17.840  -0.232 -0.0096 -0.1621  0.2156
  961BOLB   C1D23061   6.595  17.073  -0.777  0.1479  0.0794 -0.1217
  961BOLB   C2D23062   6.825  16.994  -0.343  0.3909 -0.0768  0.2580
  961BOLB   C3D23063   7.043  16.910   0.090  0.0429 -0.0310 -0.1747
  961BOLB   C4D23064   7.075  17.120   0.520  0.2127 -0.2039 -0.0291
  962BOLB   NC123065  31.148  23.594   4.273 -0.1923  0.0375 -0.0499
  962BOLB   PO123066  31.246  23.952   4.214  0.1240 -0.1935  0.1779
  962BOLB   GL123067  31.426  24.000   4.621 -0.0192 -0.0383 -0.1980
  962BOLB   GL223068  31.528  23.696   4.699 -0.4148  0.0416 -0.2139
  962BOLB   C1A23069  31.840  24.100   4.836  0.0929  0.0655  0.1818
  962BOLB   C2A23070  32.256  23.995   4.647 -0.0046  0.0764  0.0143
  962BOLB   C3A23071  32.705  23.915   4.785  0.1749 -0.1878 -0.3009
  962BOLB   C4A23072  32.992  23.604   4.787  0.2475  0.1342 -0.1461
  962BOLB   C1B23073  31.486  23.904   5.148 -0.2460 -0.1878 -0.1410
  962BOLB   C2B23074  31.456  23.735   5.519  0.0175 -0.1468  0.3237
  962BOLB   C3B23075  31.209  23.694   5.878  0.1563  0.0469 -0.1107
  962BOLB   C4B23076  31.186  23.753   6.210 -0.1720  0.0651 -0.1626
  962BOLB   NC223077  33.791  25.058   3.732 -0.3216  0.0035  0.0254
  962BOLB   PO223078  34.118  25.249   3.532  0.1498  0.0034 -0.1500
  962BOLB   GL323079  34.316  24.915   3.860 -0.0944  0.0740 -0.1429
  962BOLB   GL423080  34.438  25.098   4.133  0.2427  0.0394  0.0772
  962BOLB   C1C23081  34.162  24.665   4.212  0.0445  0.0215 -0.1000
  962BOLB   C2C23082  33.906  24.430   4.438  0.1047  0.0773  0.0964
  962BOLB   C3C23083  33.596  24.131   4.430 -0.1400 -0.2923  0.1756
  962BOLB   C4C23084  33.414  23.704   4.641  0.0487 -0.1323  0.1838
  962BOLB   C1D23085  34.494  24.851   4.512 -0.0423  0.3085  0.0734
  962BOLB   C2D23086  34.861  24.663   4.713  0.1121 -0.0817  0.4119
  962BOLB   C3D23087  35.194  24.841   4.496 -0.0290  0.2374  0.5042
  962BOLB   C4D23088  35.695  25.064   4.478  0.0011  0.1760  0.1913
  963BOLB   NC123089   1.712  13.626  20.862  0.0842 -0.0031 -0.0003
  963BOLB   PO123090   1.821  13.955  20.615  0.2679 -0.1810  0.1296
  963BOLB   GL123091   1.651  13.987  20.211  0.1782 -0.2217 -0.0463
  963BOLB   GL223092   1.834  14.177  20.108  0.0451  0.0042 -0.1251
  963BOLB   C1A23093   1.407  14.296  19.876 -0.2322 -0.2616  0.1131
  963BOLB   C2A23094   1.038  14.452  19.538 -0.3552 -0.1692 -0.0107
  963BOLB   C3A23095   0.938  14.574  19.102  0.0267 -0.0049 -0.3231
  963BOLB   C4A23096   0.641  14.318  19.118  0.2846  0.3388 -0.2039
  963BOLB   C1B23097   1.843  14.482  19.659  0.2044 -0.1241  0.0582
  963BOLB   C2B23098   1.865  14.803  19.368  0.1237  0.3668  0.1696
  963BOLB   C3B23099   1.896  14.927  19.009 -0.1119  0.3712 -0.0008
  963BOLB   C4B23100   2.148  14.999  18.628 -0.0005 -0.2955  0.0134
  963BOLB   NC223101   0.741  13.630  21.424 -0.1168  0.0524 -0.2812
  963BOLB   PO223102   0.786  13.314  21.127  0.0848  0.2041 -0.5920
  963BOLB   GL323103   0.714  13.268  20.691 -0.0931 -0.1016 -0.1504
  963BOLB   GL423104   0.757  12.962  20.619 -0.3987 -0.0306 -0.0117
  963BOLB   C1C23105   0.566  13.367  20.225  0.4504 -0.0527  0.3824
  963BOLB   C2C23106   0.388  13.751  20.021  0.3923  0.1561  0.3375
  963BOLB   C3C23107   0.359  13.913  19.706  0.0779  0.1668  0.3604
  963BOLB   C4C23108   0.466  13.976  19.295  0.0155  0.0583 -0.0621
  963BOLB   C1D23109   0.602  12.903  20.288  0.0505 -0.1980 -0.2511
  963BOLB   C2D23110   0.534  12.767  19.897  0.1840 -0.2166  0.1573
  963BOLB   C3D23111   0.427  12.851  19.406 -0.1162  0.0183  0.1093
  963BOLB   C4D23112   0.271  13.173  18.992  0.3329 -0.0008  0.2503
  964BOLB   NC123113  28.552  20.942   8.928 -0.1407 -0.1283  0.0262
  964BOLB   PO123114  28.984  20.869   8.818 -0.0184 -0.0380  0.1221
  964BOLB   GL123115  29.385  20.973   8.746  0.1818  0.0830  0.3250
  964BOLB   GL223116  29.556  21.014   8.475  0.3131  0.4317  0.0771
  964BOLB   C1A23117  29.799  20.628   8.760 -0.1867  0.2557  0.2066
  964BOLB   C2A23118  30.185  20.732   8.884  0.2800 -0.2525 -0.1584
  964BOLB   C3A23119  30.549  20.584   8.936 -0.1814  0.1365  0.1363
  964BOLB   C4A23120  30.874  20.326   8.650  0.0263 -0.2343 -0.0608
  964BOLB   C1B23121  29.894  21.111   8.767 -0.3452 -0.2292 -0.0319
  964BOLB   C2B23122  30.402  21.112   8.742  0.1337  0.1740 -0.0335
  964BOLB   C3B23123  30.898  20.921   8.893 -0.0400  0.3769 -0.1020
  964BOLB   C4B23124  31.183  20.714   9.169 -0.0722  0.1694 -0.3973
  964BOLB   NC223125  28.910  20.454   7.517 -0.0353 -0.1054  0.4369
  964BOLB   PO223126  29.228  20.165   7.399 -0.0497 -0.3557  0.1234
  964BOLB   GL323127  29.617  20.281   7.102  0.2864  0.1277 -0.1011
  964BOLB   GL423128  29.852  20.088   6.940 -0.2028 -0.0530 -0.2334
  964BOLB   C1C23129  29.972  20.432   7.417  0.0625 -0.0483  0.0505
  964BOLB   C2C23130  30.479  20.536   7.528  0.2308 -0.3997 -0.2110
  964BOLB   C3C23131  30.735  20.391   7.847 -0.0824 -0.0904 -0.1475
  964BOLB   C4C23132  30.902  20.477   8.176 -0.2016 -0.4609  0.2567
  964BOLB   C1D23133  30.196  20.034   7.298  0.1566  0.0143  0.1063
  964BOLB   C2D23134  30.697  20.013   7.486 -0.1506 -0.0543  0.4511
  964BOLB   C3D23135  31.097  20.028   7.656  0.1796 -0.0010  0.0244
  964BOLB   C4D23136  31.300  20.338   7.536 -0.0323  0.2295 -0.2406
  965BOLB   NC123137  14.411  21.428   5.302  0.0443  0.0142  0.0045
  965BOLB   PO123138  14.802  21.359   5.653 -0.1840  0.0119 -0.1928
  965BOLB   GL123139  15.105  21.513   5.409  0.2001 -0.0434 -0.0556
  965BOLB   GL223140  15.294  21.193   5.416 -0.1712  0.1738 -0.3291
  965BOLB   C1A23141  15.466  21.760   5.399 -0.0897  0.1383  0.0071
  965BOLB   C2A23142  15.842  21.932   5.430 -0.0558 -0.1153  0.0438
  965BOLB   C3A23143  16.252  22.044   5.565 -0.0864  0.0680 -0.3530
  965BOLB   C4A23144  16.560  22.168   5.545  0.2482  0.1866  0.1182
  965BOLB   C1B23145  15.486  21.384   5.068  0.0645 -0.0303 -0.0052
  965BOLB   C2B23146  15.716  21.719   4.956 -0.0506 -0.3230  0.1875
  965BOLB   C3B23147  16.149  21.771   4.805 -0.0276 -0.1079 -0.0843
  965BOLB   C4B23148  16.250  21.945   4.315 -0.0545 -0.0652  0.2714
  965BOLB   NC223149  17.381  23.050   3.672 -0.3167 -0.2572  0.1476
  965BOLB   PO223150  17.697  23.222   3.962 -0.2127  0.0343 -0.1659
  965BOLB   GL323151  17.595  22.761   4.027 -0.0773 -0.0306  0.1835
  965BOLB   GL423152  17.318  22.682   4.010  0.0241  0.1486 -0.1378
  965BOLB   C1C23153  17.669  22.582   4.484 -0.1184  0.2890  0.0946
  965BOLB   C2C23154  17.386  22.378   4.738 -0.0698  0.1388  0.0601
  965BOLB   C3C23155  17.385  22.408   5.151 -0.0150  0.1930 -0.1052
  965BOLB   C4C23156  16.925  22.350   5.318  0.1696  0.0229  0.0190
  965BOLB   C1D23157  17.090  22.776   4.419  0.1799  0.1315  0.1805
  965BOLB   C2D23158  16.819  23.137   4.591  0.3395 -0.0757  0.1191
  965BOLB   C3D23159  16.621  23.527   4.790 -0.0066 -0.0586 -0.1519
  965BOLB   C4D23160  16.710  23.534   5.173  0.1976 -0.2361  0.0102
  966BOLB   NC123161   5.172  33.089   8.298 -0.1444  0.3021 -0.1215
  966BOLB   PO123162   4.927  32.826   8.155  0.1609  0.0333 -0.0821
  966BOLB   GL123163   5.028  32.393   8.007  0.2036 -0.1285  0.2052
  966BOLB   GL223164   5.036  32.188   8.229 -0.1887  0.1405 -0.0438
  966BOLB   C1A23165   4.995  31.970   7.738 -0.3322  0.0178 -0.1239
  966BOLB   C2A23166   5.044  31.531   7.797 -0.2283  0.2729  0.0273
  966BOLB   C3A23167   4.670  31.279   7.873 -0.0341  0.0608 -0.1123
  966BOLB   C4A23168   4.292  30.945   7.672 -0.0196 -0.4669 -0.2430
  966BOLB   C1B23169   5.104  31.703   8.280  0.1956  0.0792 -0.1675
  966BOLB   C2B23170   5.237  31.303   8.501 -0.2330  0.0160 -0.1658
  966BOLB   C3B23171   5.284  30.879   8.802 -0.2274  0.3178 -0.2217
  966BOLB   C4B23172   5.155  30.549   9.080 -0.1055 -0.1858  0.0207
  966BOLB   NC223173   2.427  32.219   5.867  0.0360 -0.1574  0.1353
  966BOLB   PO223174   2.667  32.200   6.176 -0.0651  0.0939  0.0273
  966BOLB   GL323175   2.768  31.914   6.328 -0.0002  0.2251 -0.1654
  966BOLB   GL423176   3.038  31.873   6.195  0.1054  0.0446  0.2562
  966BOLB   C1C23177   3.061  31.641   6.695  0.3177  0.1916  0.0850
  966BOLB   C2C23178   3.404  31.360   6.969 -0.3267 -0.1334 -0.1724
  966BOLB   C3C23179   3.524  31.034   7.245  0.0415 -0.2880  0.0143
  966BOLB   C4C23180   3.883  30.941   7.438 -0.1110  0.0483  0.2068
  966BOLB   C1D23181   3.134  31.417   6.161 -0.2387  0.1146 -0.0456
  966BOLB   C2D23182   2.987  31.025   5.991  0.2239 -0.3096  0.1510
  966BOLB   C3D23183   3.102  30.608   6.191  0.1539 -0.0162  0.0938
  966BOLB   C4D23184   3.071  30.471   6.624 -0.0250 -0.0755  0.2724
  967BOLB   NC123185   2.077  10.150  18.681 -0.0616 -0.5545  0.2455
  967BOLB   PO123186   2.464  10.412  18.623  0.0439  0.2682 -0.1522
  967BOLB   GL123187   2.173  10.651  18.630 -0.0478 -0.1263 -0.0378
  967BOLB   GL223188   2.151  10.925  18.927  0.1511  0.0658  0.0076
  967BOLB   C1A23189   1.865  10.839  18.460 -0.0515  0.0375 -0.2049
  967BOLB   C2A23190   1.472  11.054  18.402 -0.2197  0.0160 -0.3294
  967BOLB   C3A23191   1.358  11.337  18.699  0.1968  0.1292 -0.3687
  967BOLB   C4A23192   1.212  11.723  18.802  0.1793 -0.0394  0.0580
  967BOLB   C1B23193   2.293  11.155  18.552  0.2001  0.1384  0.0203
  967BOLB   C2B23194   2.562  11.581  18.492 -0.1039 -0.0537 -0.1789
  967BOLB   C3B23195   2.574  12.049  18.708  0.0941  0.2716 -0.1341
  967BOLB   C4B23196   2.214  12.449  18.674 -0.0040 -0.2251  0.1057
  967BOLB   NC223197  -0.411  11.135  19.642 -0.1165  0.1516  0.3208
  967BOLB   PO223198  -0.493  10.804  19.458 -0.4263 -0.0993 -0.3935
  967BOLB   GL323199  -0.426  11.041  19.112  0.3475  0.0907  0.1847
  967BOLB   GL423200  -0.708  10.913  18.968 -0.0513  0.1265  0.2645
  967BOLB   C1C23201  -0.147  11.294  18.966 -0.0560 -0.0256  0.1678
  967BOLB   C2C23202   0.133  11.413  18.637  0.2507 -0.2361 -0.2634
  967BOLB   C3C23203   0.485  11.829  18.665  0.0886  0.1421  0.0418
  967BOLB   C4C23204   0.867  11.958  18.818 -0.0703 -0.0861  0.0121
  967BOLB   C1D23205  -0.666  11.401  18.880  0.5497 -0.0466  0.1843
  967BOLB   C2D23206  -0.374  11.754  18.703  0.1522  0.0325  0.0660
  967BOLB   C3D23207  -0.233  12.100  18.324  0.1394  0.1045  0.1575
  967BOLB   C4D23208   0.016  12.306  18.009 -0.2112  0.0618  0.1017
  968BOLB   NC123209   1.976  13.117  25.715  0.0665  0.2414  0.1506
  968BOLB   PO123210   1.773  13.146  26.095 -0.0957  0.0297 -0.1078
  968BOLB   GL123211   1.726  13.340  26.449 -0.0467 -0.0202  0.0306
  968BOLB   GL223212   1.478  13.222  26.749  0.0231 -0.1164  0.0007
  968BOLB   C1A23213   1.629  13.720  26.737  0.1260  0.1618 -0.1163
  968BOLB   C2A23214   1.525  13.517  27.198 -0.1445 -0.1581  0.1918
  968BOLB   C3A23215   1.633  13.170  27.464 -0.0665  0.1127 -0.2470
  968BOLB   C4A23216   1.891  13.026  27.774 -0.1873  0.1074  0.1928
  968BOLB   C1B23217   1.761  12.993  27.029  0.0618 -0.0264  0.2464
  968BOLB   C2B23218   2.104  12.794  27.359 -0.0569  0.1074  0.3244
  968BOLB   C3B23219   2.000  12.531  27.759  0.2448 -0.3223 -0.1220
  968BOLB   C4B23220   1.695  12.290  27.948  0.1987 -0.1614  0.2723
  968BOLB   NC223221   3.206  11.419  28.026 -0.1146  0.0933  0.0753
  968BOLB   PO223222   3.471  11.819  28.032  0.0884 -0.3199  0.1311
  968BOLB   GL323223   3.258  12.160  28.254  0.0845  0.0369 -0.0249
  968BOLB   GL423224   3.524  12.032  28.536  0.1359 -0.0107  0.1339
  968BOLB   C1C23225   3.045  12.480  28.470  0.1097 -0.0057 -0.0953
  968BOLB   C2C23226   2.778  12.768  28.505  0.1080  0.1406 -0.0503
  968BOLB   C3C23227   2.413  12.831  28.281  0.0976 -0.3396 -0.2867
  968BOLB   C4C23228   2.293  12.913  27.890  0.1307 -0.1938 -0.0619
  968BOLB   C1D23229   3.340  12.239  28.791 -0.0128 -0.0328 -0.1005
  968BOLB   C2D23230   3.125  12.702  28.905  0.1066  0.2361 -0.3762
  968BOLB   C3D23231   2.892  13.067  29.056 -0.2991 -0.2563 -0.0057
  968BOLB   C4D23232   2.601  13.218  29.401 -0.1863  0.0107  0.0321
  969BOLB   NC123233  32.305  24.999   4.426 -0.2382  0.1794 -0.0332
  969BOLB   PO123234  32.568  24.976   4.034 -0.0763 -0.0542 -0.2288
  969BOLB   GL123235  32.884  24.762   4.287 -0.1831  0.3402  0.1691
  969BOLB   GL223236  32.992  24.456   4.273 -0.0066 -0.1988  0.0548
  969BOLB   C1A23237  33.390  24.687   4.392 -0.0377 -0.2962 -0.0186
  969BOLB   C2A23238  33.503  24.407   4.824 -0.1301  0.2522 -0.0562
  969BOLB   C3A23239  33.619  24.010   4.978  0.2012  0.3826 -0.0360
  969BOLB   C4A23240  33.751  23.503   4.973 -0.0383  0.0100  0.0763
  969BOLB   C1B23241  33.105  24.182   4.668 -0.2815 -0.0390 -0.0148
  969BOLB   C2B23242  33.075  24.357   5.059  0.1825  0.1581  0.0817
  969BOLB   C3B23243  33.266  24.585   5.430 -0.1617  0.2524  0.2108
  969BOLB   C4B23244  33.546  24.549   5.907  0.1316 -0.2646 -0.1546
  969BOLB   NC223245  32.390  24.636   3.430 -0.1335 -0.1362  0.2974
  969BOLB   PO223246  32.467  24.162   3.319  0.0960 -0.0343  0.0808
  969BOLB   GL323247  32.615  23.732   3.332  0.1953  0.1014  0.0103
  969BOLB   GL423248  32.390  23.463   3.586  0.2315 -0.3354 -0.0857
  969BOLB   C1C23249  32.889  23.386   3.534  0.1335 -0.1824 -0.2621
  969BOLB   C2C23250  33.197  23.355   3.927  0.5064  0.0593 -0.0765
  969BOLB   C3C23251  33.378  23.291   4.327  0.1832  0.3882  0.0367
  969BOLB   C4C23252  33.497  23.208   4.753 -0.1161  0.0701  0.1037
  969BOLB   C1D23253  32.452  23.317   4.037  0.0031  0.2984  0.1692
  969BOLB   C2D23254  32.425  23.087   4.377  0.0308 -0.1454 -0.0276
  969BOLB   C3D23255  32.051  23.273   4.644 -0.0217 -0.2064 -0.3151
  969BOLB   C4D23256  31.638  23.201   4.708  0.3483  0.1842  0.3341
  970BOLB   NC123257   5.117  29.211  20.261  0.2313 -0.0685  0.1765
  970BOLB   PO123258   5.493  29.102  19.943  0.2971 -0.0381  0.0239
  970BOLB   GL123259   5.656  28.738  19.620 -0.1090  0.0709 -0.2087
  970BOLB   GL223260   6.063  28.612  19.689  0.0213 -0.2082  0.0935
  970BOLB   C1A23261   5.768  28.564  19.205 -0.0289  0.0070  0.1998
  970BOLB   C2A23262   5.898  28.187  19.031  0.1609 -0.1250 -0.0538
  970BOLB   C3A23263   5.841  27.848  18.719  0.1834 -0.1806  0.1424
  970BOLB   C4A23264   5.668  27.521  18.480 -0.1978  0.0765 -0.2553
  970BOLB   C1B23265   6.017  28.219  19.565  0.0586  0.0037 -0.0741
  970BOLB   C2B23266   5.841  27.814  19.400 -0.1085 -0.1776 -0.1270
  970BOLB   C3B23267   6.012  27.504  19.162 -0.0271 -0.0271 -0.0193
  970BOLB   C4B23268   6.310  27.169  18.967 -0.1560  0.0832  0.0653
  970BOLB   NC223269   5.990  27.487  21.342 -0.1893  0.1998 -0.0736
  970BOLB   PO223270   5.899  27.472  20.940  0.3858 -0.3003 -0.3191
  970BOLB   GL323271   5.633  27.743  20.500 -0.0373 -0.2332 -0.3474
  970BOLB   GL423272   5.292  27.687  20.420 -0.3025 -0.0562  0.2544
  970BOLB   C1C23273   5.343  27.818  19.960  0.0526 -0.0493 -0.1056
  970BOLB   C2C23274   5.407  27.742  19.585  0.0680 -0.1645 -0.2395
  970BOLB   C3C23275   5.505  27.336  19.299 -0.1697  0.1169  0.0671
  970BOLB   C4C23276   5.563  27.411  18.890  0.1035 -0.0576  0.2212
  970BOLB   C1D23277   5.615  27.223  20.402 -0.3017 -0.2321  0.0069
  970BOLB   C2D23278   5.746  27.012  20.236 -0.0390  0.1269  0.1330
  970BOLB   C3D23279   5.642  26.709  19.870 -0.2008 -0.3672  0.3455
  970BOLB   C4D23280   5.763  26.585  19.511  0.0838 -0.0038  0.3219
  971BOLB   NC123281   4.108  25.204   4.434 -0.0720  0.1502 -0.1943
  971BOLB   PO123282   4.458  25.127   4.336 -0.0507  0.0902  0.2954
  971BOLB   GL123283   4.438  25.232   3.846 -0.1482 -0.0258 -0.0652
  971BOLB   GL223284   4.095  25.461   3.799 -0.1816 -0.1313 -0.1988
  971BOLB   C1A23285   4.589  25.455   3.469 -0.3559 -0.1817 -0.1887
  971BOLB   C2A23286   4.569  25.701   3.212  0.2219 -0.1233  0.2976
  971BOLB   C3A23287   4.490  25.982   2.845  0.0706 -0.2236 -0.3712
  971BOLB   C4A23288   4.399  26.153   2.506  0.0829 -0.1436 -0.0984
  971BOLB   C1B23289   4.068  25.541   3.381  0.1932 -0.0106  0.2975
  971BOLB   C2B23290   4.046  25.638   2.929 -0.0102  0.1823  0.3207
  971BOLB   C3B23291   4.004  25.527   2.524 -0.2544 -0.1045 -0.0031
  971BOLB   C4B23292   4.187  25.811   2.255 -0.3915  0.1901  0.1171
  971BOLB   NC223293   3.090  28.121   1.692  0.1386 -0.0622  0.0128
  971BOLB   PO223294   3.575  28.037   1.506 -0.2180  0.1345 -0.1523
  971BOLB   GL323295   4.019  27.965   1.729 -0.0324 -0.2252  0.2926
  971BOLB   GL423296   3.918  27.725   1.968  0.2190 -0.0068 -0.1577
  971BOLB   C1C23297   4.410  27.661   1.858  0.1396  0.1484  0.1178
  971BOLB   C2C23298   4.487  27.341   2.205 -0.0659 -0.0599 -0.2120
  971BOLB   C3C23299   4.556  26.870   2.406  0.1013 -0.0277 -0.2290
  971BOLB   C4C23300   4.421  26.478   2.309 -0.2263  0.0226 -0.0626
  971BOLB   C1D23301   4.137  27.671   2.371 -0.0969  0.0296  0.2656
  971BOLB   C2D23302   4.264  27.584   2.777 -0.0738 -0.0766  0.1121
  971BOLB   C3D23303   4.506  27.531   3.122  0.2006  0.1063 -0.0162
  971BOLB   C4D23304   4.637  27.512   3.571 -0.1081 -0.1146  0.0259
  972BOLB   NC123305  32.258  14.419   3.959 -0.1114 -0.0364  0.2082
  972BOLB   PO123306  32.498  14.327   3.567  0.2658 -0.2695 -0.3220
  972BOLB   GL123307  32.861  14.286   3.861  0.1335  0.1286 -0.4648
  972BOLB   GL223308  32.875  14.270   4.202 -0.0365 -0.0667  0.2984
  972BOLB   C1A23309  33.247  14.541   3.900  0.0638 -0.4667  0.1547
  972BOLB   C2A23310  33.614  14.830   3.979  0.2352 -0.1125 -0.0991
  972BOLB   C3A23311  33.716  15.213   4.175  0.1686 -0.2502 -0.0518
  972BOLB   C4A23312  33.629  15.589   4.388 -0.2757  0.2581  0.3149
  972BOLB   C1B23313  33.157  14.649   4.341  0.2966 -0.0433 -0.0989
  972BOLB   C2B23314  33.540  14.885   4.582 -0.0934 -0.1823  0.1081
  972BOLB   C3B23315  33.641  15.292   4.808  0.0648  0.0563 -0.3880
  972BOLB   C4B23316  33.933  15.384   5.179  0.1227  0.1768 -0.3009
  972BOLB   NC223317  32.733  15.668   2.480 -0.1606 -0.2935 -0.0458
  972BOLB   PO223318  32.496  16.077   2.697  0.1119  0.1639  0.0259
  972BOLB   GL323319  32.969  15.971   2.846  0.3189  0.2429 -0.1667
  972BOLB   GL423320  33.246  16.154   2.663 -0.3465  0.1775 -0.3702
  972BOLB   C1C23321  33.019  16.028   3.238  0.0846  0.0397 -0.0002
  972BOLB   C2C23322  33.189  15.936   3.648  0.1329 -0.1583 -0.0745
  972BOLB   C3C23323  33.188  15.828   4.101  0.1459 -0.2604 -0.0884
  972BOLB   C4C23324  33.461  15.937   4.310 -0.2369  0.1950  0.2351
  972BOLB   C1D23325  33.645  16.398   2.742 -0.2322  0.3677  0.3098
  972BOLB   C2D23326  33.878  16.549   3.198  0.0278  0.1720  0.0714
  972BOLB   C3D23327  34.207  16.271   3.426 -0.0726 -0.0574 -0.2471
  972BOLB   C4D23328  34.650  16.147   3.436  0.0972  0.3326  0.0960
  973BOLB   NC123329   2.074  12.449   0.291  0.0877  0.0937  0.2767
  973BOLB   PO123330   2.475  12.267   0.525  0.1643  0.4141  0.1738
  973BOLB   GL123331   2.418  12.289   0.970  0.2605  0.3666  0.3182
  973BOLB   GL223332   2.065  12.160   0.973  0.2688 -0.1800 -0.1344
  973BOLB   C1A23333   2.398  12.189   1.355 -0.1137  0.0603  0.2354
  973BOLB   C2A23334   2.177  12.197   1.725 -0.1527  0.0457 -0.1942
  973BOLB   C3A23335   1.898  12.562   1.811  0.0189 -0.0732 -0.2069
  973BOLB   C4A23336   1.663  12.946   1.810 -0.1794 -0.0978 -0.4081
  973BOLB   C1B23337   1.758  12.335   0.843  0.1781 -0.1265  0.2181
  973BOLB   C2B23338   1.604  12.644   1.106  0.1419  0.1242  0.1819
  973BOLB   C3B23339   1.369  12.883   1.277 -0.0549 -0.0225 -0.1045
  973BOLB   C4B23340   1.003  13.095   1.523 -0.1412  0.0610  0.2146
  973BOLB   NC223341   1.184  13.569  -0.443 -0.2148 -0.0333  0.0666
  973BOLB   PO223342   0.799  13.510  -0.245  0.2781  0.1279  0.0721
  973BOLB   GL323343   0.667  13.671   0.175  0.2343  0.2084  0.0895
  973BOLB   GL423344   0.308  13.463   0.211  0.2637  0.1273  0.0625
  973BOLB   C1C23345   0.621  13.577   0.638 -0.1266 -0.2019 -0.0390
  973BOLB   C2C23346   1.011  13.493   1.028 -0.4883 -0.2337  0.0484
  973BOLB   C3C23347   1.438  13.568   1.228  0.2521  0.2963  0.2646
  973BOLB   C4C23348   1.611  13.349   1.556  0.1225  0.1267  0.0333
  973BOLB   C1D23349  -0.146  13.571   0.405  0.0980  0.0077  0.0323
  973BOLB   C2D23350  -0.478  13.674   0.313  0.0550 -0.0432 -0.0379
  973BOLB   C3D23351  -0.795  14.103   0.246 -0.0804  0.1178 -0.1252
  973BOLB   C4D23352  -1.229  14.342   0.188 -0.0635 -0.5130  0.0852
  974BOLB   NC123353  30.068  22.161  16.134  0.2991 -0.1619  0.1181
  974BOLB   PO123354  30.500  22.214  16.233  0.0482  0.2180  0.3278
  974BOLB   GL123355  30.651  22.003  15.883 -0.1296 -0.1234 -0.2695
  974BOLB   GL223356  30.802  22.078  15.606 -0.0024 -0.1445 -0.0871
  974BOLB   C1A23357  30.975  21.668  16.049  0.4652 -0.0640 -0.0955
  974BOLB   C2A23358  31.264  21.536  15.698  0.0496 -0.0453 -0.1643
  974BOLB   C3A23359  31.429  21.730  15.357  0.0116  0.2307  0.0894
  974BOLB   C4A23360  31.627  22.094  15.497 -0.4234  0.2785 -0.1278
  974BOLB   C1B23361  31.151  22.084  15.854 -0.1548  0.0196 -0.3768
  974BOLB   C2B23362  31.589  21.994  15.994  0.1325 -0.2809 -0.0654
  974BOLB   C3B23363  31.931  21.760  15.791  0.1614 -0.1317  0.1030
  974BOLB   C4B23364  31.933  21.703  15.377 -0.1226  0.0163  0.0743
  974BOLB   NC223365  31.796  24.360  15.661 -0.2508 -0.1435  0.1304
  974BOLB   PO223366  31.980  24.183  15.988  0.0403  0.1626 -0.4020
  974BOLB   GL323367  31.995  23.857  15.735  0.3211  0.3164 -0.0845
  974BOLB   GL423368  32.199  24.036  15.487 -0.2825 -0.0784 -0.0494
  974BOLB   C1C23369  32.221  23.472  15.550  0.1547 -0.1793 -0.1371
  974BOLB   C2C23370  32.364  23.137  15.763  0.4264  0.0542 -0.1772
  974BOLB   C3C23371  32.166  22.723  15.796 -0.1028  0.2312  0.1265
  974BOLB   C4C23372  31.913  22.322  15.741 -0.0208 -0.0332  0.1473
  974BOLB   C1D23373  32.494  23.854  15.322 -0.3098  0.5929 -0.0839
  974BOLB   C2D23374  32.707  23.547  15.117 -0.4833 -0.0905  0.0050
  974BOLB   C3D23375  33.173  23.472  14.796 -0.0716 -0.3081  0.1579
  974BOLB   C4D23376  33.574  23.497  14.535 -0.0793  0.0412  0.1660
  975BOLB   NC123377  35.812  17.015  21.667 -0.1524  0.2895  0.3858
  975BOLB   PO123378  36.039  16.798  21.469 -0.0468  0.1377 -0.0613
  975BOLB   GL123379  36.013  16.688  21.109  0.1814  0.0313 -0.1363
  975BOLB   GL223380  36.197  16.328  21.096 -0.0648 -0.1485 -0.4655
  975BOLB   C1A23381  35.826  16.454  20.736  0.1000  0.0594  0.0958
  975BOLB   C2A23382  36.059  16.119  20.535  0.2453 -0.0290  0.1923
  975BOLB   C3A23383  36.061  15.762  20.326 -0.1563  0.1125 -0.0286
  975BOLB   C4A23384  35.944  15.608  19.902 -0.0256 -0.0049 -0.1813
  975BOLB   C1B23385  35.982  16.012  20.995  0.2092  0.0841  0.3042
  975BOLB   C2B23386  35.816  15.776  20.771 -0.0163  0.0695 -0.3279
  975BOLB   C3B23387  35.768  15.443  20.701  0.1125  0.1331  0.1809
  975BOLB   C4B23388  35.539  15.129  20.556  0.0769 -0.1225  0.2006
  975BOLB   NC223389  33.591  15.930  20.807 -0.3315  0.0315 -0.1803
  975BOLB   PO223390  33.606  15.663  20.392  0.0459  0.0131  0.0389
  975BOLB   GL323391  33.936  15.806  20.223 -0.1395 -0.1105 -0.3086
  975BOLB   GL423392  33.956  15.734  19.868  0.2770  0.1449 -0.3142
  975BOLB   C1C23393  34.417  15.794  20.034 -0.1757 -0.1108 -0.0529
  975BOLB   C2C23394  34.785  15.907  19.989  0.0464 -0.1466  0.5530
  975BOLB   C3C23395  35.228  15.861  19.879 -0.0066  0.0085  0.1005
  975BOLB   C4C23396  35.564  15.750  19.709 -0.0546  0.0058 -0.0882
  975BOLB   C1D23397  33.985  16.075  19.519  0.0546 -0.0563  0.0543
  975BOLB   C2D23398  33.921  16.042  19.118  0.0512  0.0136  0.1723
  975BOLB   C3D23399  34.094  16.327  18.746  0.1079  0.4218  0.1464
  975BOLB   C4D23400  34.256  16.303  18.372 -0.1915  0.0302 -0.0847
  976BOLB   NC123401  13.082  24.255  14.241 -0.1680  0.1437 -0.1168
  976BOLB   PO123402  13.443  24.610  14.225  0.1904  0.1556  0.0933
  976BOLB   GL123403  13.653  24.730  14.542 -0.1341  0.1846  0.4202
  976BOLB   GL223404  13.665  24.519  14.776  0.4124  0.4566 -0.4128
  976BOLB   C1A23405  14.045  24.920  14.636  0.0515  0.2983 -0.1145
  976BOLB   C2A23406  14.428  24.993  14.651  0.1837 -0.1081 -0.1067
  976BOLB   C3A23407  14.649  25.274  14.902 -0.1309  0.1835 -0.1185
  976BOLB   C4A23408  14.988  25.506  14.983  0.1233  0.2608  0.0395
  976BOLB   C1B23409  13.998  24.463  15.051  0.0796 -0.1007 -0.2223
  976BOLB   C2B23410  14.359  24.709  15.103  0.1255  0.1013  0.1042
  976BOLB   C3B23411  14.850  24.769  14.939  0.1342 -0.1135  0.1120
  976BOLB   C4B23412  15.329  24.733  15.030 -0.0695  0.1464  0.2181
  976BOLB   NC223413  16.300  26.405  16.276  0.4620 -0.0305 -0.3103
  976BOLB   PO223414  16.255  26.842  16.063 -0.0519 -0.3247  0.0383
  976BOLB   GL323415  15.883  26.788  15.932  0.1183 -0.0394  0.1319
  976BOLB   GL423416  15.772  26.605  16.147 -0.1065  0.1323 -0.3352
  976BOLB   C1C23417  15.466  26.535  15.736 -0.1589  0.1043  0.2910
  976BOLB   C2C23418  15.151  26.292  15.615  0.1336 -0.1519  0.3602
  976BOLB   C3C23419  15.008  25.941  15.520  0.1399  0.2530  0.0186
  976BOLB   C4C23420  15.140  25.804  15.191  0.0172  0.0788 -0.0721
  976BOLB   C1D23421  15.500  26.336  16.480 -0.0074  0.2924 -0.1122
  976BOLB   C2D23422  15.047  26.216  16.507 -0.1312  0.1577  0.2578
  976BOLB   C3D23423  14.633  26.053  16.366 -0.2187  0.1649  0.0518
  976BOLB   C4D23424  14.377  25.709  16.128  0.1970 -0.0472 -0.0758
  977BOLB   NC123425   2.135  16.880  10.079 -0.0789 -0.0177 -0.0014
  977BOLB   PO123426   1.735  17.173   9.992 -0.1166 -0.0370 -0.1474
  977BOLB   GL123427   1.409  16.969   9.762  0.0520 -0.2109  0.1715
  977BOLB   GL223428   1.475  16.638   9.804 -0.0284 -0.3017 -0.0263
  977BOLB   C1A23429   1.019  17.020   9.525 -0.2926  0.2221  0.2852
  977BOLB   C2A23430   0.626  16.819   9.391 -0.2772  0.1735  0.1162
  977BOLB   C3A23431   0.324  16.531   9.193 -0.3441 -0.3834 -0.2050
  977BOLB   C4A23432  -0.085  16.592   9.166  0.1294  0.0050  0.0086
  977BOLB   C1B23433   1.047  16.532   9.621 -0.0676  0.1424  0.1490
  977BOLB   C2B23434   0.654  16.313   9.551 -0.1195  0.0928 -0.2434
  977BOLB   C3B23435   0.292  16.043   9.610  0.0290 -0.1251  0.2438
  977BOLB   C4B23436   0.110  15.700   9.636  0.2361  0.0205  0.0968
  977BOLB   NC223437   0.525  18.347   9.996 -0.1188  0.2561 -0.0704
  977BOLB   PO223438   0.695  18.241   9.567  0.0091  0.1373 -0.0198
  977BOLB   GL323439   0.318  18.224   9.400  0.0997 -0.2344 -0.2115
  977BOLB   GL423440   0.169  18.375   9.602  0.1124 -0.0113 -0.0114
  977BOLB   C1C23441  -0.041  17.911   9.365 -0.2064  0.0655  0.1547
  977BOLB   C2C23442  -0.270  17.520   9.319  0.2033 -0.1513 -0.2277
  977BOLB   C3C23443  -0.511  17.229   9.237 -0.3172  0.0447  0.1658
  977BOLB   C4C23444  -0.468  16.848   9.166  0.0316 -0.1295 -0.0453
  977BOLB   C1D23445  -0.162  18.426   9.300 -0.1347 -0.2250 -0.2220
  977BOLB   C2D23446  -0.617  18.589   9.202 -0.0575 -0.2118  0.0360
  977BOLB   C3D23447  -0.922  18.682   9.002 -0.1839 -0.0306 -0.2033
  977BOLB   C4D23448  -1.303  18.846   9.055  0.0150 -0.0724 -0.0702
  978BOLB   NC123449   8.454  14.966   4.635 -0.3374 -0.2600 -0.0534
  978BOLB   PO123450   8.085  14.723   4.865 -0.2491  0.0348 -0.0486
  978BOLB   GL123451   8.050  14.320   4.721 -0.3824  0.0021  0.0090
  978BOLB   GL223452   8.227  14.346   4.489 -0.2497  0.2699 -0.0793
  978BOLB   C1A23453   8.004  13.932   4.437 -0.1132 -0.2216  0.0298
  978BOLB   C2A23454   8.251  13.873   4.114 -0.1758 -0.0795  0.1729
  978BOLB   C3A23455   8.540  13.707   3.836 -0.5109  0.0571  0.0050
  978BOLB   C4A23456   8.756  13.428   3.475 -0.1456 -0.2825 -0.1850
  978BOLB   C1B23457   8.461  14.035   4.602 -0.0802  0.0123 -0.0304
  978BOLB   C2B23458   8.624  13.572   4.430 -0.1956 -0.0189  0.3506
  978BOLB   C3B23459   8.671  13.105   4.285  0.0394  0.0006 -0.1713
  978BOLB   C4B23460   8.932  12.854   4.097 -0.1141 -0.2214 -0.3902
  978BOLB   NC223461   9.818  11.184   2.340  0.1769 -0.0341  0.0812
  978BOLB   PO223462   9.577  11.252   2.855 -0.2543  0.2336  0.0672
  978BOLB   GL323463   9.304  11.638   2.873  0.1391  0.2924  0.1745
  978BOLB   GL423464   9.540  11.852   2.980  0.1004 -0.3181 -0.0801
  978BOLB   C1C23465   8.997  12.065   3.019 -0.1034  0.0079  0.0670
  978BOLB   C2C23466   8.680  12.266   3.258  0.3180  0.1101  0.1624
  978BOLB   C3C23467   8.830  12.739   3.286 -0.2337  0.2236  0.0600
  978BOLB   C4C23468   8.908  13.113   3.576  0.0592  0.2328  0.3557
  978BOLB   C1D23469   9.370  12.041   3.342  0.0357 -0.4501 -0.3036
  978BOLB   C2D23470   9.592  12.337   3.598  0.1095  0.0563 -0.2485
  978BOLB   C3D23471   9.819  12.613   3.833  0.3200 -0.0662 -0.0077
  978BOLB   C4D23472   9.566  12.868   4.127 -0.2543  0.1909 -0.2927
  979BOLB   NC123473   7.910  33.224  12.051 -0.0379  0.0064  0.1180
  979BOLB   PO123474   7.558  33.016  12.032 -0.0120 -0.0599 -0.0776
  979BOLB   GL123475   7.286  32.669  11.788  0.1188  0.0276 -0.3833
  979BOLB   GL223476   6.926  32.621  11.799 -0.1601 -0.0645  0.1442
  979BOLB   C1A23477   7.115  32.192  11.790 -0.1603 -0.1857  0.0599
  979BOLB   C2A23478   7.421  31.856  11.745 -0.3997 -0.0757  0.1018
  979BOLB   C3A23479   7.746  31.747  11.522 -0.1789 -0.2480  0.0639
  979BOLB   C4A23480   7.877  31.655  11.133 -0.1781  0.0220  0.0988
  979BOLB   C1B23481   6.638  32.367  11.813  0.0493  0.0249  0.2788
  979BOLB   C2B23482   6.698  31.958  12.101  0.0670 -0.0512  0.0992
  979BOLB   C3B23483   6.815  31.693  12.349  0.0577  0.0825  0.1698
  979BOLB   C4B23484   6.736  31.222  12.513  0.1682  0.1673  0.1802
  979BOLB   NC223485   8.628  32.963   9.610 -0.2192 -0.0367 -0.0997
  979BOLB   PO223486   8.313  33.184   9.835  0.0834  0.0708  0.1267
  979BOLB   GL323487   8.090  32.912   9.922 -0.3391 -0.3287  0.0173
  979BOLB   GL423488   7.818  32.887   9.733  0.0751 -0.1096 -0.3262
  979BOLB   C1C23489   7.954  32.686  10.190 -0.1706 -0.2022  0.1277
  979BOLB   C2C23490   8.035  32.371  10.451 -0.0365 -0.3959  0.3384
  979BOLB   C3C23491   8.088  31.960  10.400  0.0952  0.0249 -0.1786
  979BOLB   C4C23492   8.043  31.601  10.707  0.3360  0.0191  0.0287
  979BOLB   C1D23493   7.713  32.530   9.817  0.3430  0.3652  0.0031
  979BOLB   C2D23494   7.903  32.071   9.834 -0.0872  0.1089  0.0315
  979BOLB   C3D23495   7.860  31.765   9.531 -0.0432  0.0247 -0.1703
  979BOLB   C4D23496   8.146  31.559   9.292 -0.3034 -0.1555  0.2892
  980BOLB   NC123497  35.044  10.099  16.290  0.1219  0.2018 -0.1784
  980BOLB   PO123498  35.024  10.134  15.921  0.0325 -0.2407  0.2082
  980BOLB   GL123499  35.405  10.347  15.768 -0.1345 -0.0414  0.2086
  980BOLB   GL223500  35.250  10.671  15.759  0.0343  0.0353  0.0160
  980BOLB   C1A23501  35.808  10.563  15.667 -0.2558  0.1233 -0.1298
  980BOLB   C2A23502  36.055  10.946  15.809 -0.1550 -0.2799 -0.1885
  980BOLB   C3A23503  36.228  11.429  15.912  0.0628  0.0931 -0.2345
  980BOLB   C4A23504  36.237  11.553  16.336  0.1861  0.1149 -0.1556
  980BOLB   C1B23505  35.417  11.075  15.882 -0.0565 -0.0907  0.2655
  980BOLB   C2B23506  35.740  11.382  15.907 -0.1571 -0.2017  0.0417
  980BOLB   C3B23507  35.781  11.679  16.070  0.1925 -0.0504  0.0908
  980BOLB   C4B23508  35.753  11.982  15.869  0.1907  0.1831 -0.0001
  980BOLB   NC223509  34.862  11.336  18.332 -0.2210 -0.1063  0.0323
  980BOLB   PO223510  34.741  11.146  17.860 -0.0507 -0.1489  0.2193
  980BOLB   GL323511  34.923  11.227  17.451  0.0005  0.1154  0.1194
  980BOLB   GL423512  34.973  11.496  17.499  0.2494  0.0683 -0.0944
  980BOLB   C1C23513  35.362  11.307  17.297 -0.4980  0.0836 -0.4903
  980BOLB   C2C23514  35.687  11.572  17.233 -0.0262 -0.2777  0.0280
  980BOLB   C3C23515  36.009  11.773  17.097 -0.0663  0.0315  0.1767
  980BOLB   C4C23516  36.165  11.857  16.642  0.0281  0.2600 -0.1761
  980BOLB   C1D23517  35.133  11.847  17.383 -0.1670  0.4262  0.0986
  980BOLB   C2D23518  35.600  12.127  17.273 -0.1185 -0.2709  0.1517
  980BOLB   C3D23519  36.001  12.288  17.332 -0.3250  0.3430  0.0673
  980BOLB   C4D23520  36.323  12.189  17.394  0.1303  0.3574 -0.0175
  981BOLB   NC123521  13.687  25.040  11.545  0.1279  0.0482 -0.1026
  981BOLB   PO123522  13.675  25.416  11.831 -0.0948  0.3343  0.0813
  981BOLB   GL123523  14.025  25.591  11.948  0.1895  0.1317  0.0006
  981BOLB   GL223524  14.106  25.493  12.220  0.4393 -0.2459  0.2282
  981BOLB   C1A23525  14.251  25.936  11.936 -0.0561  0.2909 -0.2449
  981BOLB   C2A23526  14.255  26.383  11.926  0.2141 -0.3545 -0.0723
  981BOLB   C3A23527  14.478  26.629  11.731 -0.2026  0.2147  0.1853
  981BOLB   C4A23528  14.927  26.586  11.840 -0.1302  0.0958 -0.1655
  981BOLB   C1B23529  14.380  25.683  12.385  0.1847  0.0669  0.0588
  981BOLB   C2B23530  14.480  26.080  12.317  0.1082 -0.0581 -0.0178
  981BOLB   C3B23531  14.587  26.606  12.224  0.0372  0.1436 -0.0549
  981BOLB   C4B23532  14.721  27.012  12.008  0.2736 -0.3451  0.0643
  981BOLB   NC223533  17.353  27.511  12.120 -0.0215 -0.0462  0.2604
  981BOLB   PO223534  17.003  27.752  12.264 -0.0600 -0.3522  0.1915
  981BOLB   GL323535  16.551  27.724  12.075  0.3832 -0.0435  0.3387
  981BOLB   GL423536  16.459  27.516  12.371  0.2952  0.1514  0.0676
  981BOLB   C1C23537  16.117  27.746  11.980 -0.3473  0.0249 -0.1663
  981BOLB   C2C23538  15.904  27.341  11.958  0.0001  0.0863 -0.2328
  981BOLB   C3C23539  15.661  27.054  11.754  0.2650 -0.0490 -0.0516
  981BOLB   C4C23540  15.324  26.923  11.926  0.0964 -0.1303  0.1436
  981BOLB   C1D23541  16.083  27.369  12.390 -0.3217 -0.0104 -0.3149
  981BOLB   C2D23542  15.673  27.171  12.528  0.2096  0.1184 -0.0821
  981BOLB   C3D23543  15.372  26.999  12.531 -0.2273 -0.0031  0.1134
  981BOLB   C4D23544  15.028  26.794  12.352  0.1344  0.2260 -0.1332
  982BOLB   NC123545  11.453  21.396   2.808 -0.1841 -0.3980 -0.1077
  982BOLB   PO123546  11.762  21.396   3.195  0.0995 -0.0139 -0.2500
  982BOLB   GL123547  12.103  21.453   3.085  0.0452  0.1613 -0.2426
  982BOLB   GL223548  12.440  21.362   3.169 -0.0192  0.0055  0.1649
  982BOLB   C1A23549  12.334  21.774   2.801 -0.1045  0.1099  0.0255
  982BOLB   C2A23550  12.736  22.024   2.767 -0.0387 -0.0580  0.2826
  982BOLB   C3A23551  12.989  22.268   2.611  0.0516  0.0963 -0.1319
  982BOLB   C4A23552  13.312  22.418   2.374 -0.1314  0.0624 -0.2387
  982BOLB   C1B23553  12.529  21.326   2.747 -0.0419 -0.3071 -0.6062
  982BOLB   C2B23554  12.963  21.159   2.438 -0.0292  0.3093  0.0248
  982BOLB   C3B23555  13.209  21.238   2.131 -0.2803  0.1205 -0.1820
  982BOLB   C4B23556  13.413  21.573   2.071  0.2201 -0.0908 -0.2586
  982BOLB   NC223557  15.669  22.392   1.201  0.0161 -0.1153  0.5670
  982BOLB   PO223558  15.378  22.369   0.858  0.0929  0.2832 -0.1207
  982BOLB   GL323559  14.937  22.319   0.936 -0.0824  0.2640 -0.4300
  982BOLB   GL423560  14.899  22.571   1.082  0.1597 -0.4343  0.2963
  982BOLB   C1C23561  14.556  22.268   1.247 -0.1488 -0.0618 -0.0790
  982BOLB   C2C23562  14.223  22.284   1.566 -0.0046  0.1629 -0.1467
  982BOLB   C3C23563  14.088  22.315   1.970  0.0642  0.0445 -0.4750
  982BOLB   C4C23564  13.738  22.535   2.237  0.2289  0.1584  0.2063
  982BOLB   C1D23565  14.542  22.756   1.356 -0.3070 -0.0400  0.1394
  982BOLB   C2D23566  14.158  22.922   1.532 -0.2430  0.1303  0.0812
  982BOLB   C3D23567  13.895  22.901   1.966 -0.5362 -0.0314 -0.1335
  982BOLB   C4D23568  13.505  22.951   2.135  0.1180 -0.0003 -0.0621
  983BOLB   NC123569  34.145  18.539  20.355 -0.0334 -0.0742  0.3977
  983BOLB   PO123570  33.990  18.942  20.186  0.1109  0.1571  0.1502
  983BOLB   GL123571  34.187  18.725  19.877 -0.1653 -0.1471  0.5180
  983BOLB   GL223572  34.185  18.319  19.884 -0.1805 -0.0850  0.0839
  983BOLB   C1A23573  34.626  18.603  19.683  0.2863  0.5659 -0.0720
  983BOLB   C2A23574  34.927  18.387  19.848 -0.2466  0.2340  0.0371
  983BOLB   C3A23575  35.266  18.063  19.868 -0.0011 -0.1588  0.2183
  983BOLB   C4A23576  35.427  17.666  19.799  0.0129 -0.1071  0.2322
  983BOLB   C1B23577  34.100  17.954  19.637  0.1636  0.0067 -0.0637
  983BOLB   C2B23578  34.202  17.898  19.239 -0.1392 -0.0572 -0.1677
  983BOLB   C3B23579  34.030  17.793  18.953  0.6615  0.1333  0.1258
  983BOLB   C4B23580  33.760  17.715  18.601 -0.1763  0.1428 -0.0256
  983BOLB   NC223581  34.704  15.822  21.480 -0.1219 -0.1421 -0.5082
  983BOLB   PO223582  34.850  15.809  21.078 -0.1454 -0.2621 -0.2011
  983BOLB   GL323583  35.070  15.958  20.709  0.3235 -0.1468 -0.2237
  983BOLB   GL423584  35.489  16.124  20.641  0.1681 -0.0808  0.0086
  983BOLB   C1C23585  35.095  16.154  20.305  0.0017  0.4958 -0.1111
  983BOLB   C2C23586  35.184  16.361  19.806  0.0786 -0.2461 -0.2114
  983BOLB   C3C23587  35.295  16.841  19.788 -0.2735 -0.3941  0.0136
  983BOLB   C4C23588  35.253  17.348  19.963 -0.1423  0.0047  0.3724
  983BOLB   C1D23589  35.435  15.781  20.460 -0.2407  0.1278  0.2239
  983BOLB   C2D23590  35.562  15.455  20.191 -0.1225  0.0381  0.0248
  983BOLB   C3D23591  35.819  15.075  20.120 -0.0285 -0.0841  0.1210
  983BOLB   C4D23592  35.554  14.731  20.140 -0.0229 -0.2375  0.0942
  984BOLB   NC123593  31.680  13.356  15.216  0.1095  0.4422  0.2597
  984BOLB   PO123594  31.630  13.700  15.526 -0.0515  0.2946 -0.0957
  984BOLB   GL123595  31.968  13.768  15.559 -0.0711  0.2908 -0.3407
  984BOLB   GL223596  32.047  13.674  15.922  0.0266  0.1654 -0.2538
  984BOLB   C1A23597  32.373  14.006  15.388 -0.1490  0.2382  0.0336
  984BOLB   C2A23598  32.394  14.593  15.458 -0.3589 -0.0429 -0.0805
  984BOLB   C3A23599  32.590  14.823  15.758  0.0502 -0.2061 -0.0664
  984BOLB   C4A23600  32.773  14.704  16.150  0.0649  0.0976 -0.2211
  984BOLB   C1B23601  32.401  13.764  16.067 -0.2910 -0.0464  0.0151
  984BOLB   C2B23602  32.584  14.045  16.410  0.1231 -0.0780 -0.0108
  984BOLB   C3B23603  32.465  14.406  16.720 -0.5873  0.0930 -0.1882
  984BOLB   C4B23604  32.575  14.520  17.133 -0.1228  0.0379 -0.2197
  984BOLB   NC223605  31.864  14.018  17.355 -0.2522  0.0829  0.1826
  984BOLB   PO223606  32.156  13.731  17.504  0.2382 -0.1571 -0.1491
  984BOLB   GL323607  32.375  13.953  17.437 -0.1587 -0.1002  0.3383
  984BOLB   GL423608  32.359  14.073  17.082  0.1396  0.0475  0.0809
  984BOLB   C1C23609  32.783  14.264  17.470 -0.0671  0.0425 -0.2085
  984BOLB   C2C23610  33.153  14.491  17.234 -0.1145 -0.1077 -0.2397
  984BOLB   C3C23611  33.117  14.379  16.835 -0.0515  0.3298  0.0339
  984BOLB   C4C23612  32.950  14.460  16.524 -0.1993  0.0022 -0.0586
  984BOLB   C1D23613  32.786  13.974  16.964 -0.1214  0.2069 -0.0760
  984BOLB   C2D23614  33.092  13.985  17.212  0.0884 -0.0939 -0.1338
  984BOLB   C3D23615  33.327  14.177  17.609  0.0782 -0.1925 -0.0127
  984BOLB   C4D23616  33.159  14.560  17.737 -0.4456  0.0591 -0.0554
  985BOLB   NC123617  33.078  21.369  18.095 -0.1483 -0.3230  0.0650
  985BOLB   PO123618  32.858  21.672  17.889  0.1313 -0.2033 -0.0713
  985BOLB   GL123619  32.763  21.301  17.602  0.1708 -0.1541 -0.0082
  985BOLB   GL223620  33.066  21.235  17.475  0.2035  0.0216  0.1633
  985BOLB   C1A23621  32.506  20.916  17.371  0.0726  0.1697 -0.3551
  985BOLB   C2A23622  32.491  20.591  16.995 -0.1744 -0.0382  0.0295
  985BOLB   C3A23623  32.673  20.560  16.575  0.3114  0.2042  0.0218
  985BOLB   C4A23624  32.644  20.792  16.197 -0.1648  0.0242  0.0040
  985BOLB   C1B23625  33.053  20.867  17.146  0.4459 -0.3849  0.2392
  985BOLB   C2B23626  33.074  20.497  16.865 -0.1806 -0.0567  0.0617
  985BOLB   C3B23627  33.355  20.517  16.532  0.0201 -0.0924 -0.0818
  985BOLB   C4B23628  33.821  20.524  16.597 -0.1402  0.1090  0.2131
  985BOLB   NC223629  32.832  22.904  17.678  0.2139  0.1937 -0.1381
  985BOLB   PO223630  32.858  22.489  17.653 -0.0663 -0.3891  0.1981
  985BOLB   GL323631  32.543  22.483  17.358 -0.1399 -0.0933  0.2158
  985BOLB   GL423632  32.216  22.613  17.206 -0.2205 -0.0158  0.1291
  985BOLB   C1C23633  32.572  22.304  16.889 -0.2612 -0.2105  0.0550
  985BOLB   C2C23634  32.422  21.885  16.801 -0.1718  0.0751 -0.1034
  985BOLB   C3C23635  32.424  21.669  16.274  0.3360 -0.2271 -0.1959
  985BOLB   C4C23636  32.674  21.240  16.219  0.1715  0.0127  0.0425
  985BOLB   C1D23637  32.093  22.329  16.941  0.1216  0.1721 -0.0362
  985BOLB   C2D23638  32.017  22.104  16.629 -0.0124 -0.1543 -0.0908
  985BOLB   C3D23639  32.053  21.959  16.225  0.1309  0.0199  0.1190
  985BOLB   C4D23640  32.376  22.034  15.900 -0.1448 -0.5357  0.2401
  986BOLB   NC123641  30.004  15.116   9.392  0.1063  0.1438 -0.0177
  986BOLB   PO123642  30.208  15.537   9.231 -0.0434 -0.0264  0.0502
  986BOLB   GL123643  30.553  15.582   9.148 -0.1229  0.0606 -0.0583
  986BOLB   GL223644  30.702  15.549   9.562 -0.5187 -0.1904  0.2814
  986BOLB   C1A23645  30.724  15.862   8.961  0.0745  0.1411 -0.0044
  986BOLB   C2A23646  30.932  15.886   8.508 -0.0858 -0.3167 -0.2954
  986BOLB   C3A23647  31.222  16.085   8.284  0.2200 -0.2539 -0.1292
  986BOLB   C4A23648  31.522  16.389   8.082  0.1326 -0.1671 -0.0170
  986BOLB   C1B23649  31.098  15.636   9.239 -0.3771 -0.1910  0.0125
  986BOLB   C2B23650  31.596  15.731   9.272  0.1494 -0.1267  0.2105
  986BOLB   C3B23651  31.971  15.712   9.364  0.1660  0.1531  0.0207
  986BOLB   C4B23652  32.252  15.396   9.617  0.1395 -0.0311 -0.2231
  986BOLB   NC223653  30.551  16.414   6.066  0.0199 -0.1680 -0.2445
  986BOLB   PO223654  30.398  16.698   6.396  0.0064  0.4427  0.1665
  986BOLB   GL323655  30.768  17.007   6.495 -0.1665  0.2903 -0.0081
  986BOLB   GL423656  30.982  17.030   6.184 -0.0423  0.1013 -0.0295
  986BOLB   C1C23657  31.165  17.088   6.740  0.0562 -0.2945  0.0166
  986BOLB   C2C23658  31.401  16.933   6.965  0.0656 -0.1985 -0.2037
  986BOLB   C3C23659  31.416  17.053   7.347  0.0734  0.0544 -0.3779
  986BOLB   C4C23660  31.493  16.738   7.678  0.0325  0.2105  0.1043
  986BOLB   C1D23661  31.288  17.096   5.967  0.1522 -0.1927 -0.0396
  986BOLB   C2D23662  31.738  17.159   5.997  0.1083  0.0060 -0.0308
  986BOLB   C3D23663  32.176  17.101   6.278 -0.0278  0.5691  0.1735
  986BOLB   C4D23664  32.516  16.961   6.403 -0.2180 -0.0611  0.0552
  987BOLB   NC123665   2.037   6.330   9.664 -0.0255  0.3486  0.1218
  987BOLB   PO123666   2.028   6.135  10.055  0.2138  0.1052  0.0424
  987BOLB   GL123667   2.114   6.553  10.174 -0.2032 -0.0355 -0.1002
  987BOLB   GL223668   2.013   6.780   9.935 -0.0903  0.1341  0.3374
  987BOLB   C1A23669   1.868   6.877  10.388  0.0468  0.1720  0.1483
  987BOLB   C2A23670   1.767   7.173  10.690  0.4912 -0.2768 -0.0633
  987BOLB   C3A23671   1.588   7.344  10.930 -0.2550  0.2030 -0.1581
  987BOLB   C4A23672   1.453   7.369  11.491  0.0688 -0.3459  0.1448
  987BOLB   C1B23673   1.804   7.160   9.958  0.1395  0.0318  0.0049
  987BOLB   C2B23674   1.766   7.605  10.121 -0.2295 -0.0513  0.0818
  987BOLB   C3B23675   1.608   7.959  10.282  0.2722 -0.1962  0.2076
  987BOLB   C4B23676   1.523   8.211  10.738 -0.2766  0.1603 -0.1318
  987BOLB   NC223677   1.301   5.977  12.636  0.0190  0.0789 -0.2575
  987BOLB   PO223678   1.331   6.325  12.850 -0.0463  0.1130  0.0679
  987BOLB   GL323679   1.077   6.598  12.956 -0.1140 -0.0147  0.1580
  987BOLB   GL423680   1.085   6.844  13.178 -0.1591  0.3548  0.0849
  987BOLB   C1C23681   0.915   6.934  12.633  0.1115 -0.3710 -0.2234
  987BOLB   C2C23682   0.919   7.326  12.496 -0.2541 -0.1146 -0.0390
  987BOLB   C3C23683   1.267   7.341  12.348 -0.2294 -0.1425  0.0132
  987BOLB   C4C23684   1.463   7.453  11.950 -0.1272  0.2668 -0.2451
  987BOLB   C1D23685   1.090   7.319  13.013 -0.3042  0.2899 -0.1915
  987BOLB   C2D23686   1.200   7.741  12.834 -0.3817 -0.5273  0.0585
  987BOLB   C3D23687   1.573   8.011  12.791  0.1680 -0.0995  0.0608
  987BOLB   C4D23688   1.917   8.209  12.862 -0.1166 -0.0432 -0.1499
  988BOLB   NC123689   7.904  16.672  16.419 -0.0778  0.1922 -0.0957
  988BOLB   PO123690   8.350  16.620  16.551 -0.4033  0.0671 -0.1126
  988BOLB   GL123691   8.261  16.286  16.767 -0.2551  0.0773 -0.1568
  988BOLB   GL223692   8.410  16.265  17.061  0.3518 -0.2028  0.1079
  988BOLB   C1A23693   8.113  15.909  16.963  0.0885 -0.2306 -0.2220
  988BOLB   C2A23694   8.123  15.728  17.449 -0.0983 -0.1745  0.0759
  988BOLB   C3A23695   8.108  15.319  17.616  0.3237  0.1932 -0.1997
  988BOLB   C4A23696   8.125  14.944  17.515 -0.1317 -0.2318  0.0526
  988BOLB   C1B23697   8.602  15.884  17.207 -0.1552  0.1879 -0.0334
  988BOLB   C2B23698   8.373  15.454  17.130  0.1744 -0.0677 -0.0939
  988BOLB   C3B23699   8.427  15.034  17.087 -0.1588 -0.0351 -0.1259
  988BOLB   C4B23700   8.565  14.647  17.263 -0.0709 -0.1836 -0.0044
  988BOLB   NC223701   8.457  12.222  17.850  0.0122  0.0902  0.1300
  988BOLB   PO223702   8.184  12.395  18.227  0.1283 -0.4160 -0.1123
  988BOLB   GL323703   8.095  12.808  18.135 -0.3907  0.0372  0.4252
  988BOLB   GL423704   8.304  12.933  17.927 -0.1100  0.1006 -0.1054
  988BOLB   C1C23705   8.098  13.331  18.139  0.1276 -0.3185  0.3773
  988BOLB   C2C23706   7.936  13.701  17.842 -0.1270  0.0786  0.3379
  988BOLB   C3C23707   7.852  14.118  17.581 -0.0783  0.1594  0.1682
  988BOLB   C4C23708   8.024  14.470  17.583  0.1276 -0.2383 -0.1425
  988BOLB   C1D23709   8.320  13.149  17.597  0.0525  0.4370 -0.0161
  988BOLB   C2D23710   8.227  13.543  17.493 -0.1170  0.0793 -0.0521
  988BOLB   C3D23711   7.896  13.696  17.195 -0.0413  0.0868 -0.1435
  988BOLB   C4D23712   7.521  13.543  16.928 -0.1810 -0.1516  0.0639
  989BOLB   NC123713   5.863  20.980  18.342  0.0582  0.1104  0.4991
  989BOLB   PO123714   5.879  20.833  18.701 -0.2907  0.0501 -0.0216
  989BOLB   GL123715   5.531  20.768  19.048  0.3984  0.1718  0.2139
  989BOLB   GL223716   5.590  20.453  19.023 -0.2077 -0.0850 -0.0471
  989BOLB   C1A23717   5.229  20.990  19.379  0.1718 -0.1093  0.3104
  989BOLB   C2A23718   4.952  21.188  19.629 -0.0810  0.0786  0.0977
  989BOLB   C3A23719   4.812  21.181  20.071 -0.1431  0.2054 -0.1697
  989BOLB   C4A23720   4.643  21.040  20.326 -0.2095 -0.1317 -0.2847
  989BOLB   C1B23721   5.474  20.404  19.430  0.0718 -0.2671 -0.1534
  989BOLB   C2B23722   5.360  20.346  19.861 -0.0550  0.2644 -0.0690
  989BOLB   C3B23723   5.234  20.275  20.231 -0.0201  0.0611 -0.3219
  989BOLB   C4B23724   5.058  20.216  20.517  0.1748  0.1004  0.0308
  989BOLB   NC223725   5.048  21.051  22.880 -0.1253 -0.0952 -0.1994
  989BOLB   PO223726   5.172  20.743  22.606  0.0323 -0.0449 -0.0066
  989BOLB   GL323727   5.107  21.052  22.311  0.0247 -0.2285 -0.0905
  989BOLB   GL423728   5.204  21.348  22.457 -0.0575  0.0209 -0.1456
  989BOLB   C1C23729   4.784  21.292  22.032 -0.1157 -0.3708 -0.1107
  989BOLB   C2C23730   4.788  21.248  21.567  0.0292  0.0069  0.1498
  989BOLB   C3C23731   4.648  20.980  21.155  0.2812 -0.1011  0.2703
  989BOLB   C4C23732   4.611  20.955  20.704  0.1104 -0.0107  0.2979
  989BOLB   C1D23733   5.281  21.468  22.059  0.0053 -0.3666 -0.1493
  989BOLB   C2D23734   5.574  21.462  21.825 -0.0443 -0.0105  0.0587
  989BOLB   C3D23735   5.831  21.174  21.523 -0.3268  0.1230 -0.0930
  989BOLB   C4D23736   5.858  20.788  21.447 -0.0555  0.1692  0.4918
  990BOLB   NC123737  14.674  22.533   0.596  0.1285 -0.1346  0.0528
  990BOLB   PO123738  14.718  22.933   0.424  0.1455  0.0987 -0.4093
  990BOLB   GL123739  14.503  22.909   0.822  0.1284 -0.1334 -0.0418
  990BOLB   GL223740  14.363  23.250   0.890 -0.2969  0.2978 -0.2951
  990BOLB   C1A23741  14.076  22.761   1.079 -0.0946  0.1180  0.3846
  990BOLB   C2A23742  13.787  22.496   1.160 -0.0772  0.1100  0.1437
  990BOLB   C3A23743  13.401  22.194   1.244 -0.0943 -0.2274  0.1590
  990BOLB   C4A23744  13.070  22.429   1.449  0.0826 -0.1521 -0.1252
  990BOLB   C1B23745  14.467  23.264   1.325 -0.1362  0.2318  0.3086
  990BOLB   C2B23746  14.418  23.276   1.770 -0.0710 -0.3793 -0.0638
  990BOLB   C3B23747  14.328  23.021   2.242 -0.1030  0.1967  0.0187
  990BOLB   C4B23748  14.265  22.586   2.472  0.0697  0.2042  0.0078
  990BOLB   NC223749  13.648  23.481  -0.293 -0.2425 -0.1443 -0.1086
  990BOLB   PO223750  13.261  23.483   0.014  0.0996  0.2535 -0.0530
  990BOLB   GL323751  12.998  23.682   0.314 -0.0325  0.0745  0.0609
  990BOLB   GL423752  13.114  23.478   0.615 -0.1155 -0.1282  0.1698
  990BOLB   C1C23753  12.661  23.514   0.514  0.2619 -0.0277  0.0179
  990BOLB   C2C23754  12.617  23.376   0.852 -0.1530  0.3154  0.1498
  990BOLB   C3C23755  12.559  23.073   1.197 -0.0106  0.2328  0.0255
  990BOLB   C4C23756  12.740  22.628   1.360  0.1864 -0.0881 -0.0598
  990BOLB   C1D23757  13.126  23.093   0.929  0.0984  0.3057  0.1052
  990BOLB   C2D23758  12.930  22.682   0.831 -0.1624  0.0624 -0.0169
  990BOLB   C3D23759  12.734  22.339   0.979 -0.0470  0.5003 -0.2735
  990BOLB   C4D23760  12.516  22.175   1.387  0.0318  0.3633  0.2383
  991BOLB   NC123761  34.207  11.110   4.813 -0.1132 -0.0454 -0.0179
  991BOLB   PO123762  34.446  10.721   4.828 -0.1464 -0.1910  0.1648
  991BOLB   GL123763  34.711  11.058   4.737 -0.2795  0.2189  0.5491
  991BOLB   GL223764  35.012  10.952   4.676  0.1518 -0.2584 -0.3321
  991BOLB   C1A23765  34.969  11.444   4.913  0.1143  0.4870  0.0646
  991BOLB   C2A23766  35.270  11.758   4.890 -0.4744 -0.0269 -0.0517
  991BOLB   C3A23767  35.483  12.016   5.134  0.1799  0.1338  0.2710
  991BOLB   C4A23768  35.590  12.352   5.410 -0.3003 -0.0736 -0.0483
  991BOLB   C1B23769  35.368  11.225   4.754  0.0471 -0.0613 -0.1064
  991BOLB   C2B23770  35.368  11.393   4.275  0.1263 -0.1266  0.0819
  991BOLB   C3B23771  35.603  11.616   4.046 -0.1640 -0.1794  0.2202
  991BOLB   C4B23772  35.815  12.001   4.051  0.0005  0.0045 -0.2812
  991BOLB   NC223773  33.814  11.070   4.372  0.2484 -0.4409  0.3033
  991BOLB   PO223774  33.919  11.354   4.518 -0.3322 -0.0251  0.0443
  991BOLB   GL323775  34.153  11.616   4.835 -0.0734 -0.0696 -0.3813
  991BOLB   GL423776  34.530  11.588   4.990  0.0292  0.1447 -0.0926
  991BOLB   C1C23777  34.265  11.985   5.045  0.0135 -0.0882  0.0495
  991BOLB   C2C23778  34.532  12.320   5.180 -0.0013 -0.1968 -0.1155
  991BOLB   C3C23779  34.943  12.661   5.290  0.0089  0.2612 -0.2197
  991BOLB   C4C23780  35.293  12.681   5.543 -0.0499  0.0592 -0.0160
  991BOLB   C1D23781  34.780  11.845   5.146  0.1291  0.2137 -0.2625
  991BOLB   C2D23782  35.001  12.149   5.286 -0.2691 -0.0675  0.3379
  991BOLB   C3D23783  35.199  12.178   5.642 -0.2577 -0.2169 -0.1732
  991BOLB   C4D23784  35.539  12.474   5.901 -0.2256  0.0515  0.0596
  992BOLB   NC123785  32.345  11.972  10.926  0.4528 -0.1076 -0.1669
  992BOLB   PO123786  32.438  11.605  10.716  0.0809 -0.2646 -0.2957
  992BOLB   GL123787  32.844  11.737  10.845 -0.0217  0.0495  0.1270
  992BOLB   GL223788  32.841  12.092  10.790  0.0664 -0.0902 -0.1529
  992BOLB   C1A23789  33.300  11.975  10.761  0.0125 -0.0281 -0.1730
  992BOLB   C2A23790  33.734  12.298  10.828  0.2882 -0.1229  0.1967
  992BOLB   C3A23791  34.037  12.343  11.115 -0.0785  0.0393  0.2594
  992BOLB   C4A23792  34.169  12.169  11.472  0.2985  0.0163 -0.1507
  992BOLB   C1B23793  32.984  12.173  10.412  0.1244  0.0284 -0.2190
  992BOLB   C2B23794  33.236  12.326  10.058  0.0474 -0.1492  0.1467
  992BOLB   C3B23795  33.621  12.415   9.896 -0.3441  0.1233 -0.0357
  992BOLB   C4B23796  33.747  12.880   9.963 -0.1467 -0.0782  0.1106
  992BOLB   NC223797  32.904  10.360  11.547 -0.1034 -0.1047 -0.1162
  992BOLB   PO223798  33.112  10.619  11.191  0.0622  0.1017 -0.3180
  992BOLB   GL323799  33.302  10.806  11.387  0.2250  0.0578  0.0368
  992BOLB   GL423800  33.360  10.846  11.643  0.0902  0.1175 -0.0031
  992BOLB   C1C23801  33.185  11.240  11.422 -0.1280 -0.1197  0.1684
  992BOLB   C2C23802  33.284  11.636  11.730  0.0909  0.1713  0.1583
  992BOLB   C3C23803  33.656  11.741  11.749 -0.2282  0.0284  0.1522
  992BOLB   C4C23804  33.981  11.915  11.643 -0.2609  0.0007  0.1148
  992BOLB   C1D23805  33.599  11.270  11.658 -0.1186 -0.0309 -0.2013
  992BOLB   C2D23806  34.107  11.315  11.594  0.0597  0.3349  0.0846
  992BOLB   C3D23807  34.536  11.239  11.587  0.0204 -0.0634 -0.1162
  992BOLB   C4D23808  34.918  11.207  11.263 -0.0197 -0.2017 -0.0538
  993BOLB   NC123809  30.512  19.009  17.237 -0.0255 -0.0002 -0.2394
  993BOLB   PO123810  30.548  18.747  17.670  0.1046  0.0016 -0.1422
  993BOLB   GL123811  31.037  18.887  17.583 -0.0705  0.0496 -0.0205
  993BOLB   GL223812  31.093  19.166  17.838 -0.0670  0.2531  0.1273
  993BOLB   C1A23813  31.475  18.788  17.646  0.1531 -0.2026  0.1978
  993BOLB   C2A23814  31.785  18.965  17.393  0.0149  0.1480 -0.2517
  993BOLB   C3A23815  32.074  18.831  17.105  0.2014 -0.1706  0.1857
  993BOLB   C4A23816  32.361  18.578  17.243 -0.1829 -0.1750  0.1410
  993BOLB   C1B23817  31.341  19.417  17.691  0.2062  0.0058 -0.0975
  993BOLB   C2B23818  31.518  19.597  17.346 -0.1314 -0.0862  0.0323
  993BOLB   C3B23819  31.849  19.852  17.135  0.3437  0.0016  0.0392
  993BOLB   C4B23820  32.286  20.036  17.202 -0.3041 -0.0116 -0.2746
  993BOLB   NC223821  30.143  18.111  18.152  0.3175 -0.4505 -0.0249
  993BOLB   PO223822  30.584  18.104  17.951  0.3397  0.2302 -0.0359
  993BOLB   GL323823  30.876  18.398  17.858  0.2827 -0.2491  0.3695
  993BOLB   GL423824  30.888  18.391  17.539  0.1244 -0.2218 -0.0908
  993BOLB   C1C23825  31.357  18.262  17.833  0.3665 -0.0475 -0.1120
  993BOLB   C2C23826  31.697  18.050  17.696 -0.1321 -0.1642 -0.0994
  993BOLB   C3C23827  32.190  17.996  17.731  0.0877 -0.1859  0.0479
  993BOLB   C4C23828  32.326  18.178  17.401 -0.0228 -0.3084 -0.0013
  993BOLB   C1D23829  31.390  18.430  17.350  0.1882  0.1242  0.0340
  993BOLB   C2D23830  31.621  18.551  17.005 -0.2755  0.1982  0.4112
  993BOLB   C3D23831  31.903  18.409  16.844 -0.2085  0.2371 -0.0407
  993BOLB   C4D23832  32.140  18.552  16.485  0.1644 -0.0070  0.3174
  994BOLB   NC123833  11.478  31.757  14.154  0.1759  0.0154  0.1347
  994BOLB   PO123834  11.231  32.084  14.070  0.0026 -0.0835 -0.3724
  994BOLB   GL123835  10.943  31.672  13.953  0.3500  0.0343  0.1082
  994BOLB   GL223836  10.708  31.638  13.728  0.0098 -0.3280  0.0494
  994BOLB   C1A23837  10.827  31.236  13.959 -0.0108  0.3266 -0.1448
  994BOLB   C2A23838  10.583  31.072  13.703  0.1303 -0.0667 -0.1606
  994BOLB   C3A23839  10.238  30.920  13.400 -0.2265 -0.1460  0.1459
  994BOLB   C4A23840  10.163  30.705  12.983 -0.1835 -0.1208  0.2429
  994BOLB   C1B23841  10.861  31.383  13.397 -0.4270  0.1416  0.0313
  994BOLB   C2B23842  10.867  31.054  13.247  0.0403 -0.1828 -0.0133
  994BOLB   C3B23843  10.695  30.645  13.259 -0.1785  0.2556 -0.0203
  994BOLB   C4B23844  10.321  30.293  13.212  0.0198 -0.0826 -0.0059
  994BOLB   NC223845   9.933  32.819  12.303 -0.0609 -0.0450  0.0211
  994BOLB   PO223846   9.601  32.743  12.475 -0.1271  0.0485  0.0472
  994BOLB   GL323847   9.524  32.308  12.429 -0.1865 -0.1403 -0.4042
  994BOLB   GL423848   9.532  32.200  12.066  0.2119 -0.0520  0.0171
  994BOLB   C1C23849   9.516  31.902  12.419  0.1712 -0.0345  0.0868
  994BOLB   C2C23850   9.607  31.417  12.140 -0.0790  0.0812 -0.3956
  994BOLB   C3C23851   9.675  31.018  12.328  0.1053 -0.3152 -0.0821
  994BOLB   C4C23852   9.917  30.651  12.588  0.2217 -0.1474 -0.4493
  994BOLB   C1D23853   9.543  31.887  11.927  0.0513  0.0186 -0.0667
  994BOLB   C2D23854   9.786  31.496  11.750  0.3204 -0.2099  0.2635
  994BOLB   C3D23855   9.584  31.214  11.400 -0.0977 -0.0562  0.1425
  994BOLB   C4D23856   9.321  31.080  11.081 -0.0444 -0.3490 -0.1339
  995BOLB   NC123857   7.854  12.643   1.469 -0.0477  0.0169  0.4061
  995BOLB   PO123858   7.558  12.448   1.636  0.2659 -0.0028  0.3507
  995BOLB   GL123859   7.595  12.671   1.926 -0.0857 -0.0818 -0.1987
  995BOLB   GL223860   7.882  12.693   2.030 -0.3749  0.1445 -0.1574
  995BOLB   C1A23861   7.570  13.071   2.067 -0.0088 -0.2349 -0.1992
  995BOLB   C2A23862   7.429  13.414   1.920  0.1689  0.2683  0.0557
  995BOLB   C3A23863   7.185  13.704   2.150 -0.2746 -0.4324  0.0229
  995BOLB   C4A23864   6.904  13.999   1.990 -0.2068 -0.0019 -0.1902
  995BOLB   C1B23865   8.019  13.026   2.270  0.1196 -0.2331  0.3790
  995BOLB   C2B23866   8.154  13.349   2.563 -0.0032  0.2404  0.3325
  995BOLB   C3B23867   8.549  13.620   2.641  0.0254 -0.1384 -0.0097
  995BOLB   C4B23868   8.818  13.832   2.448 -0.0775 -0.0605  0.1411
  995BOLB   NC223869   5.771  13.625  -0.150  0.1787 -0.1593  0.4680
  995BOLB   PO223870   5.446  13.524   0.160  0.1142 -0.2468  0.0993
  995BOLB   GL323871   5.368  13.792   0.544 -0.3740  0.2907 -0.1873
  995BOLB   GL423872   5.012  13.683   0.670 -0.1594 -0.0167 -0.1062
  995BOLB   C1C23873   5.635  13.736   0.878 -0.0964 -0.2153  0.1170
  995BOLB   C2C23874   5.972  13.868   1.015  0.2295  0.1376  0.1043
  995BOLB   C3C23875   6.364  13.852   1.232 -0.2213 -0.1675 -0.1598
  995BOLB   C4C23876   6.694  13.922   1.572 -0.2963 -0.1311 -0.1090
  995BOLB   C1D23877   5.175  13.925   0.916 -0.0976 -0.0723 -0.1105
  995BOLB   C2D23878   5.298  14.399   0.842 -0.0195 -0.1935  0.0283
  995BOLB   C3D23879   5.366  14.764   0.529 -0.0691  0.0530 -0.1117
  995BOLB   C4D23880   5.770  14.744   0.364  0.1323 -0.1094  0.1753
  996BOLB   NC123881  16.236  28.643  14.096  0.0208 -0.1860  0.2312
  996BOLB   PO123882  15.803  28.468  14.165 -0.2612 -0.1929  0.0152
  996BOLB   GL123883  15.724  28.222  14.190  0.0318  0.2882 -0.1176
  996BOLB   GL223884  15.446  28.311  14.462  0.0863  0.5096 -0.1608
  996BOLB   C1A23885  15.413  27.884  13.939 -0.1419  0.0221  0.0088
  996BOLB   C2A23886  14.961  27.782  13.771  0.0767  0.0120 -0.4355
  996BOLB   C3A23887  14.667  27.572  13.514  0.0088  0.1405  0.1726
  996BOLB   C4A23888  14.365  27.517  13.242 -0.2614 -0.0066  0.1645
  996BOLB   C1B23889  15.439  27.902  14.456 -0.0610  0.2357 -0.0116
  996BOLB   C2B23890  15.283  27.487  14.598 -0.0268  0.2084 -0.2787
  996BOLB   C3B23891  15.092  27.074  14.579 -0.2002 -0.0566 -0.0336
  996BOLB   C4B23892  15.163  26.801  14.288 -0.0682 -0.1649  0.2412
  996BOLB   NC223893  12.381  27.019  12.223  0.6848 -0.1693 -0.3259
  996BOLB   PO223894  12.528  26.608  12.376 -0.0467  0.1112  0.1886
  996BOLB   GL323895  12.814  27.015  12.467 -0.1610  0.2688 -0.3778
  996BOLB   GL423896  12.779  27.399  12.514 -0.0598 -0.0313 -0.2145
  996BOLB   C1C23897  13.265  27.175  12.223 -0.1322 -0.0133  0.0005
  996BOLB   C2C23898  13.699  27.216  12.263  0.1370  0.0284  0.1199
  996BOLB   C3C23899  13.946  27.238  12.535 -0.1998 -0.1437 -0.1514
  996BOLB   C4C23900  14.177  27.195  12.935 -0.3196  0.1430 -0.1127
  996BOLB   C1D23901  13.126  27.702  12.380  0.0952 -0.0275  0.0854
  996BOLB   C2D23902  13.146  28.031  12.086 -0.0758  0.1055 -0.4426
  996BOLB   C3D23903  13.244  28.273  11.759  0.0045 -0.1090  0.0745
  996BOLB   C4D23904  13.166  28.607  11.412  0.1545 -0.0679 -0.0256
  997BOLB   NC123905  32.912  16.773  20.156 -0.2234  0.3107 -0.0747
  997BOLB   PO123906  33.069  16.288  20.015  0.1563 -0.1010 -0.2440
  997BOLB   GL123907  33.032  16.550  19.670  0.0431  0.1158 -0.0414
  997BOLB   GL223908  32.893  16.457  19.333  0.0135 -0.2329  0.3113
  997BOLB   C1A23909  33.111  17.021  19.472 -0.0341  0.0401  0.1280
  997BOLB   C2A23910  33.057  17.485  19.302 -0.2398 -0.2423  0.1211
  997BOLB   C3A23911  32.976  17.741  18.965  0.1363  0.1165 -0.0188
  997BOLB   C4A23912  32.870  17.647  18.477  0.2221  0.0080  0.1148
  997BOLB   C1B23913  32.951  16.309  18.921 -0.3692 -0.2136  0.0479
  997BOLB   C2B23914  32.852  16.432  18.462 -0.2864 -0.2461  0.1378
  997BOLB   C3B23915  32.927  16.692  18.161  0.1567 -0.1566  0.0712
  997BOLB   C4B23916  32.531  16.914  18.023  0.2979 -0.2556  0.1926
  997BOLB   NC223917  30.929  17.529  18.930 -0.1557 -0.2208  0.1759
  997BOLB   PO223918  31.022  17.994  18.835 -0.0739 -0.0501  0.3522
  997BOLB   GL323919  31.289  18.068  18.583  0.2811 -0.0243 -0.2065
  997BOLB   GL423920  31.438  18.425  18.392  0.1213  0.0052 -0.1248
  997BOLB   C1C23921  31.481  17.971  18.257 -0.1010  0.1964 -0.1016
  997BOLB   C2C23922  31.886  17.713  18.114  0.1213 -0.3948 -0.2801
  997BOLB   C3C23923  32.272  17.433  18.083 -0.2568 -0.2364  0.3289
  997BOLB   C4C23924  32.721  17.509  18.040 -0.1436  0.0466 -0.1201
  997BOLB   C1D23925  31.714  18.574  17.999  0.0640 -0.2636 -0.1624
  997BOLB   C2D23926  31.927  18.511  17.550 -0.2917  0.1934  0.0612
  997BOLB   C3D23927  31.864  18.091  17.250 -0.1991 -0.1938 -0.2971
  997BOLB   C4D23928  32.164  18.009  16.923 -0.1147  0.0354 -0.0662
  998BOLB   NC123929  36.944  16.177  22.117 -0.1105  0.1237 -0.0453
  998BOLB   PO123930  36.999  16.402  21.782  0.0951 -0.1751  0.2409
  998BOLB   GL123931  36.976  16.353  21.458  0.0695  0.0062 -0.3921
  998BOLB   GL223932  36.700  16.205  21.156 -0.1486 -0.0135 -0.2475
  998BOLB   C1A23933  36.853  16.684  21.124 -0.1200  0.2149 -0.0048
  998BOLB   C2A23934  36.858  16.790  20.676 -0.2740 -0.4243 -0.1679
  998BOLB   C3A23935  37.058  16.661  20.211  0.2017  0.0487 -0.2751
  998BOLB   C4A23936  37.312  16.256  19.956  0.0548 -0.3986  0.0451
  998BOLB   C1B23937  36.588  15.688  21.160  0.1130  0.2370 -0.0532
  998BOLB   C2B23938  36.674  15.267  21.091  0.1915 -0.1700 -0.0699
  998BOLB   C3B23939  36.594  14.896  20.942 -0.0815 -0.0455  0.1864
  998BOLB   C4B23940  36.688  14.445  21.036 -0.2140  0.0554 -0.0802
  998BOLB   NC223941  39.298  16.217  21.530  0.1588 -0.2970  0.1276
  998BOLB   PO223942  38.868  16.256  21.293 -0.0246 -0.0445  0.3231
  998BOLB   GL323943  38.792  16.278  20.835 -0.1078  0.2882 -0.2528
  998BOLB   GL423944  38.822  16.077  20.547 -0.4849 -0.1182  0.1631
  998BOLB   C1C23945  38.483  16.516  20.557  0.0793  0.1229  0.0905
  998BOLB   C2C23946  38.291  16.601  20.078  0.2142 -0.1146 -0.3044
  998BOLB   C3C23947  37.958  16.394  19.819  0.0489 -0.1706 -0.0115
  998BOLB   C4C23948  37.650  16.187  19.769 -0.2146  0.2744  0.0492
  998BOLB   C1D23949  39.056  15.942  20.310  0.0101  0.1449 -0.2609
  998BOLB   C2D23950  39.219  15.561  20.148 -0.0363  0.5072  0.1661
  998BOLB   C3D23951  39.255  15.323  19.894 -0.1771 -0.2265  0.0377
  998BOLB   C4D23952  39.364  14.944  19.633 -0.0450  0.1773  0.0550
  999BOLB   NC123953   0.273  20.710  12.786  0.1301 -0.0697  0.0888
  999BOLB   PO123954   0.255  20.477  13.163 -0.1324 -0.1347  0.1587
  999BOLB   GL123955   0.048  20.221  13.500  0.1150 -0.1110  0.0088
  999BOLB   GL223956   0.033  20.284  13.836 -0.1647 -0.1113  0.0070
  999BOLB   C1A23957  -0.281  19.960  13.456 -0.0137 -0.0291 -0.2113
  999BOLB   C2A23958  -0.682  19.874  13.185 -0.3727  0.2783  0.2115
  999BOLB   C3A23959  -1.075  19.694  13.343  0.0840 -0.0795 -0.2308
  999BOLB   C4A23960  -1.465  19.959  13.371  0.1001 -0.2016 -0.1733
  999BOLB   C1B23961  -0.404  20.338  13.767  0.0893 -0.0862  0.1360
  999BOLB   C2B23962  -0.644  20.628  14.083 -0.1466 -0.2410  0.1163
  999BOLB   C3B23963  -0.984  20.730  14.193  0.2106 -0.2925 -0.1170
  999BOLB   C4B23964  -1.395  20.856  14.323 -0.0368  0.1839 -0.1838
  999BOLB   NC223965   0.669  20.853  13.745 -0.6383 -0.1005  0.1792
  999BOLB   PO223966   0.310  20.831  13.589  0.3422  0.0472 -0.1837
  999BOLB   GL323967  -0.197  20.799  13.531 -0.0583 -0.1491 -0.0914
  999BOLB   GL423968  -0.127  20.725  13.317  0.0232 -0.0100 -0.1930
  999BOLB   C1C23969  -0.624  20.758  13.605  0.1013  0.2322  0.2874
  999BOLB   C2C23970  -1.002  20.796  13.656  0.0720 -0.0878  0.0289
  999BOLB   C3C23971  -1.370  20.592  13.858  0.0031 -0.1595  0.2645
  999BOLB   C4C23972  -1.655  20.292  13.684 -0.3502 -0.0291  0.1561
  999BOLB   C1D23973  -0.492  20.358  13.276  0.1073 -0.0401 -0.2101
  999BOLB   C2D23974  -0.874  20.337  13.414 -0.2281  0.1579  0.1052
  999BOLB   C3D23975  -1.320  20.532  13.345 -0.1689 -0.1391  0.0817
  999BOLB   C4D23976  -1.697  20.452  13.183  0.0135 -0.1059  0.0433
 1000BOLB   NC123977  14.464  30.846  12.014  0.0336 -0.1803  0.0218
 1000BOLB   PO123978  14.382  30.437  12.194  0.0556 -0.1078 -0.1426
 1000BOLB   GL123979  14.057  30.080  12.108 -0.0946  0.0254  0.0443
 1000BOLB   GL223980  13.772  30.193  11.996 -0.2336  0.0379  0.1935
 1000BOLB   C1A23981  13.892  29.769  12.305 -0.2293  0.1219  0.1405
 1000BOLB   C2A23982  13.761  29.448  12.499  0.1656 -0.1834  0.2331
 1000BOLB   C3A23983  13.591  29.094  12.411  0.1854 -0.1596 -0.1257
 1000BOLB   C4A23984  13.709  28.795  12.100  0.1633  0.4284  0.0087
 1000BOLB   C1B23985  13.513  30.056  11.835 -0.0449 -0.0153 -0.0359
 1000BOLB   C2B23986  13.098  29.893  11.870 -0.0704 -0.0592 -0.2052
 1000BOLB   C3B23987  12.820  29.605  12.113 -0.1180 -0.0367  0.1532
 1000BOLB   C4B23988  12.614  29.443  12.553  0.0719  0.0129 -0.3182
 1000BOLB   NC223989  15.586  29.952  10.449  0.0425 -0.1658  0.3725
 1000BOLB   PO223990  15.363  29.822  10.847  0.1426 -0.2601 -0.1141
 1000BOLB   GL323991  15.179  29.406  10.883  0.1144 -0.1832  0.1567
 1000BOLB   GL423992  15.331  29.278  10.633 -0.0961  0.0829  0.2297
 1000BOLB   C1C23993  14.898  29.242  11.156  0.1518 -0.1059  0.0578
 1000BOLB   C2C23994  14.557  29.148  11.459  0.1345 -0.1250  0.0139
 1000BOLB   C3C23995  14.245  28.907  11.482 -0.1611 -0.0529 -0.0429
 1000BOLB   C4C23996  14.077  28.769  11.783 -0.1549  0.0267 -0.0563
 1000BOLB   C1D23997  14.994  29.001  10.643 -0.2678 -0.3108  0.1448
 1000BOLB   C2D23998  14.595  28.928  10.599  0.0299  0.0914  0.0901
 1000BOLB   C3D23999  14.246  28.679  10.866 -0.0895  0.1143  0.1472
 1000BOLB   C4D24000  14.026  28.462  11.078  0.0425  0.0209  0.3848
 1001BOLB   NC124001  13.226  22.282   4.895 -0.0383 -0.3605  0.1131
 1001BOLB   PO124002  13.217  21.879   4.784  0.2546  0.2039 -0.2939
 1001BOLB   GL124003  13.534  22.106   4.463  0.0042 -0.0084 -0.3764
 1001BOLB   GL224004  13.827  21.914   4.409  0.0346 -0.0725 -0.1382
 1001BOLB   C1A24005  13.864  22.426   4.364  0.1927 -0.2760 -0.0217
 1001BOLB   C2A24006  14.217  22.527   4.069  0.0453 -0.2921 -0.0438
 1001BOLB   C3A24007  14.631  22.585   3.854  0.1839  0.0822  0.1038
 1001BOLB   C4A24008  15.031  22.885   3.961  0.1163 -0.2552 -0.0715
 1001BOLB   C1B24009  14.170  21.983   4.108  0.0666  0.3211 -0.1521
 1001BOLB   C2B24010  14.605  22.113   4.099  0.1860  0.0016  0.1493
 1001BOLB   C3B24011  14.864  22.149   3.765 -0.2620 -0.1631  0.1207
 1001BOLB   C4B24012  15.240  21.989   3.552 -0.0015  0.0208 -0.0838
 1001BOLB   NC224013  16.647  24.180   3.408 -0.3161 -0.1080 -0.2567
 1001BOLB   PO224014  16.706  23.791   3.039 -0.0952 -0.0896 -0.2911
 1001BOLB   GL324015  16.294  23.783   3.072  0.1707 -0.1846 -0.0390
 1001BOLB   GL424016  16.193  23.990   3.247  0.0415  0.0037 -0.3015
 1001BOLB   C1C24017  15.815  23.747   3.167 -0.2020  0.0312 -0.0367
 1001BOLB   C2C24018  15.681  23.619   3.491 -0.3823  0.2313  0.0976
 1001BOLB   C3C24019  15.555  23.339   3.719 -0.1925  0.0110  0.1871
 1001BOLB   C4C24020  15.377  23.103   4.008  0.0049 -0.1675  0.1614
 1001BOLB   C1D24021  16.185  23.503   3.465 -0.0295  0.1358 -0.1519
 1001BOLB   C2D24022  16.105  23.091   3.511  0.2010  0.1972  0.0678
 1001BOLB   C3D24023  16.042  22.655   3.408 -0.1196  0.1274  0.5079
 1001BOLB   C4D24024  16.253  22.442   3.156 -0.1338 -0.0588 -0.2223
 1002BOLB   NC124025  31.996  21.425   1.466  0.0404 -0.1539 -0.4802
 1002BOLB   PO124026  32.157  21.238   1.869 -0.0952  0.0025  0.1352
 1002BOLB   GL124027  32.374  21.178   2.243 -0.2002  0.3384  0.0051
 1002BOLB   GL224028  32.443  20.924   2.191  0.2395  0.0564 -0.3368
 1002BOLB   C1A24029  32.435  21.352   2.712  0.0376  0.1249  0.4396
 1002BOLB   C2A24030  32.734  21.350   3.164  0.0877 -0.0450  0.0832
 1002BOLB   C3A24031  33.121  21.356   3.109 -0.2816 -0.2073  0.1762
 1002BOLB   C4A24032  33.484  21.385   2.842 -0.1528 -0.3180  0.1567
 1002BOLB   C1B24033  32.444  20.735   2.550 -0.3066 -0.2637  0.1203
 1002BOLB   C2B24034  32.289  20.867   2.985  0.0226  0.1012  0.2415
 1002BOLB   C3B24035  32.315  21.078   3.397 -0.1338  0.1370  0.1858
 1002BOLB   C4B24036  32.508  20.964   3.638 -0.0678 -0.2919  0.5373
 1002BOLB   NC224037  33.105  20.105   1.135 -0.4032  0.0263  0.1681
 1002BOLB   PO224038  32.953  20.553   0.897  0.2281  0.2125 -0.0866
 1002BOLB   GL324039  33.131  20.619   1.315  0.2227  0.1403 -0.1296
 1002BOLB   GL424040  32.868  20.724   1.539  0.0734  0.2297 -0.0360
 1002BOLB   C1C24041  33.624  20.598   1.545  0.0321  0.1256  0.0537
 1002BOLB   C2C24042  33.931  20.728   1.891 -0.0184  0.0860 -0.3344
 1002BOLB   C3C24043  33.739  20.988   2.274 -0.0660 -0.1228 -0.1138
 1002BOLB   C4C24044  33.760  21.175   2.640  0.0061  0.0903  0.2362
 1002BOLB   C1D24045  32.988  20.977   1.853  0.0238  0.1235  0.0906
 1002BOLB   C2D24046  32.998  20.806   2.286  0.2907  0.0275 -0.0503
 1002BOLB   C3D24047  33.132  20.423   2.411 -0.0043  0.0024  0.0191
 1002BOLB   C4D24048  33.051  20.037   2.660 -0.0828  0.2024 -0.3560
 1003BOLB   NC124049  14.556  25.864   2.530 -0.2084 -0.1293 -0.1468
 1003BOLB   PO124050  14.343  26.257   2.299  0.0366 -0.0515 -0.2446
 1003BOLB   GL124051  14.215  26.159   2.739  0.0073 -0.3854 -0.1201
 1003BOLB   GL224052  14.244  26.423   2.959  0.4054 -0.0117  0.2689
 1003BOLB   C1A24053  14.045  25.736   3.039  0.0143  0.1342 -0.3206
 1003BOLB   C2A24054  13.701  25.684   3.058 -0.1140  0.1062  0.1421
 1003BOLB   C3A24055  13.375  25.668   3.104 -0.0789  0.3156 -0.1974
 1003BOLB   C4A24056  13.094  25.427   3.250 -0.1694 -0.1306 -0.0198
 1003BOLB   C1B24057  13.956  26.173   3.264  0.0171 -0.0890  0.1467
 1003BOLB   C2B24058  13.705  25.918   3.701  0.2222 -0.2237 -0.1263
 1003BOLB   C3B24059  13.250  25.663   3.648 -0.1951 -0.2316  0.0572
 1003BOLB   C4B24060  12.873  25.569   3.690  0.0202  0.0907 -0.1898
 1003BOLB   NC224061  13.116  25.757   1.777 -0.1493 -0.0258 -0.1508
 1003BOLB   PO224062  13.422  25.546   1.440  0.1803 -0.1612 -0.1443
 1003BOLB   GL324063  13.210  25.201   1.524  0.0150  0.0030 -0.2151
 1003BOLB   GL424064  13.302  24.905   1.491 -0.1296 -0.1147 -0.0586
 1003BOLB   C1C24065  12.875  25.118   1.819  0.0294  0.2081 -0.1035
 1003BOLB   C2C24066  12.747  25.348   2.141  0.1291 -0.4230  0.2047
 1003BOLB   C3C24067  12.599  25.389   2.507 -0.2466 -0.3101 -0.0065
 1003BOLB   C4C24068  12.640  25.452   3.027  0.2933 -0.2578 -0.1775
 1003BOLB   C1D24069  13.429  24.507   1.732 -0.0699 -0.0249  0.4249
 1003BOLB   C2D24070  13.310  24.254   1.971  0.0595  0.2377 -0.0777
 1003BOLB   C3D24071  13.532  23.883   2.189  0.0094  0.0728  0.1077
 1003BOLB   C4D24072  13.770  23.615   2.522 -0.0953  0.5260  0.2331
 1004BOLB   NC124073   3.409   8.975   3.774 -0.3469 -0.1848  0.1359
 1004BOLB   PO124074   3.736   9.112   3.939  0.2173 -0.1120 -0.0028
 1004BOLB   GL124075   3.555   9.533   3.955 -0.0755  0.1488 -0.2606
 1004BOLB   GL224076   3.472   9.657   3.646  0.3340 -0.2228 -0.0597
 1004BOLB   C1A24077   3.510   9.865   4.252 -0.1947  0.1793  0.2477
 1004BOLB   C2A24078   3.188   9.893   4.457 -0.0501  0.4379  0.0285
 1004BOLB   C3A24079   2.857   9.663   4.476  0.0456 -0.3047 -0.0967
 1004BOLB   C4A24080   2.500   9.735   4.287 -0.1564  0.2022  0.0084
 1004BOLB   C1B24081   3.184   9.957   3.872  0.2149 -0.0976  0.1049
 1004BOLB   C2B24082   2.887  10.202   3.731 -0.0489 -0.2515  0.2652
 1004BOLB   C3B24083   2.514  10.275   3.836 -0.6314  0.0137  0.0920
 1004BOLB   C4B24084   2.380  10.660   3.912 -0.1760 -0.0680 -0.2369
 1004BOLB   NC224085   2.092   8.847   2.441  0.0044  0.1084  0.0891
 1004BOLB   PO224086   2.501   8.835   2.540 -0.2459  0.0524  0.0016
 1004BOLB   GL324087   2.334   9.069   2.828 -0.0205 -0.1339 -0.2212
 1004BOLB   GL424088   2.551   9.079   3.123 -0.1310 -0.1244 -0.0225
 1004BOLB   C1C24089   2.051   9.155   3.241 -0.1157 -0.1733 -0.3115
 1004BOLB   C2C24090   1.996   8.966   3.710 -0.0391 -0.0339 -0.0176
 1004BOLB   C3C24091   2.276   9.067   4.035  0.2966  0.0199  0.4614
 1004BOLB   C4C24092   2.169   9.450   4.227 -0.0890 -0.0073  0.0647
 1004BOLB   C1D24093   2.527   9.509   2.984 -0.1233  0.1702  0.0239
 1004BOLB   C2D24094   2.132   9.744   2.776  0.2959  0.0493  0.1684
 1004BOLB   C3D24095   1.711   9.845   2.648  0.2424  0.0107  0.1375
 1004BOLB   C4D24096   1.300   9.872   2.419 -0.0471 -0.2383  0.2210
 1005BOLB   NC124097  29.264  19.762  11.336 -0.1157 -0.1975  0.0124
 1005BOLB   PO124098  29.495  20.112  11.141  0.1758 -0.0780 -0.0498
 1005BOLB   GL124099  29.772  20.169  11.088 -0.0789  0.2390 -0.2156
 1005BOLB   GL224100  29.940  20.413  11.329 -0.0643 -0.1156  0.1182
 1005BOLB   C1A24101  30.071  19.928  11.146 -0.1482 -0.1639  0.0326
 1005BOLB   C2A24102  30.408  20.019  11.164  0.0267 -0.2989  0.1771
 1005BOLB   C3A24103  30.634  20.128  10.862 -0.3011 -0.1625 -0.2098
 1005BOLB   C4A24104  30.829  20.513  10.688 -0.1139  0.5231 -0.0727
 1005BOLB   C1B24105  30.099  20.946  11.350  0.1945 -0.1160  0.2153
 1005BOLB   C2B24106  30.535  21.133  11.489  0.0089  0.0137  0.1668
 1005BOLB   C3B24107  30.966  21.225  11.519  0.1587 -0.1261  0.0346
 1005BOLB   C4B24108  31.193  20.997  11.851  0.0666  0.2337 -0.2663
 1005BOLB   NC224109  28.747  21.459   9.604  0.0838 -0.1295  0.0975
 1005BOLB   PO224110  29.146  21.227   9.658 -0.0330 -0.1856  0.1594
 1005BOLB   GL324111  29.596  21.209   9.740  0.4259 -0.0274 -0.0893
 1005BOLB   GL424112  29.526  21.522   9.926  0.1705  0.0274 -0.1423
 1005BOLB   C1C24113  30.035  20.997   9.714  0.0032 -0.1275  0.0319
 1005BOLB   C2C24114  30.437  21.072   9.751  0.0729 -0.0226 -0.0206
 1005BOLB   C3C24115  30.729  21.108  10.082 -0.0494  0.0644 -0.0583
 1005BOLB   C4C24116  30.935  20.764  10.305  0.0233  0.1793 -0.0399
 1005BOLB   C1D24117  29.922  21.349  10.148  0.1947 -0.2668 -0.1416
 1005BOLB   C2D24118  30.266  21.334  10.387  0.1232 -0.0873  0.0254
 1005BOLB   C3D24119  30.609  21.425  10.574  0.1350  0.1700 -0.1534
 1005BOLB   C4D24120  30.776  21.864  10.605 -0.0134 -0.2015  0.0164
 1006BOLB   NC124121  31.503  20.040   1.873 -0.2377 -0.1811  0.0418
 1006BOLB   PO124122  31.487  20.429   2.141  0.2698 -0.0538 -0.0665
 1006BOLB   GL124123  31.810  20.228   2.364 -0.2605  0.1999 -0.2472
 1006BOLB   GL224124  31.900  20.510   2.431 -0.2224 -0.0443  0.1773
 1006BOLB   C1A24125  32.100  20.042   2.656  0.4244  0.1916 -0.1379
 1006BOLB   C2A24126  32.363  20.110   2.940  0.2727 -0.0133 -0.5906
 1006BOLB   C3A24127  32.619  20.202   3.324 -0.1204  0.1415  0.0133
 1006BOLB   C4A24128  32.990  20.523   3.370  0.3138  0.2182 -0.2003
 1006BOLB   C1B24129  31.864  20.481   2.824  0.1774  0.2093 -0.0439
 1006BOLB   C2B24130  31.969  20.519   3.147 -0.1213  0.1531  0.1018
 1006BOLB   C3B24131  32.283  20.558   3.470  0.0138  0.0002  0.3248
 1006BOLB   C4B24132  32.462  20.436   3.862 -0.3478  0.0421 -0.1319
 1006BOLB   NC224133  31.878  21.329   2.268 -0.0920  0.0963 -0.1897
 1006BOLB   PO224134  31.599  21.450   2.667 -0.0303  0.0586  0.0355
 1006BOLB   GL324135  31.652  21.679   3.131 -0.3436  0.0429 -0.0148
 1006BOLB   GL424136  31.525  21.419   3.296 -0.1682 -0.3273 -0.1200
 1006BOLB   C1C24137  31.959  21.862   3.478 -0.1848 -0.0966 -0.0447
 1006BOLB   C2C24138  32.436  21.661   3.564 -0.0647  0.0793  0.1653
 1006BOLB   C3C24139  32.819  21.383   3.665 -0.0189  0.0165  0.0610
 1006BOLB   C4C24140  32.987  21.060   3.481  0.0134 -0.0995 -0.1035
 1006BOLB   C1D24141  31.728  21.274   3.643 -0.2317 -0.2358  0.3624
 1006BOLB   C2D24142  32.149  21.245   3.852  0.1258 -0.0736  0.2422
 1006BOLB   C3D24143  32.484  21.123   4.099 -0.0743  0.0867 -0.2921
 1006BOLB   C4D24144  32.650  21.131   4.524 -0.1306  0.0378 -0.1614
 1007BOLB   NC124145  28.895  18.172   9.574  0.0101 -0.0975 -0.0032
 1007BOLB   PO124146  29.129  17.892   9.926  0.1652 -0.1976  0.2215
 1007BOLB   GL124147  29.631  18.009   9.868 -0.3093 -0.1208 -0.0261
 1007BOLB   GL224148  29.760  17.781   9.684 -0.0364 -0.0068  0.3095
 1007BOLB   C1A24149  29.905  18.264   9.509 -0.1067 -0.0240 -0.0050
 1007BOLB   C2A24150  30.255  18.308   9.722  0.2123  0.2746 -0.0176
 1007BOLB   C3A24151  30.576  18.201   9.797 -0.2126  0.2048 -0.1283
 1007BOLB   C4A24152  30.701  18.086  10.172 -0.0587 -0.1819 -0.5105
 1007BOLB   C1B24153  30.167  17.807   9.561 -0.1458 -0.2428  0.1646
 1007BOLB   C2B24154  30.364  17.920   9.209  0.3268  0.1078 -0.0881
 1007BOLB   C3B24155  30.524  18.115   8.788  0.1049 -0.1800 -0.0992
 1007BOLB   C4B24156  30.783  18.214   8.467  0.2742  0.0487  0.2435
 1007BOLB   NC224157  29.206  18.969  11.881 -0.0237 -0.1731  0.1528
 1007BOLB   PO224158  29.311  18.967  11.513  0.3163  0.1407  0.1081
 1007BOLB   GL324159  29.614  18.729  11.475  0.0982 -0.0050 -0.0341
 1007BOLB   GL424160  29.730  18.817  11.758  0.2678 -0.2278  0.2601
 1007BOLB   C1C24161  29.941  18.574  11.390 -0.0208 -0.5627  0.2000
 1007BOLB   C2C24162  30.334  18.353  11.144  0.0564 -0.0051  0.0071
 1007BOLB   C3C24163  30.534  17.961  11.015 -0.1762 -0.3169 -0.0406
 1007BOLB   C4C24164  30.704  18.059  10.615 -0.1121  0.2585  0.1206
 1007BOLB   C1D24165  29.870  18.802  12.122 -0.1588 -0.3128 -0.0634
 1007BOLB   C2D24166  30.217  18.603  12.236  0.2561  0.1845  0.3616
 1007BOLB   C3D24167  30.629  18.252  12.282 -0.0393  0.2112 -0.2396
 1007BOLB   C4D24168  30.998  18.107  12.454 -0.1016  0.0163 -0.1770
 1008BOLB   NC124169   5.614  24.907  17.555  0.2732  0.3300  0.0823
 1008BOLB   PO124170   5.611  25.339  17.558 -0.1898 -0.0303  0.0745
 1008BOLB   GL124171   5.797  25.558  17.902  0.2394  0.1287 -0.3390
 1008BOLB   GL224172   5.536  25.541  18.178  0.3493  0.1926 -0.1914
 1008BOLB   C1A24173   5.921  25.832  18.305 -0.1658 -0.3992 -0.1350
 1008BOLB   C2A24174   5.859  26.227  18.400  0.1690  0.4454  0.0374
 1008BOLB   C3A24175   5.847  26.739  18.336 -0.1177 -0.1944  0.0079
 1008BOLB   C4A24176   5.980  27.115  18.250 -0.0131  0.0878 -0.0946
 1008BOLB   C1B24177   5.612  25.561  18.566  0.0617  0.4021  0.4682
 1008BOLB   C2B24178   5.372  25.373  18.948  0.0287 -0.2054 -0.1250
 1008BOLB   C3B24179   5.068  25.355  19.317  0.2116  0.0547  0.0112
 1008BOLB   C4B24180   4.851  25.202  19.610  0.2098 -0.1413 -0.1554
 1008BOLB   NC224181   6.267  28.569  20.340 -0.1391 -0.0019  0.3406
 1008BOLB   PO224182   6.636  28.387  20.378 -0.4512 -0.3035 -0.1883
 1008BOLB   GL324183   6.480  28.291  19.999  0.1802 -0.1560 -0.0475
 1008BOLB   GL424184   6.790  28.103  20.056  0.0145 -0.4972 -0.1891
 1008BOLB   C1C24185   6.463  28.151  19.650  0.0627  0.1083  0.1705
 1008BOLB   C2C24186   6.453  27.843  19.296  0.2539  0.1846  0.3302
 1008BOLB   C3C24187   6.406  27.743  18.794  0.0137  0.3375 -0.2199
 1008BOLB   C4C24188   6.173  27.402  18.568  0.1211 -0.2192 -0.0374
 1008BOLB   C1D24189   7.022  27.746  20.138  0.3291 -0.2008  0.1126
 1008BOLB   C2D24190   6.962  27.363  20.388  0.2280 -0.1276  0.0092
 1008BOLB   C3D24191   6.604  27.150  20.571 -0.1575 -0.0040  0.1106
 1008BOLB   C4D24192   6.172  26.987  20.639  0.1846 -0.0999 -0.0558
 1009BOLB   NC124193  11.007  11.003   4.974 -0.1374  0.2660  0.1612
 1009BOLB   PO124194  10.668  11.055   4.717 -0.3911 -0.1630  0.1960
 1009BOLB   GL124195  10.726  11.425   4.762  0.2007  0.1699 -0.0391
 1009BOLB   GL224196  11.019  11.515   5.051  0.0842 -0.1013 -0.0168
 1009BOLB   C1A24197  10.749  11.835   4.603  0.0524  0.3055 -0.1605
 1009BOLB   C2A24198  10.589  12.329   4.714  0.1069  0.2360 -0.0633
 1009BOLB   C3A24199  10.372  12.763   4.743  0.4266  0.2006 -0.0567
 1009BOLB   C4A24200  10.361  13.057   5.144  0.1215 -0.0603 -0.0572
 1009BOLB   C1B24201  10.757  11.596   5.397  0.4173  0.2534 -0.0874
 1009BOLB   C2B24202  10.556  11.636   5.747 -0.0938  0.2749 -0.0101
 1009BOLB   C3B24203  10.289  12.007   5.933 -0.1734 -0.1391 -0.3406
 1009BOLB   C4B24204  10.023  12.324   5.612  0.1676 -0.3716  0.0244
 1009BOLB   NC224205   9.394  14.157   7.388 -0.0666 -0.0335  0.3061
 1009BOLB   PO224206   9.256  13.808   7.196  0.1656 -0.0803  0.3051
 1009BOLB   GL324207   9.424  13.446   6.980  0.0572 -0.0496  0.1155
 1009BOLB   GL424208   9.582  13.253   7.231  0.1599  0.2470  0.0584
 1009BOLB   C1C24209   9.624  13.293   6.709 -0.1137  0.2493  0.0944
 1009BOLB   C2C24210   9.801  13.099   6.292 -0.1992 -0.1031 -0.2298
 1009BOLB   C3C24211   9.958  13.155   5.906  0.0503 -0.0488 -0.1604
 1009BOLB   C4C24212  10.220  12.929   5.610  0.0392 -0.1895 -0.2157
 1009BOLB   C1D24213   9.802  12.949   7.183  0.2950 -0.0525 -0.2808
 1009BOLB   C2D24214  10.092  12.773   7.277  0.0605 -0.1437  0.1328
 1009BOLB   C3D24215  10.520  12.732   7.450 -0.0406 -0.1361 -0.3315
 1009BOLB   C4D24216  10.746  12.930   7.692 -0.1712 -0.0757 -0.1233
 1010BOLB   NC124217  19.125  20.611  11.366  0.0162  0.2223 -0.2328
 1010BOLB   PO124218  19.054  20.926  11.025  0.0169  0.1339  0.0099
 1010BOLB   GL124219  18.757  21.005  11.123 -0.0511  0.2810  0.0157
 1010BOLB   GL224220  18.752  21.239  11.355 -0.1571 -0.2102 -0.1030
 1010BOLB   C1A24221  18.329  21.072  11.110 -0.0905  0.1390  0.1888
 1010BOLB   C2A24222  17.960  21.322  10.928  0.2642  0.2530 -0.0202
 1010BOLB   C3A24223  17.826  21.593  10.592 -0.0575  0.0698 -0.4207
 1010BOLB   C4A24224  17.436  21.867  10.592  0.1967  0.0364  0.0908
 1010BOLB   C1B24225  18.333  21.159  11.619 -0.0556 -0.3524 -0.4305
 1010BOLB   C2B24226  17.929  21.124  11.551 -0.0891 -0.0915 -0.4575
 1010BOLB   C3B24227  17.656  21.304  11.351  0.0914 -0.0200  0.2874
 1010BOLB   C4B24228  17.399  21.384  10.980 -0.2104 -0.0030 -0.2519
 1010BOLB   NC224229  15.351  21.610   9.413 -0.3720 -0.0120 -0.1969
 1010BOLB   PO224230  15.079  21.662   9.794 -0.2167 -0.0746 -0.1071
 1010BOLB   GL324231  15.602  21.697   9.882  0.0082  0.1134 -0.0338
 1010BOLB   GL424232  15.661  21.893  10.208  0.1698  0.2297 -0.0254
 1010BOLB   C1C24233  16.097  21.779   9.996 -0.0093  0.0018 -0.1979
 1010BOLB   C2C24234  16.247  21.934  10.326  0.1339 -0.0684  0.2259
 1010BOLB   C3C24235  16.650  22.020  10.451 -0.3862  0.0312 -0.1385
 1010BOLB   C4C24236  17.014  22.097  10.636  0.3107  0.2322 -0.0310
 1010BOLB   C1D24237  15.818  22.276  10.339 -0.0795  0.0706  0.0432
 1010BOLB   C2D24238  16.248  22.355  10.665 -0.1365 -0.1387  0.0120
 1010BOLB   C3D24239  16.687  22.479  10.628  0.0333 -0.1468  0.0901
 1010BOLB   C4D24240  17.091  22.611  10.443 -0.0774 -0.2438 -0.2094
 1011BOLB   NC124241  32.874  11.559  12.930  0.3438 -0.2883  0.0262
 1011BOLB   PO124242  32.848  11.149  13.057  0.3751  0.0017  0.0263
 1011BOLB   GL124243  33.258  11.369  13.120 -0.0914  0.1484 -0.3274
 1011BOLB   GL224244  33.263  11.491  13.444 -0.0292  0.1971 -0.0847
 1011BOLB   C1A24245  33.652  11.677  13.146  0.1745  0.1550 -0.1641
 1011BOLB   C2A24246  33.996  11.916  13.043  0.1210  0.0532  0.4509
 1011BOLB   C3A24247  34.365  11.980  13.166 -0.0145  0.0720 -0.1750
 1011BOLB   C4A24248  34.685  11.727  13.300  0.0483 -0.6280  0.1176
 1011BOLB   C1B24249  33.429  11.951  13.516  0.2538  0.2479  0.1441
 1011BOLB   C2B24250  33.596  12.188  13.222 -0.2046 -0.2758  0.0500
 1011BOLB   C3B24251  33.940  12.489  13.175  0.0531 -0.1395 -0.1136
 1011BOLB   C4B24252  34.203  12.433  12.948  0.0022  0.0539  0.1443
 1011BOLB   NC224253  34.208  10.684  15.260  0.0595 -0.1860 -0.2441
 1011BOLB   PO224254  34.182  10.294  15.091 -0.1669  0.2523 -0.0448
 1011BOLB   GL324255  34.557  10.471  14.891 -0.0799 -0.0493 -0.1589
 1011BOLB   GL424256  34.809  10.551  14.902  0.1158  0.0566  0.2312
 1011BOLB   C1C24257  34.578  10.864  14.535  0.1286 -0.1618 -0.0105
 1011BOLB   C2C24258  34.795  11.029  14.220  0.0581  0.0433 -0.0263
 1011BOLB   C3C24259  34.586  11.223  13.963 -0.0105 -0.1546  0.2483
 1011BOLB   C4C24260  34.712  11.457  13.672 -0.1625 -0.0726 -0.2582
 1011BOLB   C1D24261  34.871  10.908  14.893  0.1191 -0.2515 -0.1681
 1011BOLB   C2D24262  34.983  11.337  14.712  0.1098  0.1267  0.3136
 1011BOLB   C3D24263  35.045  11.683  14.762 -0.0170  0.2876  0.0722
 1011BOLB   C4D24264  34.854  12.007  14.924 -0.0387 -0.0918 -0.2927
 1012BOLB   NC124265  14.150  11.233  11.967 -0.1442 -0.0046  0.0651
 1012BOLB   PO124266  14.117  11.784  11.880 -0.0425  0.0821  0.0423
 1012BOLB   GL124267  13.759  12.082  11.706  0.1185  0.1389 -0.3297
 1012BOLB   GL224268  13.978  12.334  11.592  0.2377 -0.0585  0.2215
 1012BOLB   C1A24269  13.401  12.360  11.559 -0.1128 -0.0836 -0.1574
 1012BOLB   C2A24270  12.949  12.381  11.643 -0.0315 -0.2209 -0.3076
 1012BOLB   C3A24271  12.503  12.513  11.651 -0.0534  0.1060  0.1192
 1012BOLB   C4A24272  12.108  12.513  11.679  0.0787  0.2069 -0.0199
 1012BOLB   C1B24273  13.765  12.748  11.692 -0.0787 -0.0752  0.4442
 1012BOLB   C2B24274  13.359  12.933  11.687 -0.1003 -0.3362  0.1323
 1012BOLB   C3B24275  13.073  12.846  11.549  0.2445  0.1370  0.1402
 1012BOLB   C4B24276  12.623  12.937  11.435  0.2970 -0.1822 -0.1804
 1012BOLB   NC224277  12.861  10.453  12.440  0.3684  0.0635  0.4884
 1012BOLB   PO224278  12.598  10.904  12.434 -0.2486  0.0793 -0.0546
 1012BOLB   GL324279  12.397  11.236  12.223 -0.0643  0.0932 -0.2668
 1012BOLB   GL424280  12.667  11.442  11.937  0.0696  0.1269 -0.1755
 1012BOLB   C1C24281  12.033  11.208  11.947  0.1907  0.0855 -0.1967
 1012BOLB   C2C24282  11.877  11.509  11.684 -0.1339  0.0608 -0.0456
 1012BOLB   C3C24283  11.922  11.702  11.492  0.2356 -0.3076  0.1014
 1012BOLB   C4C24284  11.886  12.215  11.419  0.3780  0.0345  0.0902
 1012BOLB   C1D24285  12.348  11.697  11.768  0.0270  0.0560 -0.1057
 1012BOLB   C2D24286  12.190  12.049  11.772  0.0844  0.0170  0.0911
 1012BOLB   C3D24287  11.796  12.276  11.967  0.0577  0.1419 -0.0710
 1012BOLB   C4D24288  11.696  12.786  11.963 -0.0223 -0.0321 -0.0625
 1013BOLB   NC124289  31.624  12.844  13.516  0.2963  0.3569 -0.4400
 1013BOLB   PO124290  31.626  12.779  13.979 -0.0296  0.0358 -0.1883
 1013BOLB   GL124291  31.666  13.268  13.961  0.3237  0.3568  0.4207
 1013BOLB   GL224292  31.730  13.288  13.720 -0.2413 -0.1396 -0.4813
 1013BOLB   C1A24293  32.035  13.619  13.909 -0.2665  0.0376  0.0948
 1013BOLB   C2A24294  32.211  13.978  13.678 -0.0580 -0.1968  0.0436
 1013BOLB   C3A24295  32.357  14.289  13.895 -0.1003 -0.3286  0.1993
 1013BOLB   C4A24296  32.503  14.649  13.692 -0.1476  0.0879 -0.0971
 1013BOLB   C1B24297  32.169  13.404  13.517 -0.0838  0.1101 -0.0323
 1013BOLB   C2B24298  32.435  13.635  13.412 -0.0240  0.1873  0.0803
 1013BOLB   C3B24299  32.690  13.883  13.054  0.1647  0.0930  0.2913
 1013BOLB   C4B24300  32.860  14.320  12.945 -0.2291 -0.1985  0.0487
 1013BOLB   NC224301  30.162  14.074  13.389  0.1443  0.1014  0.0905
 1013BOLB   PO224302  30.487  14.378  13.279  0.1023 -0.0065  0.1856
 1013BOLB   GL324303  30.809  14.574  13.289  0.1451 -0.1316  0.2718
 1013BOLB   GL424304  30.988  14.637  13.523  0.3095 -0.1278 -0.2871
 1013BOLB   C1C24305  31.227  14.765  13.109 -0.1720 -0.2022 -0.0174
 1013BOLB   C2C24306  31.649  15.118  13.001 -0.1354  0.0163  0.2569
 1013BOLB   C3C24307  32.157  15.146  13.188  0.0866 -0.0621  0.2804
 1013BOLB   C4C24308  32.473  14.914  13.341 -0.0512 -0.1538  0.1583
 1013BOLB   C1D24309  30.985  15.127  13.439  0.0974  0.4305  0.2536
 1013BOLB   C2D24310  30.994  15.568  13.348  0.0956 -0.1025 -0.1056
 1013BOLB   C3D24311  31.302  15.881  13.466  0.1221 -0.2888  0.1232
 1013BOLB   C4D24312  31.588  16.264  13.304 -0.1555 -0.3583 -0.1920
 1014BOLB   NC124313   5.391  28.381  10.975 -0.0131 -0.0190 -0.1579
 1014BOLB   PO124314   5.628  28.807  10.917  0.0084 -0.1972 -0.3198
 1014BOLB   GL124315   5.572  29.274  10.875  0.1035  0.0072  0.3847
 1014BOLB   GL224316   5.744  29.430  10.639 -0.1569  0.0539  0.2805
 1014BOLB   C1A24317   5.416  29.658  11.108 -0.2059 -0.0494  0.1467
 1014BOLB   C2A24318   5.565  30.037  11.270 -0.2052  0.0707 -0.1865
 1014BOLB   C3A24319   5.708  30.538  11.180  0.1375 -0.0975 -0.1495
 1014BOLB   C4A24320   5.781  30.984  11.187  0.3421 -0.2036  0.0562
 1014BOLB   C1B24321   5.811  29.903  10.834 -0.0458 -0.1598 -0.1240
 1014BOLB   C2B24322   5.655  30.243  10.673 -0.1412 -0.1149 -0.3576
 1014BOLB   C3B24323   5.616  30.694  10.716  0.2569 -0.2317  0.2866
 1014BOLB   C4B24324   5.370  30.918  10.700  0.0967 -0.1239 -0.0374
 1014BOLB   NC224325   5.580  33.210  10.617  0.0818  0.1040  0.0132
 1014BOLB   PO224326   5.413  32.934  10.317  0.3030  0.0495 -0.0913
 1014BOLB   GL324327   5.355  32.605  10.310  0.0666  0.4336 -0.3704
 1014BOLB   GL424328   5.129  32.519  10.557 -0.3593  0.3011 -0.3222
 1014BOLB   C1C24329   5.596  32.347  10.542 -0.2976  0.0201 -0.1071
 1014BOLB   C2C24330   5.602  32.162  10.914  0.1062 -0.2308  0.1060
 1014BOLB   C3C24331   5.657  31.798  11.097 -0.1368 -0.2401 -0.2278
 1014BOLB   C4C24332   5.761  31.455  11.153 -0.2006 -0.1042 -0.1475
 1014BOLB   C1D24333   5.091  32.217  10.672 -0.2387 -0.0751  0.0187
 1014BOLB   C2D24334   5.273  31.889  10.679 -0.0771  0.0213  0.2482
 1014BOLB   C3D24335   5.233  31.597  10.946  0.1558  0.0993 -0.0880
 1014BOLB   C4D24336   5.184  31.258  11.227 -0.1162 -0.0192  0.0855
 1015BOLB   NC124337  31.418  24.994  13.363  0.2215 -0.0217 -0.4238
 1015BOLB   PO124338  31.542  25.246  12.943 -0.2322  0.0284  0.0659
 1015BOLB   GL124339  31.774  24.928  12.988  0.2359  0.0825 -0.3034
 1015BOLB   GL224340  32.074  24.961  12.986 -0.1410  0.0716  0.1249
 1015BOLB   C1A24341  31.964  24.407  12.946 -0.1010 -0.0415 -0.2239
 1015BOLB   C2A24342  32.289  24.272  13.200 -0.0278  0.1105 -0.0510
 1015BOLB   C3A24343  32.346  23.979  13.551 -0.0297 -0.1412  0.1612
 1015BOLB   C4A24344  32.199  23.658  13.597 -0.0494  0.5219 -0.0120
 1015BOLB   C1B24345  32.192  24.965  12.608 -0.2678 -0.0848  0.1613
 1015BOLB   C2B24346  32.527  24.741  12.349  0.0861  0.2555  0.1828
 1015BOLB   C3B24347  32.833  24.601  12.429  0.2176  0.2657  0.0611
 1015BOLB   C4B24348  33.162  24.772  12.597 -0.3875 -0.2023 -0.0017
 1015BOLB   NC224349  30.261  23.422  15.486  0.1511 -0.2490 -0.0172
 1015BOLB   PO224350  30.570  23.715  15.306 -0.0554 -0.2385 -0.5709
 1015BOLB   GL324351  30.891  23.531  15.090  0.0876 -0.0652 -0.0560
 1015BOLB   GL424352  30.887  23.222  14.974 -0.2605  0.2758  0.0878
 1015BOLB   C1C24353  31.352  23.406  14.959  0.3755 -0.1170 -0.0921
 1015BOLB   C2C24354  31.760  23.378  14.837  0.2992 -0.2572  0.0197
 1015BOLB   C3C24355  31.981  23.507  14.573  0.0444  0.0629  0.2603
 1015BOLB   C4C24356  32.014  23.420  14.097 -0.3192 -0.1470  0.1038
 1015BOLB   C1D24357  31.363  22.926  14.832 -0.1171 -0.2772 -0.2538
 1015BOLB   C2D24358  31.458  22.617  14.849 -0.0815  0.0016 -0.0167
 1015BOLB   C3D24359  31.346  22.355  15.170 -0.3932 -0.1557  0.0642
 1015BOLB   C4D24360  31.046  21.997  15.164  0.0499 -0.1209  0.1148
 1016BOLB   NC124361  11.314  16.455  26.341  0.0854  0.1843  0.1056
 1016BOLB   PO124362  11.125  16.832  26.020 -0.2476  0.0905 -0.0636
 1016BOLB   GL124363  11.138  17.172  26.352 -0.0282  0.1852 -0.0972
 1016BOLB   GL224364  11.156  17.095  26.624  0.1702  0.2221 -0.1351
 1016BOLB   C1A24365  11.052  17.577  26.612  0.1352 -0.1685  0.2809
 1016BOLB   C2A24366  11.022  17.732  27.002 -0.1024 -0.1138  0.1777
 1016BOLB   C3A24367  10.820  17.605  27.371  0.1646 -0.1702  0.2395
 1016BOLB   C4A24368  10.379  17.363  27.431  0.0232 -0.0608  0.0120
 1016BOLB   C1B24369  10.887  17.221  26.990  0.1928 -0.1682 -0.0672
 1016BOLB   C2B24370  10.546  17.497  26.949 -0.3959  0.0885  0.0864
 1016BOLB   C3B24371  10.183  17.583  26.708 -0.0454  0.1910  0.2793
 1016BOLB   C4B24372  10.052  17.428  26.240 -0.1463  0.2142  0.2107
 1016BOLB   NC224373  10.312  15.308  25.520 -0.2424  0.0682  0.4917
 1016BOLB   PO224374  10.049  15.398  25.871  0.1079 -0.0626  0.2744
 1016BOLB   GL324375   9.890  15.595  26.268  0.2125  0.1041  0.1801
 1016BOLB   GL424376  10.070  15.447  26.537  0.3864 -0.1725  0.1252
 1016BOLB   C1C24377   9.863  16.051  26.450 -0.0411  0.0281  0.2479
 1016BOLB   C2C24378   9.816  16.351  26.789 -0.1966  0.2016 -0.1916
 1016BOLB   C3C24379  10.072  16.765  26.991 -0.1097  0.0306  0.2646
 1016BOLB   C4C24380  10.295  17.107  27.134 -0.0623  0.4511  0.0472
 1016BOLB   C1D24381  10.008  15.417  26.934  0.2294  0.3676  0.0943
 1016BOLB   C2D24382   9.957  15.580  27.364 -0.1178  0.2028 -0.1708
 1016BOLB   C3D24383   9.565  15.705  27.648  0.4757 -0.3315  0.0703
 1016BOLB   C4D24384   9.300  15.676  27.938  0.1889  0.1634  0.2997
 1017BOLB   NC124385  10.113  31.768   5.604  0.4412  0.1628  0.1504
 1017BOLB   PO124386  10.245  31.380   5.317  0.0458 -0.3326 -0.1194
 1017BOLB   GL124387  10.102  31.132   5.609 -0.1395  0.0369 -0.3400
 1017BOLB   GL224388   9.899  31.316   5.757 -0.1734 -0.2230 -0.1723
 1017BOLB   C1A24389   9.932  30.825   5.731 -0.0513  0.0466 -0.0205
 1017BOLB   C2A24390   9.789  30.640   6.066 -0.1559 -0.0941 -0.3082
 1017BOLB   C3A24391   9.533  30.367   6.402  0.3572 -0.0617  0.0578
 1017BOLB   C4A24392   9.080  30.393   6.478  0.1653 -0.0999 -0.0955
 1017BOLB   C1B24393   9.918  31.170   6.211 -0.1582 -0.2984  0.0505
 1017BOLB   C2B24394   9.927  30.793   6.595  0.1160  0.1153  0.0456
 1017BOLB   C3B24395   9.616  30.433   6.887  0.1341 -0.2163  0.2554
 1017BOLB   C4B24396   9.495  30.169   7.059  0.0786 -0.2472 -0.0832
 1017BOLB   NC224397   8.630  31.823   4.908 -0.2780  0.2923 -0.4063
 1017BOLB   PO224398   8.418  31.894   5.200 -0.1862  0.2178  0.0508
 1017BOLB   GL324399   8.610  32.029   5.659  0.1538  0.3145 -0.2688
 1017BOLB   GL424400   8.850  31.852   5.882  0.0642  0.1312  0.3195
 1017BOLB   C1C24401   8.328  31.746   6.001 -0.0919 -0.2892  0.1998
 1017BOLB   C2C24402   8.279  31.508   6.380  0.0089 -0.0905  0.0058
 1017BOLB   C3C24403   8.409  30.941   6.432 -0.2793 -0.0652  0.1023
 1017BOLB   C4C24404   8.632  30.524   6.424  0.0611  0.2010  0.0938
 1017BOLB   C1D24405   8.766  31.382   5.996 -0.0564  0.0945  0.0370
 1017BOLB   C2D24406   8.715  30.932   5.989  0.1452  0.1088  0.3563
 1017BOLB   C3D24407   8.321  30.662   5.943  0.2335  0.0389 -0.2631
 1017BOLB   C4D24408   8.114  30.323   5.779  0.0493  0.0654 -0.2062
 1018BOLB   NC124409   2.791  12.908  20.090  0.0026  0.3959  0.1890
 1018BOLB   PO124410   2.965  13.097  19.805 -0.1261  0.0356  0.0956
 1018BOLB   GL124411   2.853  13.476  19.557 -0.2645 -0.2685 -0.0718
 1018BOLB   GL224412   2.569  13.659  19.586 -0.4647  0.4872 -0.0550
 1018BOLB   C1A24413   2.640  13.376  19.155 -0.3253  0.2856 -0.2449
 1018BOLB   C2A24414   2.746  13.050  18.859  0.3057  0.3503 -0.0714
 1018BOLB   C3A24415   2.577  12.832  18.553 -0.3001 -0.1995  0.0955
 1018BOLB   C4A24416   2.360  12.885  18.238 -0.0866 -0.3418  0.0374
 1018BOLB   C1B24417   2.367  13.784  19.133 -0.0259 -0.0558 -0.1778
 1018BOLB   C2B24418   2.128  13.757  18.793 -0.2595  0.0334 -0.0014
 1018BOLB   C3B24419   1.920  13.413  18.530 -0.4718  0.1349 -0.0437
 1018BOLB   C4B24420   2.065  13.335  18.231 -0.3246 -0.4498 -0.0141
 1018BOLB   NC224421   3.750  11.498  18.723 -0.1274 -0.0544  0.0256
 1018BOLB   PO224422   3.531  11.939  18.893 -0.1206  0.2099 -0.3043
 1018BOLB   GL324423   3.404  12.205  18.520 -0.1168 -0.0836 -0.0500
 1018BOLB   GL424424   3.481  12.505  18.304  0.2969  0.2782  0.0699
 1018BOLB   C1C24425   2.987  11.969  18.418 -0.0795  0.0824 -0.0725
 1018BOLB   C2C24426   2.722  11.860  18.095  0.4162 -0.0361  0.3791
 1018BOLB   C3C24427   2.366  12.158  17.908 -0.1738 -0.2103 -0.2791
 1018BOLB   C4C24428   2.210  12.582  17.863 -0.0252 -0.0511  0.2381
 1018BOLB   C1D24429   3.464  12.834  18.054  0.3917  0.1485  0.0541
 1018BOLB   C2D24430   3.349  13.052  17.658 -0.3206  0.2546 -0.0007
 1018BOLB   C3D24431   3.280  13.331  17.441  0.1665 -0.1967 -0.1538
 1018BOLB   C4D24432   3.066  13.350  17.122  0.0587 -0.1452 -0.0193
 1019BOLB   NC124433  33.282  26.759   6.342  0.0014  0.2746  0.1157
 1019BOLB   PO124434  33.524  26.379   6.225  0.1047 -0.0863 -0.1133
 1019BOLB   GL124435  33.453  25.968   6.319  0.1445  0.1996  0.3960
 1019BOLB   GL224436  33.086  25.829   6.491  0.1612 -0.2091  0.0451
 1019BOLB   C1A24437  33.741  25.638   6.207 -0.5578  0.0146  0.2609
 1019BOLB   C2A24438  33.982  25.352   5.863  0.4266  0.1030  0.1227
 1019BOLB   C3A24439  34.205  25.105   5.585  0.3137 -0.2171 -0.0731
 1019BOLB   C4A24440  34.165  24.751   5.348 -0.0992 -0.1975  0.4908
 1019BOLB   C1B24441  32.939  25.706   6.779 -0.1835 -0.1348 -0.1786
 1019BOLB   C2B24442  32.885  25.661   7.162  0.1835  0.1883  0.2723
 1019BOLB   C3B24443  32.564  25.568   7.466 -0.0004  0.5144  0.0895
 1019BOLB   C4B24444  32.235  25.137   7.316 -0.2268 -0.1086  0.0129
 1019BOLB   NC224445  31.961  25.123   5.335  0.2436 -0.1310  0.0513
 1019BOLB   PO224446  31.789  24.805   5.003 -0.1230 -0.0778  0.1302
 1019BOLB   GL324447  32.176  24.659   4.796 -0.1418  0.2815  0.1498
 1019BOLB   GL424448  32.074  24.432   4.499  0.1508 -0.0622  0.0232
 1019BOLB   C1C24449  32.552  24.550   4.773 -0.4445 -0.0119  0.1182
 1019BOLB   C2C24450  32.962  24.783   4.789 -0.2322 -0.1154 -0.0911
 1019BOLB   C3C24451  33.365  24.881   4.963  0.1101  0.6561  0.1858
 1019BOLB   C4C24452  33.737  24.760   5.152 -0.0266  0.0421  0.1515
 1019BOLB   C1D24453  32.390  24.321   4.272  0.4054 -0.0153  0.2601
 1019BOLB   C2D24454  32.663  23.965   4.279 -0.1071 -0.2782  0.0090
 1019BOLB   C3D24455  32.880  23.565   4.277 -0.4439 -0.1191  0.2303
 1019BOLB   C4D24456  32.941  23.130   4.458  0.4225 -0.0721 -0.0981
 1020BOLB   NC124457   2.252   6.558   7.854 -0.0038  0.0706 -0.1110
 1020BOLB   PO124458   1.753   6.469   8.034  0.1350  0.0108  0.1119
 1020BOLB   GL124459   1.808   6.868   8.157 -0.1218 -0.0807  0.1687
 1020BOLB   GL224460   1.969   6.770   8.416  0.0953  0.1031  0.2251
 1020BOLB   C1A24461   1.679   7.164   8.290 -0.0105 -0.2504 -0.1663
 1020BOLB   C2A24462   1.577   7.665   8.183  0.0709  0.2720 -0.2079
 1020BOLB   C3A24463   1.241   7.979   8.270 -0.1159 -0.2539  0.1684
 1020BOLB   C4A24464   0.891   7.967   8.379  0.0889  0.0381  0.0538
 1020BOLB   C1B24465   2.167   6.975   8.829  0.1742  0.0356 -0.2262
 1020BOLB   C2B24466   2.006   7.285   9.137  0.3400 -0.2701  0.1558
 1020BOLB   C3B24467   1.663   7.394   9.196 -0.0849 -0.2686  0.0401
 1020BOLB   C4B24468   1.478   7.722   9.133 -0.1516  0.2163  0.3767
 1020BOLB   NC224469  -1.015   7.068   8.584  0.1879  0.0394  0.2545
 1020BOLB   PO224470  -1.038   7.132   8.960  0.2454 -0.2697 -0.2768
 1020BOLB   GL324471  -0.718   7.338   8.986  0.0977  0.1961  0.0216
 1020BOLB   GL424472  -0.836   7.534   8.714  0.4682 -0.2515  0.0136
 1020BOLB   C1C24473  -0.427   7.582   8.925 -0.0300  0.0315 -0.1307
 1020BOLB   C2C24474   0.046   7.655   8.844 -0.4196 -0.2045 -0.4445
 1020BOLB   C3C24475   0.174   7.760   8.365  0.3256  0.0244 -0.1230
 1020BOLB   C4C24476   0.552   7.886   8.217 -0.0722  0.1071 -0.1470
 1020BOLB   C1D24477  -0.551   7.918   8.587 -0.2470 -0.0608 -0.0726
 1020BOLB   C2D24478  -0.153   8.110   8.655  0.1195  0.4073 -0.2626
 1020BOLB   C3D24479   0.197   8.253   8.489 -0.4215  0.0789  0.0296
 1020BOLB   C4D24480   0.295   8.751   8.574 -0.0006  0.1510 -0.0480
 1021BOLB   NC124481   5.401  25.046  22.451 -0.1377  0.2019 -0.2376
 1021BOLB   PO124482   5.488  25.265  22.225  0.0490 -0.3306 -0.1366
 1021BOLB   GL124483   5.371  25.059  21.895 -0.0682 -0.0974  0.1063
 1021BOLB   GL224484   5.055  25.116  21.604 -0.2092  0.1088  0.1586
 1021BOLB   C1A24485   5.539  24.963  21.484 -0.1750 -0.0432 -0.3211
 1021BOLB   C2A24486   5.758  24.934  21.101  0.1381  0.1093  0.2237
 1021BOLB   C3A24487   5.825  24.981  20.645 -0.3004 -0.4026 -0.2346
 1021BOLB   C4A24488   6.166  24.957  20.338  0.0179 -0.3102  0.1502
 1021BOLB   C1B24489   5.199  25.130  21.177 -0.2425  0.2646 -0.1535
 1021BOLB   C2B24490   5.282  25.078  20.748 -0.0158 -0.2321  0.4378
 1021BOLB   C3B24491   5.378  25.146  20.270 -0.3206 -0.2439 -0.0429
 1021BOLB   C4B24492   5.176  25.371  19.967 -0.1739 -0.0072  0.2124
 1021BOLB   NC224493   6.835  24.692  18.212 -0.0928 -0.0418 -0.0058
 1021BOLB   PO224494   6.591  24.367  18.064 -0.0111 -0.0072 -0.4160
 1021BOLB   GL324495   6.629  24.399  18.569  0.3908  0.1138  0.1268
 1021BOLB   GL424496   6.316  24.420  18.759  0.2529 -0.0922  0.0060
 1021BOLB   C1C24497   6.824  24.570  18.967  0.2278  0.2858  0.1459
 1021BOLB   C2C24498   6.917  24.710  19.298  0.0472  0.0426  0.3264
 1021BOLB   C3C24499   6.570  24.830  19.572 -0.0849  0.1761 -0.0209
 1021BOLB   C4C24500   6.440  24.819  20.000  0.1013  0.2713 -0.2430
 1021BOLB   C1D24501   6.354  24.653  19.169  0.0898  0.1350 -0.1644
 1021BOLB   C2D24502   6.187  24.958  19.180  0.2328 -0.1571 -0.3742
 1021BOLB   C3D24503   6.286  25.336  19.277  0.3579  0.0092 -0.1569
 1021BOLB   C4D24504   6.400  25.691  19.135 -0.1140 -0.0321 -0.0549
 1022BOLB   NC124505   2.086  19.229   3.449  0.3649  0.0350  0.0395
 1022BOLB   PO124506   1.800  19.481   3.627  0.1368 -0.0536 -0.0698
 1022BOLB   GL124507   1.414  19.517   3.422  0.1326  0.0234 -0.1442
 1022BOLB   GL224508   1.399  19.760   3.435  0.1563 -0.1500  0.2971
 1022BOLB   C1A24509   1.093  19.556   3.121  0.1459  0.0333  0.2400
 1022BOLB   C2A24510   0.907  19.838   2.824  0.1380 -0.0836  0.0127
 1022BOLB   C3A24511   0.650  20.021   2.522  0.1223  0.1486  0.4433
 1022BOLB   C4A24512   0.423  19.977   2.165  0.1593 -0.1400  0.1409
 1022BOLB   C1B24513   0.994  19.830   3.499  0.0673  0.1547 -0.1893
 1022BOLB   C2B24514   0.661  19.620   3.364  0.2742 -0.1407 -0.0401
 1022BOLB   C3B24515   0.537  19.448   2.975  0.2021  0.1551 -0.0907
 1022BOLB   C4B24516   0.813  19.165   3.027 -0.1611  0.0890 -0.0358
 1022BOLB   NC224517  -1.068  21.303   0.034  0.1148 -0.1535 -0.0029
 1022BOLB   PO224518  -0.957  21.046   0.409 -0.4322 -0.2697  0.0100
 1022BOLB   GL324519  -0.834  20.769   0.772  0.0385 -0.0354  0.1739
 1022BOLB   GL424520  -1.090  20.427   0.811 -0.1737  0.0466 -0.2800
 1022BOLB   C1C24521  -0.608  20.404   0.858 -0.0685  0.2531 -0.0338
 1022BOLB   C2C24522  -0.304  20.408   1.191 -0.0105  0.0363  0.0690
 1022BOLB   C3C24523  -0.146  20.294   1.483 -0.1047  0.0045 -0.2106
 1022BOLB   C4C24524   0.101  20.124   1.812  0.0859 -0.2649  0.0864
 1022BOLB   C1D24525  -1.205  20.070   1.168 -0.0316 -0.0261 -0.1784
 1022BOLB   C2D24526  -1.124  19.763   1.546 -0.0978 -0.2534  0.0472
 1022BOLB   C3D24527  -1.019  19.412   1.702 -0.1818 -0.2064  0.2918
 1022BOLB   C4D24528  -0.721  19.084   1.625  0.0094  0.0376 -0.1093
 1023BOLB   NC124529  37.718  15.860  21.626 -0.0101  0.0567 -0.1008
 1023BOLB   PO124530  37.367  16.013  21.815  0.2057 -0.1845 -0.0413
 1023BOLB   GL124531  37.441  16.191  21.376 -0.0509  0.2433 -0.0517
 1023BOLB   GL224532  37.439  16.574  21.249  0.2838 -0.1256  0.1468
 1023BOLB   C1A24533  37.173  16.173  20.993  0.0229 -0.2395  0.4621
 1023BOLB   C2A24534  36.984  15.873  20.799 -0.0008 -0.2001  0.1948
 1023BOLB   C3A24535  36.811  15.467  20.577  0.2109 -0.0237  0.1341
 1023BOLB   C4A24536  36.768  15.029  20.345 -0.2445  0.0878  0.0977
 1023BOLB   C1B24537  37.718  16.401  20.952 -0.2081 -0.5073  0.2016
 1023BOLB   C2B24538  38.119  16.189  20.756 -0.0570 -0.1999  0.2813
 1023BOLB   C3B24539  38.457  15.818  20.789 -0.1681  0.0049 -0.1564
 1023BOLB   C4B24540  38.423  15.409  21.002 -0.0802 -0.2919  0.2309
 1023BOLB   NC224541  36.297  12.325  20.809  0.2031 -0.1215  0.5944
 1023BOLB   PO224542  36.530  12.740  20.746 -0.1126  0.1098  0.1739
 1023BOLB   GL324543  36.777  13.089  20.603  0.1771  0.1641  0.0554
 1023BOLB   GL424544  36.906  13.312  20.828  0.2768 -0.0339  0.0082
 1023BOLB   C1C24545  36.674  13.364  20.386 -0.0869  0.2412  0.0042
 1023BOLB   C2C24546  36.716  13.826  20.338 -0.1728 -0.0576 -0.1087
 1023BOLB   C3C24547  36.674  14.217  20.223  0.2207  0.0105 -0.1678
 1023BOLB   C4C24548  36.749  14.551  20.127  0.0367  0.1153  0.2071
 1023BOLB   C1D24549  36.763  13.757  20.813 -0.0514  0.2691 -0.0372
 1023BOLB   C2D24550  36.458  14.078  20.724  0.2317  0.0544 -0.0483
 1023BOLB   C3D24551  36.441  14.549  20.562 -0.2390  0.2566 -0.1698
 1023BOLB   C4D24552  36.260  14.805  20.315  0.2846 -0.1735 -0.1497
 1024BOLB   NC124553  35.687  12.966  21.247  0.0512 -0.0019 -0.1536
 1024BOLB   PO124554  35.919  13.201  20.964  0.0469  0.3348  0.1893
 1024BOLB   GL124555  36.056  13.303  20.645  0.1816  0.0269  0.0092
 1024BOLB   GL224556  36.149  13.161  20.359  0.1602 -0.1579  0.1540
 1024BOLB   C1A24557  36.270  13.692  20.476 -0.0850  0.0365  0.1082
 1024BOLB   C2A24558  36.192  13.972  20.139 -0.0694  0.1561 -0.0538
 1024BOLB   C3A24559  36.126  14.011  19.745  0.0805 -0.0530  0.1613
 1024BOLB   C4A24560  35.998  14.203  19.362  0.2683 -0.0295 -0.1067
 1024BOLB   C1B24561  36.511  12.986  20.151  0.2005  0.5280 -0.1044
 1024BOLB   C2B24562  36.511  12.932  19.761 -0.4960 -0.3197 -0.2746
 1024BOLB   C3B24563  36.382  13.129  19.311  0.2050  0.2870  0.2527
 1024BOLB   C4B24564  36.200  13.281  19.019 -0.6380 -0.0256 -0.0952
 1024BOLB   NC224565  34.785  13.211  20.221  0.1661  0.1860  0.2443
 1024BOLB   PO224566  35.079  13.554  20.225  0.1216  0.2268 -0.1650
 1024BOLB   GL324567  35.469  13.726  20.243 -0.0677 -0.1401 -0.2661
 1024BOLB   GL424568  35.623  13.392  20.382  0.0645  0.4924  0.0954
 1024BOLB   C1C24569  35.634  14.076  20.032  0.0710 -0.0491 -0.6163
 1024BOLB   C2C24570  35.652  14.447  19.651 -0.2908 -0.0278  0.3847
 1024BOLB   C3C24571  35.587  14.615  19.253 -0.1711  0.0573  0.1436
 1024BOLB   C4C24572  35.848  14.468  19.011 -0.0054  0.2290  0.1868
 1024BOLB   C1D24573  35.958  13.534  20.111  0.1000 -0.0546  0.0243
 1024BOLB   C2D24574  36.415  13.488  19.976 -0.0180  0.0208 -0.4991
 1024BOLB   C3D24575  36.716  13.485  19.516  0.1311 -0.1622 -0.1454
 1024BOLB   C4D24576  36.670  13.472  19.047  0.1723  0.3661  0.1563
 1025BOLB   NC124577   0.445  13.907  26.127  0.2105  0.2068 -0.2035
 1025BOLB   PO124578   0.073  13.766  26.168  0.2853  0.1661 -0.2228
 1025BOLB   GL124579   0.046  13.867  26.527 -0.4715 -0.1868 -0.0933
 1025BOLB   GL224580  -0.339  14.045  26.544 -0.1701  0.0994 -0.0451
 1025BOLB   C1A24581   0.313  13.945  26.880 -0.2660  0.2567 -0.1437
 1025BOLB   C2A24582   0.728  14.210  26.954  0.2199 -0.1858  0.2322
 1025BOLB   C3A24583   0.930  14.570  26.779  0.0189  0.0394  0.2228
 1025BOLB   C4A24584   0.752  14.849  27.151 -0.0573 -0.1232 -0.0678
 1025BOLB   C1B24585  -0.196  13.997  27.037  0.0503  0.3960  0.2867
 1025BOLB   C2B24586   0.166  14.167  27.303 -0.0029 -0.1066 -0.1115
 1025BOLB   C3B24587   0.554  14.097  27.405 -0.1429  0.3384  0.0973
 1025BOLB   C4B24588   0.946  14.021  27.359 -0.1603  0.1378  0.5134
 1025BOLB   NC224589   0.065  14.796  25.805  0.1884  0.3270 -0.3914
 1025BOLB   PO224590   0.031  15.136  25.563 -0.0149 -0.2115 -0.1037
 1025BOLB   GL324591   0.036  15.377  26.023 -0.2996  0.0536 -0.0208
 1025BOLB   GL424592  -0.252  15.605  26.076  0.3257 -0.0531 -0.1800
 1025BOLB   C1C24593  -0.196  15.260  26.407 -0.0652 -0.2482  0.2378
 1025BOLB   C2C24594  -0.078  15.330  26.842 -0.1280 -0.1322  0.0128
 1025BOLB   C3C24595   0.174  15.210  27.170 -0.2000  0.0499 -0.2239
 1025BOLB   C4C24596   0.437  15.114  27.180  0.3565 -0.2774 -0.0964
 1025BOLB   C1D24597  -0.676  15.675  26.434  0.1130  0.0085  0.3132
 1025BOLB   C2D24598  -0.757  16.015  26.702 -0.4681 -0.0172 -0.1455
 1025BOLB   C3D24599  -0.779  16.306  26.985 -0.3090  0.0834 -0.1751
 1025BOLB   C4D24600  -0.462  16.444  27.306  0.0269 -0.0779  0.0931
 1026BOLB   NC124601  29.544  16.982   7.207 -0.1643 -0.2156 -0.2182
 1026BOLB   PO124602  30.045  16.919   7.320  0.1761  0.1410 -0.0838
 1026BOLB   GL124603  30.261  17.033   7.617 -0.0900  0.2808  0.1820
 1026BOLB   GL224604  30.563  16.911   7.466  0.0824  0.2929 -0.1591
 1026BOLB   C1A24605  30.648  17.335   7.659 -0.4646 -0.0878 -0.2934
 1026BOLB   C2A24606  30.716  17.662   7.934  0.0616  0.0495 -0.1025
 1026BOLB   C3A24607  30.561  18.176   8.018  0.0862 -0.0076  0.2807
 1026BOLB   C4A24608  30.359  18.458   8.351 -0.0971 -0.0351 -0.1638
 1026BOLB   C1B24609  30.925  17.186   7.235  0.2833 -0.1378  0.0921
 1026BOLB   C2B24610  31.221  17.479   7.036 -0.2154 -0.1074  0.1579
 1026BOLB   C3B24611  31.530  17.653   6.822  0.2645  0.0648  0.1479
 1026BOLB   C4B24612  32.014  17.718   6.820 -0.1831  0.0450  0.0922
 1026BOLB   NC224613  28.628  19.563   9.875 -0.2345 -0.3613  0.1475
 1026BOLB   PO224614  28.951  19.376   9.776 -0.0067 -0.3819  0.0844
 1026BOLB   GL324615  29.284  19.392   9.517 -0.0201  0.0218 -0.1836
 1026BOLB   GL424616  29.328  19.761   9.437 -0.3376  0.3204  0.0128
 1026BOLB   C1C24617  29.623  19.347   9.437 -0.2556 -0.0472 -0.1223
 1026BOLB   C2C24618  29.941  19.123   9.204 -0.0804 -0.2373 -0.3028
 1026BOLB   C3C24619  30.276  18.912   9.070  0.0077 -0.4889  0.0201
 1026BOLB   C4C24620  30.358  18.579   8.769  0.2979 -0.1541  0.0817
 1026BOLB   C1D24621  29.620  19.725   9.771  0.2998 -0.1011 -0.0501
 1026BOLB   C2D24622  29.880  19.657  10.086 -0.0830  0.1748  0.0962
 1026BOLB   C3D24623  30.194  19.646  10.246 -0.4079  0.1177 -0.0352
 1026BOLB   C4D24624  30.713  19.499  10.290  0.0582 -0.1947 -0.2913
 1027BOLB   NC124625   7.970  25.178   4.055 -0.2124  0.0088 -0.1168
 1027BOLB   PO124626   7.646  25.311   3.816  0.1313  0.3340 -0.0671
 1027BOLB   GL124627   7.897  25.567   3.567  0.1394 -0.2102  0.0033
 1027BOLB   GL224628   8.238  25.420   3.622  0.3341 -0.2280  0.0566
 1027BOLB   C1A24629   7.867  25.794   3.177 -0.0743  0.0920 -0.1841
 1027BOLB   C2A24630   7.780  26.118   2.973 -0.1280 -0.3435 -0.2792
 1027BOLB   C3A24631   7.871  26.238   2.525  0.3253  0.1093  0.2650
 1027BOLB   C4A24632   7.957  26.171   2.006 -0.1934 -0.1180  0.0558
 1027BOLB   C1B24633   8.446  25.651   3.163  0.1734  0.0777 -0.4345
 1027BOLB   C2B24634   8.298  25.809   2.843  0.1731  0.3561  0.0591
 1027BOLB   C3B24635   8.172  25.900   2.379  0.0119  0.1483  0.0250
 1027BOLB   C4B24636   8.357  25.870   1.990  0.3037 -0.3636 -0.2513
 1027BOLB   NC224637   6.996  26.203   0.033  0.3679 -0.1892  0.1580
 1027BOLB   PO224638   7.190  26.623   0.116 -0.0919 -0.1254 -0.0257
 1027BOLB   GL324639   6.935  26.484   0.517 -0.3107 -0.1602  0.1581
 1027BOLB   GL424640   6.908  26.762   0.780 -0.1008 -0.1536 -0.1834
 1027BOLB   C1C24641   6.909  26.242   0.901 -0.2046 -0.2006  0.2909
 1027BOLB   C2C24642   7.183  26.153   1.206  0.3573  0.1752 -0.4531
 1027BOLB   C3C24643   7.481  26.283   1.382  0.4306  0.2168  0.2938
 1027BOLB   C4C24644   7.700  26.337   1.710 -0.1828 -0.1065  0.0564
 1027BOLB   C1D24645   6.648  26.673   1.116  0.1282  0.2781 -0.1621
 1027BOLB   C2D24646   6.532  26.247   1.290 -0.0655 -0.1211  0.0535
 1027BOLB   C3D24647   6.557  25.899   1.623  0.0782  0.2061  0.0513
 1027BOLB   C4D24648   6.254  25.768   1.969 -0.1653  0.0390 -0.1070
 1028BOLB   NC124649  35.714  18.167  21.147  0.3802  0.5629  0.1208
 1028BOLB   PO124650  35.552  17.663  21.089 -0.0165  0.1925 -0.2653
 1028BOLB   GL124651  35.845  17.616  20.798 -0.0436  0.0347  0.2798
 1028BOLB   GL224652  36.109  17.901  20.799 -0.1208  0.1733 -0.3049
 1028BOLB   C1A24653  36.110  17.247  20.592 -0.3022 -0.2361  0.0748
 1028BOLB   C2A24654  36.309  16.811  20.489  0.0980  0.2077 -0.0989
 1028BOLB   C3A24655  36.407  16.466  20.725 -0.1264 -0.1511  0.0492
 1028BOLB   C4A24656  36.776  16.282  20.635  0.0199 -0.0127  0.2141
 1028BOLB   C1B24657  36.196  18.086  20.395 -0.0297  0.0890 -0.0561
 1028BOLB   C2B24658  36.226  18.053  20.077 -0.1941  0.3033 -0.0049
 1028BOLB   C3B24659  36.569  17.955  19.762 -0.0702  0.1660 -0.1668
 1028BOLB   C4B24660  36.974  17.726  19.476  0.2068 -0.1548 -0.2679
 1028BOLB   NC224661  37.164  17.298  21.722  0.4375 -0.0155  0.5155
 1028BOLB   PO224662  36.783  17.488  21.476 -0.3265  0.3404  0.2046
 1028BOLB   GL324663  36.874  17.227  21.199  0.1424  0.0386 -0.0548
 1028BOLB   GL424664  36.713  17.236  20.784 -0.4496  0.2461 -0.3394
 1028BOLB   C1C24665  37.162  17.075  20.960 -0.0973  0.1867  0.0405
 1028BOLB   C2C24666  37.457  16.913  20.774  0.2551 -0.1362 -0.3302
 1028BOLB   C3C24667  37.405  16.446  20.587 -0.2070  0.0686 -0.1502
 1028BOLB   C4C24668  37.185  16.176  20.460 -0.3281 -0.0022 -0.0455
 1028BOLB   C1D24669  36.708  17.138  20.339  0.0855 -0.2287  0.1240
 1028BOLB   C2D24670  36.826  17.093  20.017  0.1108 -0.2071  0.2411
 1028BOLB   C3D24671  37.166  16.869  19.762 -0.1311 -0.2169 -0.0924
 1028BOLB   C4D24672  37.465  17.053  19.476  0.0613  0.0720  0.0088
 1029BOLB   NC124673  14.297  27.393  18.223 -0.0125  0.3184 -0.0865
 1029BOLB   PO124674  13.815  27.527  18.205  0.3720  0.2300  0.2984
 1029BOLB   GL124675  13.955  27.305  17.806 -0.0595  0.0722 -0.1278
 1029BOLB   GL224676  13.575  27.405  17.690  0.0006 -0.1476 -0.0059
 1029BOLB   C1A24677  13.963  27.279  17.343  0.2618  0.2039  0.0473
 1029BOLB   C2A24678  13.983  27.059  17.026  0.3571 -0.0695 -0.3093
 1029BOLB   C3A24679  13.828  27.106  16.698  0.0587  0.0088  0.1993
 1029BOLB   C4A24680  13.471  27.092  16.443  0.0690  0.1301  0.0084
 1029BOLB   C1B24681  13.141  27.564  17.760  0.1428 -0.1324  0.1068
 1029BOLB   C2B24682  12.797  27.699  17.760  0.0606  0.0048  0.0048
 1029BOLB   C3B24683  12.569  27.947  18.074  0.3255 -0.4579  0.0778
 1029BOLB   C4B24684  12.187  28.065  17.900  0.0779  0.0732  0.2726
 1029BOLB   NC224685  13.199  29.324  16.333  0.3051  0.1353  0.0225
 1029BOLB   PO224686  13.393  29.313  16.736 -0.1850  0.1343  0.0573
 1029BOLB   GL324687  13.174  28.901  16.681  0.1310 -0.3279  0.1057
 1029BOLB   GL424688  12.830  29.000  16.475 -0.1805 -0.2167  0.1341
 1029BOLB   C1C24689  13.066  28.395  16.568 -0.1423  0.1529  0.0178
 1029BOLB   C2C24690  12.824  28.130  16.272 -0.0052  0.0629 -0.0502
 1029BOLB   C3C24691  12.990  27.755  16.226  0.0833 -0.2323 -0.4225
 1029BOLB   C4C24692  13.051  27.324  16.362 -0.0190  0.1522 -0.2356
 1029BOLB   C1D24693  12.634  28.646  16.361  0.3575  0.0980 -0.1196
 1029BOLB   C2D24694  12.334  28.319  16.199  0.1268 -0.0606  0.1341
 1029BOLB   C3D24695  12.113  28.310  15.813 -0.1258  0.0621 -0.3343
 1029BOLB   C4D24696  12.104  28.499  15.393 -0.1042  0.1443  0.1167
 1030BOLB   NC124697  11.222  25.125   5.039 -0.4168  0.0359  0.0283
 1030BOLB   PO124698  10.976  25.295   5.208 -0.2773  0.3321 -0.3019
 1030BOLB   GL124699  10.937  25.363   4.727  0.0767 -0.0025 -0.0640
 1030BOLB   GL224700  10.730  25.537   4.544 -0.1194  0.0456 -0.0654
 1030BOLB   C1A24701  11.167  25.654   4.408  0.0659 -0.3483 -0.0887
 1030BOLB   C2A24702  11.263  25.769   3.980 -0.0228 -0.1665 -0.2698
 1030BOLB   C3A24703  11.271  25.892   3.467  0.0841 -0.2671  0.1876
 1030BOLB   C4A24704  11.213  26.127   3.049  0.0948 -0.0899 -0.2082
 1030BOLB   C1B24705  10.752  25.760   4.141  0.0035  0.1031  0.1009
 1030BOLB   C2B24706  10.804  26.113   3.826 -0.3257 -0.0777 -0.0372
 1030BOLB   C3B24707  11.121  26.379   3.496 -0.1607  0.3355 -0.3840
 1030BOLB   C4B24708  11.292  26.626   3.118  0.0497  0.0215 -0.1947
 1030BOLB   NC224709  11.931  27.210   1.115 -0.4200 -0.3612 -0.1216
 1030BOLB   PO224710  12.216  27.274   1.364  0.0498 -0.0081  0.1501
 1030BOLB   GL324711  11.929  26.966   1.538  0.0905  0.2808 -0.1795
 1030BOLB   GL424712  11.878  26.650   1.473 -0.0065  0.1722  0.0481
 1030BOLB   C1C24713  11.560  26.819   1.783 -0.2529  0.2092  0.2117
 1030BOLB   C2C24714  11.448  27.003   2.197  0.1273 -0.3494  0.1701
 1030BOLB   C3C24715  11.422  26.795   2.594  0.2766  0.1908  0.2808
 1030BOLB   C4C24716  11.337  26.362   2.623 -0.1019 -0.1357 -0.1611
 1030BOLB   C1D24717  12.021  26.594   1.816 -0.1273  0.3323  0.1246
 1030BOLB   C2D24718  12.126  26.752   2.187 -0.1076  0.2867 -0.1571
 1030BOLB   C3D24719  12.182  26.947   2.553 -0.2034 -0.0892 -0.1841
 1030BOLB   C4D24720  12.238  27.127   2.885 -0.2509 -0.2574  0.3903
 1031BOLB   NC124721   0.110   8.403  17.188 -0.0913 -0.2918  0.2043
 1031BOLB   PO124722  -0.272   8.572  17.115 -0.0670 -0.0251  0.4307
 1031BOLB   GL124723  -0.058   8.912  17.204  0.1388  0.1563  0.1196
 1031BOLB   GL224724  -0.164   9.123  17.298  0.0541 -0.2123  0.1340
 1031BOLB   C1A24725   0.320   9.053  16.900  0.0810  0.0381 -0.1213
 1031BOLB   C2A24726   0.426   9.287  16.658 -0.1335 -0.2564 -0.1768
 1031BOLB   C3A24727   0.499   9.406  16.235  0.2117  0.0173  0.0814
 1031BOLB   C4A24728   0.358   9.267  15.931 -0.0326 -0.0197 -0.0984
 1031BOLB   C1B24729   0.117   9.405  17.223  0.3513  0.1390 -0.1287
 1031BOLB   C2B24730   0.333   9.714  16.846 -0.0694  0.2767 -0.0630
 1031BOLB   C3B24731   0.354   9.874  16.435  0.0884  0.2504  0.0898
 1031BOLB   C4B24732   0.287  10.205  16.111  0.3377 -0.0182  0.1989
 1031BOLB   NC224733   0.843   7.637  15.311 -0.0035  0.3197  0.2659
 1031BOLB   PO224734   0.656   7.439  14.958  0.1189  0.1426 -0.2212
 1031BOLB   GL324735   0.687   7.822  14.829  0.0297  0.3087  0.0862
 1031BOLB   GL424736   0.552   7.899  14.433 -0.1827  0.0879 -0.3783
 1031BOLB   C1C24737   0.437   8.206  14.845 -0.1009 -0.0247  0.0317
 1031BOLB   C2C24738   0.407   8.635  14.798  0.2694  0.2028  0.0906
 1031BOLB   C3C24739   0.413   8.927  15.070  0.1997 -0.0707 -0.0174
 1031BOLB   C4C24740   0.263   9.119  15.472  0.0762 -0.0022  0.0938
 1031BOLB   C1D24741   0.666   8.285  14.428  0.1212 -0.1560 -0.0662
 1031BOLB   C2D24742   0.766   8.743  14.450  0.3016  0.3870  0.0402
 1031BOLB   C3D24743   0.778   9.088  14.186  0.1908  0.0119  0.0066
 1031BOLB   C4D24744   0.970   9.477  13.999  0.1665 -0.1563  0.0777
 1032BOLB   NC124745   8.778  16.436   3.431  0.0702  0.0691 -0.0656
 1032BOLB   PO124746   9.187  16.378   3.442  0.3439  0.0241 -0.2379
 1032BOLB   GL124747   9.133  16.291   3.103 -0.2646 -0.0192  0.1517
 1032BOLB   GL224748   9.210  16.482   2.861  0.0298 -0.3109  0.4232
 1032BOLB   C1A24749   8.870  16.031   2.764 -0.0249 -0.3798 -0.0795
 1032BOLB   C2A24750   8.779  15.920   2.297  0.0581  0.0578  0.4418
 1032BOLB   C3A24751   8.674  15.989   1.774 -0.0916  0.1561  0.1372
 1032BOLB   C4A24752   8.808  15.713   1.443 -0.2310 -0.2481  0.1334
 1032BOLB   C1B24753   9.349  16.574   2.345 -0.1423  0.1825 -0.4645
 1032BOLB   C2B24754   9.609  16.333   2.176 -0.0234 -0.0475 -0.3899
 1032BOLB   C3B24755   9.786  16.052   2.334  0.3470  0.2396 -0.2957
 1032BOLB   C4B24756   9.975  15.829   2.699  0.1260  0.0171  0.0669
 1032BOLB   NC224757  10.700  14.193   0.343 -0.0170 -0.1004 -0.1071
 1032BOLB   PO224758  10.778  14.599   0.516  0.1065 -0.3981  0.3278
 1032BOLB   GL324759  10.438  14.802   0.673  0.0459 -0.0901  0.2860
 1032BOLB   GL424760  10.384  15.107   0.612 -0.0828 -0.0284  0.0666
 1032BOLB   C1C24761   9.985  14.767   0.765  0.1321 -0.0699  0.0641
 1032BOLB   C2C24762   9.642  15.000   0.925 -0.1132 -0.0826 -0.1817
 1032BOLB   C3C24763   9.428  15.232   1.201 -0.4024  0.0364  0.0380
 1032BOLB   C4C24764   9.044  15.306   1.248  0.3778 -0.0742 -0.1193
 1032BOLB   C1D24765  10.567  15.301   0.926 -0.1732  0.2420 -0.0367
 1032BOLB   C2D24766  10.443  15.561   1.239 -0.1655 -0.1445 -0.0938
 1032BOLB   C3D24767  10.263  15.875   1.298  0.1986  0.0907 -0.1285
 1032BOLB   C4D24768   9.865  16.064   1.463  0.1214 -0.0803  0.0174
 1033BOLB   NC124769   3.984   7.615   5.073 -0.2292 -0.0607  0.1311
 1033BOLB   PO124770   3.560   7.681   5.325  0.1611  0.1857  0.2627
 1033BOLB   GL124771   3.334   8.062   5.291  0.2959  0.0496 -0.1673
 1033BOLB   GL224772   3.059   8.199   5.093  0.3536  0.1637  0.0590
 1033BOLB   C1A24773   3.098   8.428   5.510 -0.0497 -0.0966  0.0107
 1033BOLB   C2A24774   3.045   8.931   5.614  0.0837 -0.2438  0.2235
 1033BOLB   C3A24775   3.241   9.362   5.642  0.1679 -0.0463  0.0297
 1033BOLB   C4A24776   3.099   9.722   5.680  0.1946 -0.3351 -0.1089
 1033BOLB   C1B24777   2.862   8.572   5.112 -0.3109 -0.1421 -0.0553
 1033BOLB   C2B24778   2.635   8.914   5.376 -0.2460 -0.0558 -0.0730
 1033BOLB   C3B24779   2.689   9.277   5.596  0.2777  0.1953  0.4891
 1033BOLB   C4B24780   2.589   9.619   5.755 -0.3774 -0.1030 -0.1053
 1033BOLB   NC224781   3.994   9.520   3.595  0.0250 -0.1101 -0.0759
 1033BOLB   PO224782   4.091   9.779   3.949 -0.2215  0.3643  0.0009
 1033BOLB   GL324783   3.925  10.171   4.114  0.0307  0.0148  0.1373
 1033BOLB   GL424784   4.177  10.139   4.301  0.4282  0.0435 -0.0883
 1033BOLB   C1C24785   3.613  10.327   4.395  0.0053 -0.1206 -0.1192
 1033BOLB   C2C24786   3.276  10.332   4.714  0.0323 -0.3774 -0.0441
 1033BOLB   C3C24787   2.898  10.318   5.113 -0.0547 -0.4100  0.1620
 1033BOLB   C4C24788   3.196  10.058   5.420  0.0836  0.0440 -0.2270
 1033BOLB   C1D24789   4.281  10.241   4.730  0.2535  0.1161  0.0069
 1033BOLB   C2D24790   4.291  10.538   5.124 -0.1879  0.0815  0.2784
 1033BOLB   C3D24791   3.935  10.643   5.359 -0.1919  0.1581  0.0888
 1033BOLB   C4D24792   3.555  10.941   5.460  0.0833  0.2541 -0.1958
 1034BOLB   NC124793  15.008  23.076   7.583 -0.0673  0.0409 -0.0694
 1034BOLB   PO124794  14.834  23.224   8.066  0.3253 -0.3125 -0.2284
 1034BOLB   GL124795  15.270  23.184   8.002 -0.0532 -0.0269  0.0173
 1034BOLB   GL224796  15.463  23.095   8.256 -0.2447  0.0953  0.1921
 1034BOLB   C1A24797  15.658  23.498   7.944 -0.0782  0.2841  0.0366
 1034BOLB   C2A24798  15.897  23.786   7.673 -0.0139  0.1812 -0.0266
 1034BOLB   C3A24799  16.311  23.689   7.363  0.2186  0.2244  0.0211
 1034BOLB   C4A24800  16.648  23.704   7.168 -0.3410  0.2238 -0.1746
 1034BOLB   C1B24801  15.920  23.284   8.355 -0.0065 -0.4164  0.0030
 1034BOLB   C2B24802  16.042  23.789   8.435  0.0846 -0.2345  0.0484
 1034BOLB   C3B24803  16.036  24.327   8.440 -0.1858 -0.2421  0.2247
 1034BOLB   C4B24804  16.097  24.822   8.429  0.0000  0.0465 -0.2150
 1034BOLB   NC224805  18.216  24.543   5.154  0.2741  0.3484  0.0434
 1034BOLB   PO224806  17.935  24.356   5.395 -0.2086  0.3408  0.2451
 1034BOLB   GL324807  17.574  24.113   5.542 -0.2911 -0.0085 -0.1817
 1034BOLB   GL424808  17.321  24.017   5.289  0.0570  0.0033 -0.3371
 1034BOLB   C1C24809  17.200  23.802   5.771 -0.1922 -0.0324  0.2096
 1034BOLB   C2C24810  16.971  23.862   6.120  0.1139  0.1228 -0.1762
 1034BOLB   C3C24811  17.136  23.780   6.508 -0.1703  0.1189 -0.3115
 1034BOLB   C4C24812  17.054  23.636   6.861 -0.0342 -0.0434  0.1099
 1034BOLB   C1D24813  17.275  23.518   5.378 -0.0824  0.2478 -0.1890
 1034BOLB   C2D24814  17.008  23.239   5.628  0.0135  0.0547  0.0138
 1034BOLB   C3D24815  16.678  23.089   5.830  0.0656  0.3860  0.0849
 1034BOLB   C4D24816  16.385  23.058   6.223 -0.4181  0.2860 -0.3308
 1035BOLB   NC124817   7.865  13.717  12.414  0.2377 -0.3581 -0.1230
 1035BOLB   PO124818   7.646  13.539  11.958  0.1959 -0.0563  0.1639
 1035BOLB   GL124819   7.710  13.172  11.986  0.0413 -0.0465  0.0288
 1035BOLB   GL224820   7.736  13.103  11.629 -0.2508 -0.1062 -0.2908
 1035BOLB   C1A24821   7.744  12.752  12.147  0.0361  0.0142 -0.0214
 1035BOLB   C2A24822   7.945  12.304  12.200  0.3615  0.3174 -0.0426
 1035BOLB   C3A24823   7.945  12.163  11.813 -0.0276 -0.0312  0.0685
 1035BOLB   C4A24824   8.144  11.863  11.571  0.0270 -0.0983 -0.2233
 1035BOLB   C1B24825   7.758  12.619  11.653 -0.1261 -0.0740  0.1407
 1035BOLB   C2B24826   8.093  12.404  11.376 -0.1573 -0.3500 -0.0729
 1035BOLB   C3B24827   8.541  12.164  11.374 -0.0503 -0.0275 -0.0030
 1035BOLB   C4B24828   8.759  11.940  11.592  0.3967 -0.1477  0.2841
 1035BOLB   NC224829   8.966   9.303  11.794 -0.1841  0.0471  0.0255
 1035BOLB   PO224830   8.786   9.719  11.945 -0.0800 -0.4614  0.0098
 1035BOLB   GL324831   8.791  10.070  11.853 -0.0025 -0.1132 -0.1554
 1035BOLB   GL424832   8.635  10.306  11.971  0.0443 -0.2168  0.4094
 1035BOLB   C1C24833   8.989  10.535  11.656 -0.0141  0.2083 -0.0076
 1035BOLB   C2C24834   8.981  10.884  11.445 -0.1185 -0.0776  0.0157
 1035BOLB   C3C24835   8.578  11.189  11.494 -0.1840 -0.0706  0.0294
 1035BOLB   C4C24836   8.396  11.547  11.596 -0.0709  0.0576  0.0531
 1035BOLB   C1D24837   8.875  10.607  12.205  0.3716 -0.2976  0.2952
 1035BOLB   C2D24838   8.559  10.703  12.634 -0.0841  0.1922 -0.0594
 1035BOLB   C3D24839   8.167  10.742  12.854 -0.0520 -0.3259  0.4651
 1035BOLB   C4D24840   8.041  11.038  13.082  0.3062 -0.1997  0.1267
 1036BOLB   NC124841   2.835  25.521  25.763  0.0887 -0.0126 -0.3122
 1036BOLB   PO124842   2.522  25.422  26.039  0.0222 -0.0860 -0.0388
 1036BOLB   GL124843   2.495  25.158  26.384 -0.2082  0.2011 -0.0133
 1036BOLB   GL224844   2.672  24.909  26.230  0.0886 -0.0226  0.2123
 1036BOLB   C1A24845   2.752  25.078  26.736  0.1843 -0.2679 -0.1628
 1036BOLB   C2A24846   2.992  24.859  26.933  0.2792 -0.0910  0.0587
 1036BOLB   C3A24847   3.362  24.754  27.054 -0.0487  0.3051 -0.3650
 1036BOLB   C4A24848   3.616  24.711  27.355 -0.0545 -0.0069  0.1877
 1036BOLB   C1B24849   2.848  24.625  26.518 -0.1247 -0.0375  0.0371
 1036BOLB   C2B24850   2.923  24.261  26.710 -0.3009  0.0950  0.2363
 1036BOLB   C3B24851   2.837  24.100  27.175 -0.2976 -0.1180 -0.2002
 1036BOLB   C4B24852   2.861  24.228  27.594 -0.0127 -0.0582 -0.0152
 1036BOLB   NC224853   4.331  25.709  25.808  0.3313  0.0478 -0.2704
 1036BOLB   PO224854   4.643  25.840  25.995 -0.1124 -0.0255  0.1584
 1036BOLB   GL324855   4.378  25.720  26.293 -0.1857 -0.0350  0.0243
 1036BOLB   GL424856   4.626  25.815  26.554  0.1042  0.0282  0.1176
 1036BOLB   C1C24857   4.465  25.351  26.587  0.0688 -0.1115  0.1101
 1036BOLB   C2C24858   4.382  25.206  26.983  0.1388 -0.3019 -0.0416
 1036BOLB   C3C24859   4.381  24.905  27.246  0.1267 -0.1627 -0.0863
 1036BOLB   C4C24860   3.971  24.744  27.452 -0.1870 -0.1403 -0.1941
 1036BOLB   C1D24861   4.379  25.742  26.829 -0.0109 -0.2888 -0.1276
 1036BOLB   C2D24862   4.326  25.616  27.265  0.1688 -0.1386 -0.1861
 1036BOLB   C3D24863   4.514  25.865  27.615  0.0261 -0.0644  0.1246
 1036BOLB   C4D24864   4.807  25.710  27.984  0.3262  0.1595  0.1494
 1037BOLB   NC124865   2.443  26.425  15.047  0.1977 -0.1817 -0.2919
 1037BOLB   PO124866   2.656  26.811  14.972  0.1681 -0.0136  0.1559
 1037BOLB   GL124867   2.620  26.991  15.392  0.4922  0.1237  0.3129
 1037BOLB   GL224868   2.912  27.049  15.620 -0.1548 -0.0550 -0.1379
 1037BOLB   C1A24869   2.256  27.103  15.727 -0.1158 -0.1281  0.1336
 1037BOLB   C2A24870   1.998  27.133  16.075  0.0945  0.0543 -0.0281
 1037BOLB   C3A24871   1.999  27.275  16.417  0.0961 -0.1511  0.0265
 1037BOLB   C4A24872   2.130  27.259  16.813  0.1219  0.0581 -0.0191
 1037BOLB   C1B24873   3.010  27.375  15.783  0.1138  0.1580 -0.0280
 1037BOLB   C2B24874   3.039  27.764  15.945  0.5045 -0.0778 -0.0566
 1037BOLB   C3B24875   3.380  28.125  15.850 -0.0701  0.3011  0.0818
 1037BOLB   C4B24876   3.300  28.562  15.725 -0.0342 -0.2952 -0.2255
 1037BOLB   NC224877   0.523  27.597  18.223  0.1756  0.2859 -0.0017
 1037BOLB   PO224878   0.638  27.341  18.519 -0.1720 -0.1080  0.0975
 1037BOLB   GL324879   1.035  27.194  18.360 -0.1117 -0.1305 -0.2303
 1037BOLB   GL424880   0.988  27.016  18.188  0.2626  0.0557  0.0794
 1037BOLB   C1C24881   1.503  27.023  18.175 -0.1330 -0.2335 -0.1128
 1037BOLB   C2C24882   1.813  27.239  17.900 -0.0817  0.0966 -0.0121
 1037BOLB   C3C24883   1.850  27.092  17.506 -0.0421 -0.2193  0.0427
 1037BOLB   C4C24884   1.880  27.351  17.188 -0.3303  0.3688  0.2129
 1037BOLB   C1D24885   1.195  26.656  18.228  0.2316 -0.2261  0.1005
 1037BOLB   C2D24886   1.405  26.139  18.252  0.2805 -0.2134 -0.2024
 1037BOLB   C3D24887   1.662  25.892  18.025  0.0168  0.1639  0.2085
 1037BOLB   C4D24888   2.067  25.839  18.048  0.2160  0.4670 -0.0122
 1038BOLB   NC124889   5.184  26.372  16.092  0.1631  0.3469 -0.1420
 1038BOLB   PO124890   4.936  26.324  16.374 -0.1217  0.0708  0.1089
 1038BOLB   GL124891   4.779  26.655  16.681  0.0407  0.2041  0.0174
 1038BOLB   GL224892   4.393  26.755  16.778 -0.0387 -0.3332 -0.2289
 1038BOLB   C1A24893   4.833  26.776  17.153 -0.2521 -0.0949 -0.0225
 1038BOLB   C2A24894   4.885  26.854  17.600  0.2680 -0.0761  0.1606
 1038BOLB   C3A24895   5.104  26.989  18.082 -0.0057  0.4652 -0.0900
 1038BOLB   C4A24896   5.115  27.337  18.438  0.0920 -0.2333 -0.1289
 1038BOLB   C1B24897   4.432  27.025  17.067 -0.0119 -0.6875 -0.0391
 1038BOLB   C2B24898   4.357  26.931  17.538 -0.4087 -0.0123  0.1758
 1038BOLB   C3B24899   4.064  26.838  17.887 -0.1861  0.0945 -0.0800
 1038BOLB   C4B24900   3.748  27.012  18.205 -0.2222  0.4012  0.1354
 1038BOLB   NC224901   3.658  28.741  19.642 -0.2357  0.0572  0.2653
 1038BOLB   PO224902   3.949  28.984  19.551 -0.1130 -0.0115 -0.0240
 1038BOLB   GL324903   4.102  28.540  19.574  0.0836  0.0166 -0.2170
 1038BOLB   GL424904   4.379  28.550  19.811  0.4046 -0.0616  0.1216
 1038BOLB   C1C24905   4.439  28.256  19.389  0.1303  0.0542 -0.1443
 1038BOLB   C2C24906   4.615  28.094  19.021 -0.0928 -0.0554  0.2923
 1038BOLB   C3C24907   4.800  27.801  18.902 -0.0605  0.0536 -0.0443
 1038BOLB   C4C24908   4.803  27.605  18.576  0.1197 -0.3706  0.0208
 1038BOLB   C1D24909   4.754  28.605  19.595 -0.2162 -0.0330 -0.1849
 1038BOLB   C2D24910   5.139  28.404  19.589 -0.1362 -0.0415  0.1164
 1038BOLB   C3D24911   5.566  28.270  19.610 -0.0822  0.0487 -0.0386
 1038BOLB   C4D24912   5.813  27.918  19.858 -0.0408 -0.4566 -0.0947
 1039BOLB   NC124913   2.561  26.820   6.871  0.1885 -0.1538 -0.1568
 1039BOLB   PO124914   2.562  26.657   6.495  0.1009 -0.0083 -0.2266
 1039BOLB   GL124915   2.220  26.901   6.462 -0.0396 -0.0941 -0.0698
 1039BOLB   GL224916   2.165  26.986   6.243  0.1512 -0.0098  0.1377
 1039BOLB   C1A24917   1.963  27.191   6.653  0.3153 -0.0265  0.1250
 1039BOLB   C2A24918   1.715  27.568   6.546  0.1228  0.0567 -0.1226
 1039BOLB   C3A24919   1.583  27.921   6.378  0.0089 -0.1118 -0.1649
 1039BOLB   C4A24920   1.216  28.164   6.335  0.3221 -0.0516  0.0113
 1039BOLB   C1B24921   2.043  27.364   6.097  0.3907 -0.0730  0.3214
 1039BOLB   C2B24922   1.798  27.733   5.966  0.0922 -0.2233 -0.1728
 1039BOLB   C3B24923   1.535  28.087   5.809 -0.0113  0.1952 -0.1177
 1039BOLB   C4B24924   1.524  28.594   5.775 -0.1222 -0.0514 -0.2001
 1039BOLB   NC224925   0.253  30.026   5.633 -0.1182  0.0963  0.1426
 1039BOLB   PO224926   0.663  30.038   5.442  0.0589 -0.0182  0.0374
 1039BOLB   GL324927   0.948  29.762   5.240 -0.2343  0.1156 -0.3502
 1039BOLB   GL424928   1.263  29.673   5.351  0.0051  0.0700 -0.2101
 1039BOLB   C1C24929   0.881  29.240   5.162 -0.2161 -0.1032  0.2931
 1039BOLB   C2C24930   1.099  28.897   5.387 -0.2082 -0.2480  0.1409
 1039BOLB   C3C24931   1.072  28.774   5.710 -0.0011 -0.0753  0.2187
 1039BOLB   C4C24932   1.004  28.371   5.926  0.0242 -0.3780 -0.3097
 1039BOLB   C1D24933   1.695  29.581   5.644 -0.0277 -0.0507  0.0838
 1039BOLB   C2D24934   2.083  29.389   5.747 -0.0917 -0.0395  0.1096
 1039BOLB   C3D24935   2.368  29.092   5.887 -0.1014  0.1272  0.0086
 1039BOLB   C4D24936   2.541  28.708   6.103 -0.1444 -0.2412  0.1578
 1040BOLB   NC124937   3.046   7.686   6.537 -0.0467  0.0365 -0.2977
 1040BOLB   PO124938   3.313   7.398   6.818  0.0209  0.0888 -0.1279
 1040BOLB   GL124939   3.212   7.842   6.962  0.0025  0.0562 -0.0277
 1040BOLB   GL224940   3.447   8.085   6.724 -0.2990  0.0259 -0.3342
 1040BOLB   C1A24941   2.992   8.125   7.163 -0.2161 -0.1111 -0.2793
 1040BOLB   C2A24942   2.931   8.274   7.503  0.2436 -0.3638 -0.1262
 1040BOLB   C3A24943   2.614   8.481   7.678 -0.0545 -0.0095  0.1287
 1040BOLB   C4A24944   2.137   8.567   7.866  0.0577  0.0332 -0.0099
 1040BOLB   C1B24945   3.650   8.556   6.661  0.0134 -0.3148 -0.0131
 1040BOLB   C2B24946   3.979   8.826   6.869  0.1559 -0.2459 -0.4564
 1040BOLB   C3B24947   3.888   9.305   7.031  0.0099  0.1304 -0.2150
 1040BOLB   C4B24948   3.918   9.784   6.899 -0.0125 -0.0258  0.3081
 1040BOLB   NC224949   0.470   6.875   7.188 -0.1565 -0.2079  0.1136
 1040BOLB   PO224950   0.591   6.877   7.567 -0.0293 -0.1567 -0.0536
 1040BOLB   GL324951   0.847   7.262   7.701 -0.1365 -0.2164  0.0106
 1040BOLB   GL424952   1.095   7.053   7.645 -0.2652  0.0395  0.0274
 1040BOLB   C1C24953   0.816   7.670   7.851  0.1814  0.0201 -0.0436
 1040BOLB   C2C24954   0.914   8.170   7.882 -0.0056  0.1000 -0.4912
 1040BOLB   C3C24955   1.231   8.539   7.923  0.1676 -0.2620 -0.1242
 1040BOLB   C4C24956   1.645   8.747   7.963  0.2674 -0.1688  0.0790
 1040BOLB   C1D24957   1.405   7.169   7.871  0.3786 -0.0077  0.2843
 1040BOLB   C2D24958   1.797   7.392   7.835 -0.1900 -0.1944  0.0423
 1040BOLB   C3D24959   1.902   7.763   7.757 -0.0580  0.1305  0.1329
 1040BOLB   C4D24960   1.926   8.144   7.652  0.0831  0.3344 -0.3654
 1041BOLB   NC124961   6.880  19.036   1.924  0.0399 -0.1431 -0.0644
 1041BOLB   PO124962   7.017  18.637   1.997 -0.1375  0.2126  0.2295
 1041BOLB   GL124963   7.311  18.464   1.743 -0.3049 -0.0222  0.5136
 1041BOLB   GL224964   7.249  18.104   1.564 -0.2670  0.3156  0.0144
 1041BOLB   C1A24965   7.324  18.494   1.165  0.1643  0.2896 -0.1378
 1041BOLB   C2A24966   7.266  18.303   0.809 -0.2767  0.1965  0.2108
 1041BOLB   C3A24967   7.162  18.033   0.493  0.1663 -0.0188  0.4077
 1041BOLB   C4A24968   7.353  17.626   0.287 -0.1393 -0.2654 -0.1899
 1041BOLB   C1B24969   7.394  17.925   1.162  0.1886  0.0219  0.0909
 1041BOLB   C2B24970   7.599  17.973   0.762 -0.1430 -0.0956  0.2698
 1041BOLB   C3B24971   7.694  18.282   0.417  0.0787 -0.0299 -0.0425
 1041BOLB   C4B24972   7.642  18.768   0.102 -0.3836  0.1694 -0.1486
 1041BOLB   NC224973   8.132  16.205  -1.394 -0.2197  0.0914 -0.0082
 1041BOLB   PO224974   8.458  16.120  -1.274 -0.1038  0.1518 -0.0304
 1041BOLB   GL324975   8.333  16.474  -1.070  0.0980  0.4484 -0.0235
 1041BOLB   GL424976   8.529  16.629  -0.817 -0.0467 -0.2755 -0.2715
 1041BOLB   C1C24977   8.034  16.617  -0.858  0.1225  0.0736  0.3723
 1041BOLB   C2C24978   7.828  16.728  -0.482 -0.4805 -0.2424  0.2334
 1041BOLB   C3C24979   7.760  17.006  -0.224  0.0887  0.1381 -0.4117
 1041BOLB   C4C24980   7.431  17.233  -0.020 -0.1464  0.2137  0.1413
 1041BOLB   C1D24981   8.340  16.938  -0.650  0.0534 -0.1643  0.0414
 1041BOLB   C2D24982   8.191  17.310  -0.340  0.0350  0.0977  0.0048
 1041BOLB   C3D24983   7.949  17.464  -0.005 -0.0223  0.3255 -0.1263
 1041BOLB   C4D24984   7.845  17.752   0.393 -0.2063  0.3427 -0.4360
 1042BOLB   NC124985   7.543  30.952  18.359  0.0890  0.0398  0.2913
 1042BOLB   PO124986   7.479  30.802  17.971  0.3514  0.0236  0.1703
 1042BOLB   GL124987   7.569  30.345  17.880 -0.0365  0.3348 -0.2645
 1042BOLB   GL224988   7.899  30.350  17.833  0.0953  0.5118  0.0569
 1042BOLB   C1A24989   7.438  29.978  17.514  0.0816  0.0561 -0.0796
 1042BOLB   C2A24990   7.464  29.744  17.211  0.0316 -0.0296  0.2704
 1042BOLB   C3A24991   7.606  29.465  16.960  0.0646  0.3385  0.0870
 1042BOLB   C4A24992   7.824  29.052  16.835 -0.1299  0.1565 -0.1072
 1042BOLB   C1B24993   7.939  29.949  17.454 -0.0738 -0.2936  0.0458
 1042BOLB   C2B24994   7.812  29.513  17.514 -0.2721 -0.0911  0.0192
 1042BOLB   C3B24995   7.669  29.079  17.387 -0.2610  0.0203  0.1792
 1042BOLB   C4B24996   7.437  28.784  17.382  0.3624 -0.3051 -0.2626
 1042BOLB   NC224997   7.617  26.686  16.462 -0.2373  0.1209  0.1382
 1042BOLB   PO224998   8.027  26.750  16.626 -0.1576  0.0602 -0.1583
 1042BOLB   GL324999   8.159  27.135  16.778  0.1304 -0.2609  0.0367
 1042BOLB   GL425000   8.161  27.180  17.071  0.1217  0.0022 -0.1071
 1042BOLB   C1C25001   8.302  27.596  16.748  0.0763 -0.2131  0.3249
 1042BOLB   C2C25002   8.251  28.096  16.644 -0.1461 -0.0383  0.1889
 1042BOLB   C3C25003   8.291  28.577  16.748  0.1030  0.1133  0.1636
 1042BOLB   C4C25004   8.164  28.874  16.758  0.0041 -0.2516  0.2528
 1042BOLB   C1D25005   8.071  27.585  17.264 -0.0754 -0.1328  0.0266
 1042BOLB   C2D25006   8.007  27.947  17.591 -0.3018 -0.4108  0.2022
 1042BOLB   C3D25007   8.264  28.360  17.448  0.3375  0.2177  0.1560
 1042BOLB   C4D25008   8.500  28.614  17.179 -0.0776  0.1726 -0.0687
 1043BOLB   NC125009   8.989  16.036  15.046  0.2861 -0.3082  0.1597
 1043BOLB   PO125010   9.313  15.883  15.261 -0.3617 -0.1637  0.3761
 1043BOLB   GL125011   9.283  15.826  15.805  0.0690 -0.1416 -0.0150
 1043BOLB   GL225012   9.455  15.970  16.108 -0.1500  0.0801  0.3335
 1043BOLB   C1A25013   9.350  15.531  16.115 -0.0559  0.3009 -0.2030
 1043BOLB   C2A25014   9.588  15.357  16.456 -0.3620 -0.1680 -0.1308
 1043BOLB   C3A25015   9.872  15.328  16.742 -0.2588 -0.2258  0.0746
 1043BOLB   C4A25016  10.292  15.222  17.029  0.1580  0.2425 -0.1133
 1043BOLB   C1B25017   9.845  15.789  15.811 -0.4301  0.0388  0.3357
 1043BOLB   C2B25018  10.148  15.682  15.451  0.2042 -0.3322 -0.0716
 1043BOLB   C3B25019  10.620  15.506  15.467  0.1669  0.1920 -0.0600
 1043BOLB   C4B25020  10.942  15.267  15.674 -0.1076  0.1304  0.3863
 1043BOLB   NC225021  11.540  13.061  17.126  0.1352  0.1296  0.2693
 1043BOLB   PO225022  11.358  13.336  17.524  0.1168  0.0458  0.0693
 1043BOLB   GL325023  11.338  13.755  17.566  0.0666  0.1812  0.2273
 1043BOLB   GL425024  11.067  13.854  17.444 -0.2360  0.2548 -0.1764
 1043BOLB   C1C25025  11.400  14.232  17.490 -0.0415 -0.2629  0.1609
 1043BOLB   C2C25026  11.293  14.623  17.336  0.2589  0.0702 -0.0893
 1043BOLB   C3C25027  10.998  14.897  17.183 -0.3392 -0.0626 -0.1590
 1043BOLB   C4C25028  10.675  15.058  17.090 -0.0565  0.1812 -0.4982
 1043BOLB   C1D25029  10.879  14.249  17.325 -0.3445  0.1147 -0.1480
 1043BOLB   C2D25030  10.628  14.538  17.241  0.1135  0.3103  0.2512
 1043BOLB   C3D25031  10.313  14.693  16.973 -0.1170  0.1191 -0.0646
 1043BOLB   C4D25032  10.139  14.901  16.665 -0.1977  0.0815 -0.0539
 1044BOLB   NC125033  12.289  26.989  10.175  0.0843 -0.0411 -0.2312
 1044BOLB   PO125034  11.942  27.182  10.025 -0.0714 -0.0398  0.0400
 1044BOLB   GL125035  12.387  27.344   9.872  0.0042 -0.0335  0.1700
 1044BOLB   GL225036  12.722  27.219  10.002  0.1755  0.0902 -0.3780
 1044BOLB   C1A25037  12.603  27.709   9.971  0.3252 -0.0547  0.3360
 1044BOLB   C2A25038  12.972  27.953   9.966  0.2573 -0.3963  0.0960
 1044BOLB   C3A25039  13.126  28.042  10.320 -0.0841  0.0838 -0.0824
 1044BOLB   C4A25040  13.413  28.185  10.480  0.1522 -0.2014  0.3598
 1044BOLB   C1B25041  12.995  27.478  10.215 -0.4367 -0.2630  0.0479
 1044BOLB   C2B25042  13.232  27.621  10.596 -0.1394  0.0492  0.2364
 1044BOLB   C3B25043  13.548  27.932  10.892  0.2821  0.1217  0.4012
 1044BOLB   C4B25044  13.988  27.985  10.943  0.1556 -0.2531 -0.1263
 1044BOLB   NC225045  14.525  30.482  10.367 -0.0378 -0.1784  0.0161
 1044BOLB   PO225046  14.565  30.157   9.964 -0.1235 -0.3510  0.0576
 1044BOLB   GL325047  14.362  29.906  10.215  0.1473 -0.1907  0.2460
 1044BOLB   GL425048  14.506  29.932  10.493 -0.3478 -0.0055 -0.0968
 1044BOLB   C1C25049  14.252  29.533  10.281  0.0837  0.3907  0.2770
 1044BOLB   C2C25050  14.132  29.259  10.543 -0.1660  0.0589 -0.4203
 1044BOLB   C3C25051  13.773  28.952  10.626  0.0661  0.0996  0.1772
 1044BOLB   C4C25052  13.465  28.618  10.534  0.0236 -0.1338 -0.1100
 1044BOLB   C1D25053  14.192  29.754  10.833 -0.2507 -0.0924 -0.2431
 1044BOLB   C2D25054  13.877  29.460  10.933 -0.3134  0.0458 -0.2799
 1044BOLB   C3D25055  13.516  29.320  11.182  0.2238 -0.3964  0.0418
 1044BOLB   C4D25056  13.245  29.089  11.364  0.2145  0.0605 -0.5131
 1045BOLB   NC125057   4.299   7.105   9.451  0.0581 -0.1773 -0.1127
 1045BOLB   PO125058   4.130   7.155   9.088 -0.0383 -0.0885 -0.2705
 1045BOLB   GL125059   3.996   7.537   8.887 -0.1116  0.1048 -0.0094
 1045BOLB   GL225060   4.337   7.827   8.919  0.2321 -0.2617  0.1146
 1045BOLB   C1A25061   3.863   7.907   8.701 -0.0245 -0.5905  0.0770
 1045BOLB   C2A25062   3.818   8.336   8.761  0.0999  0.3576  0.0351
 1045BOLB   C3A25063   3.872   8.739   9.013  0.0443  0.0620  0.4970
 1045BOLB   C4A25064   3.759   9.107   8.679  0.2482  0.3908 -0.2309
 1045BOLB   C1B25065   3.940   7.998   9.190 -0.1254  0.0651 -0.1931
 1045BOLB   C2B25066   3.838   8.418   9.410 -0.1564  0.0392  0.0235
 1045BOLB   C3B25067   3.608   8.748   9.465  0.2507 -0.1500  0.2260
 1045BOLB   C4B25068   3.757   9.020   9.750  0.3610  0.0182  0.3127
 1045BOLB   NC225069   5.226   7.921   6.824 -0.1580  0.0897 -0.0601
 1045BOLB   PO225070   5.087   8.308   7.144 -0.3120 -0.2185 -0.0500
 1045BOLB   GL325071   4.810   8.610   7.209  0.2417  0.1791  0.0152
 1045BOLB   GL425072   4.915   8.904   7.232  0.0555 -0.0819 -0.2397
 1045BOLB   C1C25073   4.370   8.656   7.190 -0.2504 -0.0171 -0.2443
 1045BOLB   C2C25074   4.115   8.799   7.460 -0.0576 -0.0945 -0.0352
 1045BOLB   C3C25075   3.851   8.945   7.809 -0.2026 -0.2673  0.0918
 1045BOLB   C4C25076   3.595   9.073   8.201 -0.0699  0.2104  0.2822
 1045BOLB   C1D25077   4.560   8.986   7.535  0.0093 -0.2353  0.0905
 1045BOLB   C2D25078   4.466   9.229   7.861  0.0720 -0.1977 -0.3481
 1045BOLB   C3D25079   4.432   9.599   7.976 -0.2687 -0.1829  0.0069
 1045BOLB   C4D25080   4.513  10.122   7.934  0.3421  0.0156 -0.0817
 1046BOLB   NC125081  35.638  10.278   3.760  0.1604  0.0660 -0.2799
 1046BOLB   PO125082  35.886  10.148   4.147 -0.2436  0.1139 -0.1395
 1046BOLB   GL125083  35.908  10.497   4.246  0.1036 -0.1671 -0.0639
 1046BOLB   GL225084  35.822  10.745   3.987 -0.0740  0.4086 -0.0411
 1046BOLB   C1A25085  35.950  10.634   4.741  0.0286 -0.0118 -0.0499
 1046BOLB   C2A25086  36.131  10.604   5.138 -0.2309 -0.1037  0.1406
 1046BOLB   C3A25087  36.471  10.540   5.430  0.0103  0.2482  0.2084
 1046BOLB   C4A25088  36.802  10.768   5.578 -0.2278 -0.0265  0.1809
 1046BOLB   C1B25089  35.941  11.188   4.092 -0.0309 -0.1883 -0.0237
 1046BOLB   C2B25090  36.159  11.515   4.316  0.0781 -0.2412  0.0356
 1046BOLB   C3B25091  36.526  11.557   4.455  0.2534  0.0417  0.0552
 1046BOLB   C4B25092  36.703  11.297   4.690  0.3017  0.0025 -0.0421
 1046BOLB   NC225093  35.545  10.252   4.507  0.0351 -0.1610 -0.0680
 1046BOLB   PO225094  35.270  10.357   4.760 -0.3041  0.1132 -0.2561
 1046BOLB   GL325095  35.425  10.743   4.847  0.0880 -0.2156  0.1752
 1046BOLB   GL425096  35.519  10.902   4.466 -0.0937 -0.1185  0.0557
 1046BOLB   C1C25097  35.799  10.972   5.072 -0.0453  0.1040 -0.1675
 1046BOLB   C2C25098  36.019  11.322   5.393  0.0983 -0.0806 -0.2125
 1046BOLB   C3C25099  36.287  11.444   5.566 -0.3629  0.0538  0.1096
 1046BOLB   C4C25100  36.646  11.154   5.680 -0.1544 -0.1805 -0.0860
 1046BOLB   C1D25101  35.835  11.187   4.629  0.2070 -0.2136  0.3500
 1046BOLB   C2D25102  35.731  11.611   4.539 -0.0542 -0.1785 -0.4608
 1046BOLB   C3D25103  36.029  11.942   4.498 -0.1860  0.0568  0.0489
 1046BOLB   C4D25104  36.405  12.000   4.652  0.1187  0.3230 -0.1265
 1047BOLB   NC125105   7.609  28.816  20.063 -0.0649 -0.2189 -0.1776
 1047BOLB   PO125106   7.855  28.853  19.732  0.0625  0.0810 -0.1930
 1047BOLB   GL125107   7.877  28.623  19.336 -0.1132 -0.0649 -0.1736
 1047BOLB   GL225108   8.174  28.639  19.343  0.5147 -0.0147 -0.3750
 1047BOLB   C1A25109   7.900  28.320  19.116  0.1259  0.4721  0.2430
 1047BOLB   C2A25110   8.018  27.907  19.081 -0.1052 -0.3884 -0.0591
 1047BOLB   C3A25111   8.127  27.535  18.777  0.0737  0.1440 -0.4279
 1047BOLB   C4A25112   8.228  27.077  18.807  0.0293  0.0646 -0.5025
 1047BOLB   C1B25113   8.415  28.280  19.365 -0.1483  0.0009  0.3210
 1047BOLB   C2B25114   8.479  27.983  19.110  0.1118 -0.2325 -0.0637
 1047BOLB   C3B25115   8.467  27.886  18.754  0.1587 -0.0582  0.1846
 1047BOLB   C4B25116   8.410  27.779  18.383  0.2113 -0.0012 -0.0480
 1047BOLB   NC225117   7.653  27.348  21.509 -0.0131  0.1802 -0.2006
 1047BOLB   PO225118   8.000  27.452  21.271 -0.2969  0.2165 -0.1268
 1047BOLB   GL325119   8.220  27.266  20.956 -0.0796 -0.2557  0.1125
 1047BOLB   GL425120   8.500  27.018  20.958 -0.2086  0.0986  0.2762
 1047BOLB   C1C25121   8.040  27.046  20.506  0.2477 -0.3374  0.1770
 1047BOLB   C2C25122   7.887  26.955  20.037 -0.0153 -0.1116 -0.0218
 1047BOLB   C3C25123   8.100  26.955  19.671 -0.1325  0.1961 -0.0462
 1047BOLB   C4C25124   8.143  27.017  19.268  0.0345 -0.0282 -0.1435
 1047BOLB   C1D25125   8.503  26.896  20.667 -0.2320 -0.0999  0.2842
 1047BOLB   C2D25126   8.227  26.545  20.405 -0.2542 -0.1477 -0.1108
 1047BOLB   C3D25127   7.898  26.413  20.188  0.0668 -0.0444 -0.1689
 1047BOLB   C4D25128   7.971  26.460  19.792 -0.0286  0.1175  0.1556
 1048BOLB   NC125129  19.175  18.877  12.907 -0.1114 -0.0437 -0.3218
 1048BOLB   PO125130  18.651  18.988  12.903  0.0290  0.2057  0.3083
 1048BOLB   GL125131  18.254  19.177  12.897 -0.1168  0.2438  0.1173
 1048BOLB   GL225132  18.058  19.401  13.181 -0.1990 -0.1875 -0.2740
 1048BOLB   C1A25133  17.757  19.193  12.782  0.4529  0.2134 -0.0934
 1048BOLB   C2A25134  17.461  19.453  13.057 -0.0309  0.1078  0.1664
 1048BOLB   C3A25135  17.125  19.505  13.404  0.0827  0.1378  0.0978
 1048BOLB   C4A25136  17.005  19.307  13.750  0.3516  0.2121 -0.2687
 1048BOLB   C1B25137  17.671  19.313  13.546  0.1096 -0.1641 -0.0631
 1048BOLB   C2B25138  17.351  19.016  13.536  0.1421  0.3548 -0.0617
 1048BOLB   C3B25139  17.068  18.830  13.837  0.1860  0.1537 -0.2483
 1048BOLB   C4B25140  16.738  18.888  14.154  0.1137  0.0838  0.1418
 1048BOLB   NC225141  17.972  18.606  14.173 -0.1250 -0.1732 -0.1643
 1048BOLB   PO225142  17.679  18.495  14.531 -0.0509  0.3784 -0.0084
 1048BOLB   GL325143  17.376  18.215  14.238  0.3536  0.1604 -0.0835
 1048BOLB   GL425144  16.968  18.249  14.344  0.1325  0.1273 -0.0576
 1048BOLB   C1C25145  17.078  18.261  13.817 -0.2469 -0.2045  0.1264
 1048BOLB   C2C25146  16.653  18.352  13.539  0.0495 -0.2948  0.0172
 1048BOLB   C3C25147  16.442  18.747  13.717 -0.4287  0.0675 -0.4381
 1048BOLB   C4C25148  16.595  19.137  13.696 -0.0295 -0.1203  0.3565
 1048BOLB   C1D25149  16.627  18.378  14.206 -0.1234  0.0613  0.0100
 1048BOLB   C2D25150  16.344  18.292  14.028  0.2922 -0.1929 -0.0898
 1048BOLB   C3D25151  15.935  18.414  13.931 -0.1127  0.3401 -0.0534
 1048BOLB   C4D25152  15.497  18.383  13.835  0.0899 -0.2127  0.0998
 1049BOLB   NC125153  37.865  29.501   5.713 -0.1596 -0.1333 -0.1550
 1049BOLB   PO125154  38.105  29.972   5.782 -0.2656  0.1527 -0.1684
 1049BOLB   GL125155  38.348  29.645   5.818 -0.1496 -0.0134 -0.0704
 1049BOLB   GL225156  38.270  29.270   5.781  0.0809  0.0836 -0.0462
 1049BOLB   C1A25157  38.803  29.488   5.944 -0.3086 -0.2084  0.1752
 1049BOLB   C2A25158  38.949  29.034   5.989  0.1001 -0.2267  0.2497
 1049BOLB   C3A25159  39.107  28.679   6.226 -0.2136 -0.4634 -0.2068
 1049BOLB   C4A25160  39.393  28.525   6.540  0.0513 -0.0372 -0.1500
 1049BOLB   C1B25161  38.347  28.872   5.904 -0.0768 -0.0170 -0.0281
 1049BOLB   C2B25162  38.548  28.748   6.204  0.0155  0.0163  0.0497
 1049BOLB   C3B25163  38.759  28.563   6.564 -0.0119  0.0030  0.0487
 1049BOLB   C4B25164  39.106  28.143   6.485 -0.0198  0.2347  0.0205
 1049BOLB   NC225165  40.316  26.718   7.459 -0.0866  0.1013  0.0894
 1049BOLB   PO225166  40.811  26.876   7.362  0.0667 -0.0822  0.0233
 1049BOLB   GL325167  40.547  27.214   7.268 -0.0782 -0.0083 -0.2383
 1049BOLB   GL425168  40.227  27.337   7.329 -0.0672 -0.1914 -0.1014
 1049BOLB   C1C25169  40.593  27.564   7.030 -0.1425  0.1312 -0.3699
 1049BOLB   C2C25170  40.419  27.912   6.841 -0.2567 -0.3430  0.1818
 1049BOLB   C3C25171  40.152  28.379   6.693 -0.1781  0.1899 -0.1088
 1049BOLB   C4C25172  39.798  28.449   6.702  0.1039 -0.0380  0.3953
 1049BOLB   C1D25173  40.037  27.688   7.080  0.0094 -0.0394  0.0020
 1049BOLB   C2D25174  39.878  28.019   6.910 -0.2065 -0.1177 -0.1108
 1049BOLB   C3D25175  39.468  28.130   6.938 -0.1120  0.2273 -0.0397
 1049BOLB   C4D25176  39.156  28.371   7.008 -0.0626  0.0841  0.3419
 1050BOLB   NC125177   7.077  28.741   9.958  0.2450  0.1414 -0.0835
 1050BOLB   PO125178   6.728  29.089   9.767  0.1697  0.0931 -0.3010
 1050BOLB   GL125179   6.530  29.400   9.464 -0.0655  0.1155 -0.0844
 1050BOLB   GL225180   6.633  29.690   9.417 -0.1447 -0.0648  0.1384
 1050BOLB   C1A25181   6.150  29.779   9.393 -0.4604 -0.0639 -0.2243
 1050BOLB   C2A25182   6.000  30.211   9.414  0.0915 -0.0761 -0.1608
 1050BOLB   C3A25183   6.216  30.533   9.483  0.0724 -0.1935  0.2839
 1050BOLB   C4A25184   6.526  30.696   9.724 -0.2905  0.3194 -0.0306
 1050BOLB   C1B25185   6.457  30.067   9.143  0.2059  0.0391 -0.1254
 1050BOLB   C2B25186   6.370  30.524   8.966 -0.2036  0.2074  0.0768
 1050BOLB   C3B25187   6.590  30.831   9.237 -0.0056 -0.1182  0.5624
 1050BOLB   C4B25188   6.927  30.996   9.448 -0.0030 -0.1230  0.0898
 1050BOLB   NC225189   7.087  32.579   9.110  0.0928 -0.0519  0.1284
 1050BOLB   PO225190   6.930  32.921   9.221 -0.0351 -0.0036  0.2678
 1050BOLB   GL325191   6.952  32.734   9.614  0.0811  0.0174  0.0890
 1050BOLB   GL425192   6.868  32.836   9.906  0.4349  0.1292 -0.0989
 1050BOLB   C1C25193   6.824  32.318   9.719 -0.3005 -0.2383  0.1283
 1050BOLB   C2C25194   6.613  31.999   9.843  0.5658 -0.2299  0.0409
 1050BOLB   C3C25195   6.583  31.646   9.926 -0.2148 -0.4388 -0.1154
 1050BOLB   C4C25196   6.539  31.211   9.739 -0.0787 -0.3636 -0.1411
 1050BOLB   C1D25197   6.478  32.603  10.053 -0.0766  0.1753 -0.1075
 1050BOLB   C2D25198   6.403  32.217  10.243  0.1365  0.2426  0.1090
 1050BOLB   C3D25199   6.075  31.944  10.398  0.0113 -0.5174  0.1285
 1050BOLB   C4D25200   5.737  31.809  10.584 -0.0867 -0.2381  0.1369
 1051BOLB   NC125201   1.054   9.067  18.121 -0.0160  0.0991 -0.2240
 1051BOLB   PO125202   0.677   9.155  18.332 -0.1005  0.2741  0.2628
 1051BOLB   GL125203   0.737   9.415  17.908 -0.3194  0.1201  0.1678
 1051BOLB   GL225204   0.796   9.290  17.658 -0.1175  0.0797  0.1225
 1051BOLB   C1A25205   1.063   9.769  17.730  0.1537 -0.0381 -0.1593
 1051BOLB   C2A25206   1.198  10.114  17.553  0.2898 -0.1990 -0.1311
 1051BOLB   C3A25207   1.166  10.467  17.374  0.1731 -0.4149  0.1937
 1051BOLB   C4A25208   1.076  10.627  17.021 -0.1088 -0.2793 -0.1530
 1051BOLB   C1B25209   0.744   9.629  17.402 -0.0643 -0.4386 -0.4127
 1051BOLB   C2B25210   0.729  10.066  17.466  0.1723 -0.1045 -0.0551
 1051BOLB   C3B25211   0.470  10.352  17.189  0.0702 -0.1663  0.0263
 1051BOLB   C4B25212   0.150  10.666  17.089  0.0686  0.0841 -0.2840
 1051BOLB   NC225213   2.107   8.985  17.607 -0.0672 -0.3690 -0.0666
 1051BOLB   PO225214   2.223   9.057  17.221 -0.2724  0.0240  0.1793
 1051BOLB   GL325215   2.309   9.534  17.128  0.3554  0.2158 -0.1134
 1051BOLB   GL425216   2.533   9.409  16.907  0.1215  0.1977  0.0264
 1051BOLB   C1C25217   2.247   9.824  16.670 -0.5483 -0.2059  0.1733
 1051BOLB   C2C25218   2.159  10.183  16.624  0.0613 -0.1368 -0.2548
 1051BOLB   C3C25219   1.773  10.458  16.820 -0.0564  0.0587 -0.0460
 1051BOLB   C4C25220   1.414  10.882  16.872  0.1491 -0.2859  0.2143
 1051BOLB   C1D25221   2.563   9.229  16.555 -0.2931 -0.0119  0.1408
 1051BOLB   C2D25222   2.536   9.031  16.167  0.0623 -0.0136 -0.1589
 1051BOLB   C3D25223   2.675   9.272  15.740 -0.1029  0.0613  0.2962
 1051BOLB   C4D25224   2.673   9.624  15.386 -0.0252 -0.0767 -0.1773
 1052BOLB   NC125225   3.687   9.660   2.444 -0.4233 -0.0164 -0.1582
 1052BOLB   PO125226   3.535   9.286   2.486 -0.3866  0.0610 -0.0703
 1052BOLB   GL125227   3.308   9.604   2.739  0.1286  0.3533 -0.0424
 1052BOLB   GL225228   3.087   9.667   2.512 -0.2746  0.1810 -0.0843
 1052BOLB   C1A25229   2.960   9.673   3.118 -0.0898  0.0078 -0.0497
 1052BOLB   C2A25230   2.978   9.479   3.561 -0.2803 -0.3342  0.1622
 1052BOLB   C3A25231   3.062   9.469   4.017  0.0992  0.1865 -0.0280
 1052BOLB   C4A25232   3.198   9.295   4.356  0.1875 -0.1121 -0.2261
 1052BOLB   C1B25233   3.129  10.032   2.837 -0.0513  0.3189 -0.0406
 1052BOLB   C2B25234   3.021  10.241   3.127 -0.1479 -0.2128 -0.3084
 1052BOLB   C3B25235   2.734  10.405   3.249 -0.1041  0.0420 -0.1491
 1052BOLB   C4B25236   2.514  10.764   3.426 -0.0444  0.1292 -0.1040
 1052BOLB   NC225237   5.081   8.193   5.838 -0.2481 -0.0358 -0.3605
 1052BOLB   PO225238   4.790   8.532   5.642 -0.0467  0.5227  0.0401
 1052BOLB   GL325239   4.611   8.880   5.763 -0.0405  0.3988 -0.0767
 1052BOLB   GL425240   4.249   8.802   5.944  0.0821 -0.2252  0.0336
 1052BOLB   C1C25241   4.272   9.210   5.647 -0.0624 -0.1274  0.4675
 1052BOLB   C2C25242   4.094   9.201   5.306 -0.0125  0.3936  0.0782
 1052BOLB   C3C25243   3.822   9.445   4.970 -0.1170 -0.2410 -0.0090
 1052BOLB   C4C25244   3.500   9.325   4.773 -0.2285 -0.1774 -0.0174
 1052BOLB   C1D25245   3.806   8.976   5.797 -0.0153 -0.4313  0.0384
 1052BOLB   C2D25246   3.383   8.952   5.972 -0.2632  0.0377 -0.1755
 1052BOLB   C3D25247   3.264   8.838   6.373 -0.0213  0.1741  0.0054
 1052BOLB   C4D25248   3.449   8.999   6.856 -0.0127  0.0499  0.1061
 1053BOLB   NC125249  29.133  22.627  13.498 -0.1772 -0.0706 -0.1445
 1053BOLB   PO125250  29.546  22.303  13.701  0.1460 -0.1809 -0.2418
 1053BOLB   GL125251  30.026  22.357  13.596  0.3051  0.0664  0.0465
 1053BOLB   GL225252  30.182  22.355  13.950 -0.2402 -0.2343 -0.1730
 1053BOLB   C1A25253  30.490  22.348  13.475 -0.0254  0.0832  0.2255
 1053BOLB   C2A25254  30.883  22.351  13.320 -0.1389 -0.4093  0.0874
 1053BOLB   C3A25255  31.224  22.175  13.002 -0.1266  0.0891 -0.0538
 1053BOLB   C4A25256  31.102  21.881  12.798 -0.2327  0.1978  0.0941
 1053BOLB   C1B25257  30.320  21.874  13.794  0.5610 -0.0830  0.2802
 1053BOLB   C2B25258  30.664  21.599  13.957  0.0768 -0.2745  0.0206
 1053BOLB   C3B25259  31.150  21.626  13.990  0.1771 -0.5403 -0.0453
 1053BOLB   C4B25260  31.535  21.830  14.016  0.2577 -0.0266  0.0307
 1053BOLB   NC225261  29.166  21.597  13.348  0.0446 -0.1924 -0.1448
 1053BOLB   PO225262  29.415  21.815  13.721  0.2762 -0.1216 -0.0431
 1053BOLB   GL325263  29.624  21.844  13.316  0.1225  0.0754  0.1985
 1053BOLB   GL425264  29.497  21.602  13.008 -0.0454 -0.1003  0.1474
 1053BOLB   C1C25265  29.864  21.836  12.867  0.0449 -0.1432 -0.0561
 1053BOLB   C2C25266  30.113  21.665  12.521 -0.1142 -0.2309 -0.0932
 1053BOLB   C3C25267  30.511  21.751  12.383  0.2506 -0.1235  0.1564
 1053BOLB   C4C25268  30.749  21.740  12.717 -0.0348  0.1914 -0.0387
 1053BOLB   C1D25269  29.863  21.390  13.090 -0.1109 -0.2629  0.0355
 1053BOLB   C2D25270  29.945  20.955  13.164 -0.0729 -0.2122  0.1759
 1053BOLB   C3D25271  29.951  20.651  12.775  0.2743  0.1001 -0.0796
 1053BOLB   C4D25272  30.140  20.677  12.367 -0.0468  0.1344 -0.0274
 1054BOLB   NC125273  36.078  10.421  18.637  0.0446  0.0828 -0.1090
 1054BOLB   PO125274  36.211  10.793  18.889 -0.0862 -0.5607 -0.1384
 1054BOLB   GL125275  36.485  11.087  18.735 -0.0851  0.1677 -0.0993
 1054BOLB   GL225276  36.205  11.290  18.598 -0.1664  0.3445  0.0660
 1054BOLB   C1A25277  36.697  11.334  18.397 -0.0697  0.1251  0.1193
 1054BOLB   C2A25278  36.895  11.539  18.045 -0.1076 -0.0437 -0.2230
 1054BOLB   C3A25279  36.986  11.687  17.672  0.0746  0.0837 -0.1566
 1054BOLB   C4A25280  36.932  11.693  17.276  0.3278  0.1426  0.1621
 1054BOLB   C1B25281  36.180  11.633  18.525  0.0722 -0.0525 -0.3828
 1054BOLB   C2B25282  36.202  11.737  18.146 -0.0783 -0.4814  0.3058
 1054BOLB   C3B25283  36.528  11.838  17.738 -0.0031 -0.1931 -0.1177
 1054BOLB   C4B25284  36.736  12.210  17.561 -0.0811 -0.2680  0.2202
 1054BOLB   NC225285  36.219   9.452  17.153  0.1750 -0.0819 -0.0068
 1054BOLB   PO225286  35.820   9.740  17.057 -0.3653 -0.0739  0.2865
 1054BOLB   GL325287  36.091   9.994  16.702 -0.1734  0.3368  0.2694
 1054BOLB   GL425288  36.134   9.958  16.362 -0.1873  0.0488  0.1003
 1054BOLB   C1C25289  36.110  10.383  16.768  0.2168  0.1167  0.1764
 1054BOLB   C2C25290  36.379  10.632  16.970  0.3095 -0.0967 -0.1423
 1054BOLB   C3C25291  36.731  10.923  16.846  0.2794 -0.2662 -0.0006
 1054BOLB   C4C25292  36.792  11.276  17.098 -0.0652 -0.0742 -0.3099
 1054BOLB   C1D25293  36.331  10.344  16.266  0.0740 -0.1089  0.0733
 1054BOLB   C2D25294  36.576  10.619  16.053  0.0601  0.3587  0.1420
 1054BOLB   C3D25295  36.526  10.895  15.659  0.0488  0.0885  0.2022
 1054BOLB   C4D25296  36.152  11.217  15.426 -0.1152  0.1662  0.1948
 1055BOLB   NC125297   4.435  14.121  26.206  0.1630  0.2812  0.2628
 1055BOLB   PO125298   4.223  14.509  26.095  0.1886  0.3681  0.0597
 1055BOLB   GL125299   4.460  14.564  26.488  0.0929  0.2960  0.0817
 1055BOLB   GL225300   4.200  14.587  26.658 -0.1658 -0.0616 -0.0776
 1055BOLB   C1A25301   4.538  14.572  26.980 -0.2374 -0.2717  0.0906
 1055BOLB   C2A25302   4.814  14.661  27.346 -0.1734 -0.1539 -0.1686
 1055BOLB   C3A25303   5.058  14.742  27.685 -0.0253  0.0610 -0.0851
 1055BOLB   C4A25304   5.490  14.726  27.740 -0.1891  0.2108 -0.0209
 1055BOLB   C1B25305   4.232  15.046  26.905 -0.3738  0.3257  0.1834
 1055BOLB   C2B25306   4.302  15.443  27.054 -0.1364 -0.0337  0.0980
 1055BOLB   C3B25307   4.046  15.771  27.182 -0.2970 -0.0202  0.0911
 1055BOLB   C4B25308   4.089  16.014  27.590  0.2885  0.1634 -0.3592
 1055BOLB   NC225309   6.876  13.138  26.813 -0.0572  0.0883 -0.1460
 1055BOLB   PO225310   6.575  13.052  27.118  0.0160 -0.0491  0.0207
 1055BOLB   GL325311   6.764  13.404  27.202  0.1884 -0.0888  0.0452
 1055BOLB   GL425312   7.104  13.359  27.329 -0.0992 -0.0255  0.0446
 1055BOLB   C1C25313   6.685  13.847  27.258  0.1430  0.2437  0.1102
 1055BOLB   C2C25314   6.477  14.215  27.304 -0.0026  0.1780  0.2717
 1055BOLB   C3C25315   6.097  14.363  27.518 -0.3017 -0.1953  0.2015
 1055BOLB   C4C25316   5.775  14.653  27.434 -0.1066 -0.3462  0.3425
 1055BOLB   C1D25317   6.889  13.590  27.651  0.1071  0.2965  0.1533
 1055BOLB   C2D25318   7.185  13.803  28.040 -0.1454 -0.1040 -0.0496
 1055BOLB   C3D25319   7.369  14.082  28.341 -0.0775  0.0346  0.0374
 1055BOLB   C4D25320   7.203  14.408  28.627  0.0147  0.0636  0.0845
 1056BOLB   NC125321  33.269  19.252  19.764 -0.2938 -0.0576  0.0629
 1056BOLB   PO125322  32.832  19.107  19.621  0.0739 -0.4384  0.0101
 1056BOLB   GL125323  32.923  18.865  19.370 -0.0810 -0.0449 -0.0019
 1056BOLB   GL225324  33.261  18.811  19.552  0.0470  0.3391 -0.0519
 1056BOLB   C1A25325  32.978  18.446  19.440  0.1723  0.0091 -0.1469
 1056BOLB   C2A25326  33.145  18.115  19.279 -0.3270  0.2437  0.4033
 1056BOLB   C3A25327  33.405  17.951  18.959 -0.4525 -0.1713  0.0183
 1056BOLB   C4A25328  33.310  17.895  18.556 -0.1107 -0.3072 -0.0144
 1056BOLB   C1B25329  33.391  18.882  19.098 -0.0750  0.1804 -0.1361
 1056BOLB   C2B25330  33.451  18.937  18.533 -0.2662  0.2487 -0.2443
 1056BOLB   C3B25331  33.166  18.859  18.096  0.0927  0.1906  0.0582
 1056BOLB   C4B25332  32.817  18.972  17.787 -0.1935  0.1225 -0.1300
 1056BOLB   NC225333  31.024  18.477  18.856 -0.0429  0.0286  0.2513
 1056BOLB   PO225334  31.257  18.845  18.612 -0.1165  0.1634  0.1172
 1056BOLB   GL325335  31.650  18.846  18.564  0.1660  0.0966 -0.1236
 1056BOLB   GL425336  32.022  19.071  18.777 -0.3631 -0.0843  0.0767
 1056BOLB   C1C25337  32.105  18.733  18.398 -0.0011  0.2092  0.1857
 1056BOLB   C2C25338  32.508  18.866  18.165 -0.1688  0.0229  0.1616
 1056BOLB   C3C25339  32.827  18.494  18.101  0.3643 -0.1404  0.1445
 1056BOLB   C4C25340  33.128  18.239  18.286 -0.3516 -0.0594 -0.0184
 1056BOLB   C1D25341  32.464  19.165  18.565  0.1312 -0.0260 -0.0141
 1056BOLB   C2D25342  32.851  19.257  18.264  0.0845 -0.2332  0.0581
 1056BOLB   C3D25343  32.976  19.432  17.957 -0.1116  0.1192  0.0989
 1056BOLB   C4D25344  33.285  19.367  17.665  0.3005  0.0998 -0.1569
 1057BOLB   NC125345   8.011  14.065  26.217 -0.1544 -0.1493  0.1869
 1057BOLB   PO125346   8.025  14.386  26.306 -0.0208  0.1179 -0.1592
 1057BOLB   GL125347   7.917  14.756  26.546  0.1377  0.0950  0.1564
 1057BOLB   GL225348   8.186  14.960  26.496 -0.1954 -0.2208 -0.0443
 1057BOLB   C1A25349   7.878  14.772  27.029  0.0237 -0.1891  0.2199
 1057BOLB   C2A25350   7.868  14.704  27.494  0.2219 -0.3600  0.0559
 1057BOLB   C3A25351   8.247  14.464  27.724  0.2743  0.3815 -0.1842
 1057BOLB   C4A25352   8.552  14.305  28.012 -0.1166 -0.0621  0.1184
 1057BOLB   C1B25353   8.331  15.464  26.513  0.3678  0.3610  0.1197
 1057BOLB   C2B25354   8.215  15.754  26.844 -0.0133 -0.3037  0.0144
 1057BOLB   C3B25355   8.035  15.964  27.201  0.1586 -0.0052  0.0893
 1057BOLB   C4B25356   8.126  16.079  27.637 -0.1176 -0.0073 -0.2950
 1057BOLB   NC225357   8.414  11.926  28.186  0.0123  0.2297  0.0128
 1057BOLB   PO225358   8.756  12.129  27.832  0.2807 -0.3006 -0.3301
 1057BOLB   GL325359   8.676  12.393  28.157 -0.1132 -0.0530  0.2440
 1057BOLB   GL425360   8.716  12.242  28.467  0.3055 -0.0221  0.0101
 1057BOLB   C1C25361   8.492  12.769  28.432  0.1695  0.0640  0.0332
 1057BOLB   C2C25362   8.515  13.179  28.630  0.2871 -0.3774 -0.4080
 1057BOLB   C3C25363   8.441  13.656  28.588 -0.1038  0.1054 -0.1494
 1057BOLB   C4C25364   8.360  14.086  28.366  0.1518  0.0149  0.0701
 1057BOLB   C1D25365   8.665  12.545  28.805  0.2060  0.1968  0.0542
 1057BOLB   C2D25366   8.626  12.890  29.038  0.0747  0.1442  0.0691
 1057BOLB   C3D25367   8.627  13.187  29.417 -0.0205 -0.0966  0.0713
 1057BOLB   C4D25368   8.313  13.444  29.745 -0.0255  0.3848 -0.3159
 1058BOLB   NC125369   7.156  14.111   4.575 -0.2332 -0.0957  0.0413
 1058BOLB   PO125370   7.140  14.064   4.982  0.0095  0.2492  0.2132
 1058BOLB   GL125371   7.172  13.607   5.076 -0.0640 -0.0189  0.1956
 1058BOLB   GL225372   6.786  13.655   5.191 -0.1181 -0.2353 -0.0530
 1058BOLB   C1A25373   7.350  13.342   4.979  0.3295  0.2163 -0.1883
 1058BOLB   C2A25374   7.440  13.009   4.706 -0.1875 -0.0634  0.1647
 1058BOLB   C3A25375   7.541  12.723   4.308  0.0474 -0.1677 -0.2372
 1058BOLB   C4A25376   7.480  12.606   3.829 -0.0003  0.2802  0.5523
 1058BOLB   C1B25377   6.725  13.395   4.868 -0.0938 -0.1970 -0.1010
 1058BOLB   C2B25378   6.885  13.015   4.577 -0.3275 -0.3190  0.1552
 1058BOLB   C3B25379   6.884  12.653   4.284  0.1378 -0.0145 -0.0119
 1058BOLB   C4B25380   7.067  12.234   3.981 -0.0293  0.1113 -0.0816
 1058BOLB   NC225381   7.517  10.477   2.778 -0.0209  0.2320  0.1190
 1058BOLB   PO225382   7.906  10.583   2.582  0.1633  0.1957  0.0958
 1058BOLB   GL325383   7.627  10.932   2.802  0.0406  0.0150 -0.0510
 1058BOLB   GL425384   7.408  10.888   3.173  0.1822  0.1305  0.0060
 1058BOLB   C1C25385   7.494  11.371   2.987 -0.3021  0.3425  0.0688
 1058BOLB   C2C25386   7.545  11.730   3.282 -0.1154  0.0277  0.0153
 1058BOLB   C3C25387   7.577  12.189   3.217  0.0773  0.0852  0.0962
 1058BOLB   C4C25388   7.636  12.456   3.490 -0.7841  0.2197  0.0364
 1058BOLB   C1D25389   7.340  11.242   3.464 -0.1482 -0.2748  0.2535
 1058BOLB   C2D25390   6.934  11.569   3.398 -0.1121  0.0857  0.1310
 1058BOLB   C3D25391   6.543  11.435   3.383 -0.0876 -0.0026 -0.0351
 1058BOLB   C4D25392   6.455  11.513   2.894 -0.3033  0.0134 -0.0660
 1059BOLB   NC125393  16.208  26.114  17.736  0.1680  0.0341  0.1746
 1059BOLB   PO125394  15.895  25.804  17.584 -0.0398 -0.2315  0.0301
 1059BOLB   GL125395  15.587  25.493  17.554 -0.0672 -0.3083  0.0176
 1059BOLB   GL225396  15.597  25.129  17.544 -0.3743  0.1945  0.1768
 1059BOLB   C1A25397  15.358  25.447  17.193 -0.2208  0.1563 -0.0558
 1059BOLB   C2A25398  14.908  25.434  16.957  0.1065 -0.0055  0.3751
 1059BOLB   C3A25399  14.811  25.512  16.543  0.0574  0.0971 -0.0859
 1059BOLB   C4A25400  14.920  25.512  16.199  0.0090 -0.1031  0.2889
 1059BOLB   C1B25401  15.164  24.936  17.734 -0.2522 -0.2457  0.0620
 1059BOLB   C2B25402  14.786  24.765  17.616 -0.0861  0.0632  0.3855
 1059BOLB   C3B25403  14.411  24.482  17.632 -0.0751 -0.3279 -0.1890
 1059BOLB   C4B25404  14.044  24.457  17.517 -0.0104 -0.2805  0.5318
 1059BOLB   NC225405  17.369  25.559  16.113 -0.0012 -0.2240  0.3607
 1059BOLB   PO225406  17.027  25.796  15.789 -0.0349 -0.0898 -0.1198
 1059BOLB   GL325407  16.742  25.607  15.549 -0.0158 -0.1452  0.1371
 1059BOLB   GL425408  16.826  25.305  15.404 -0.4063 -0.1184 -0.1787
 1059BOLB   C1C25409  16.301  25.424  15.639  0.0177  0.0542  0.1832
 1059BOLB   C2C25410  16.013  25.145  15.615  0.0637 -0.0347  0.3908
 1059BOLB   C3C25411  15.571  25.139  15.831 -0.3342  0.1812 -0.2900
 1059BOLB   C4C25412  15.223  25.153  16.121 -0.2759  0.0099 -0.1360
 1059BOLB   C1D25413  16.462  25.383  15.174 -0.0110 -0.2996 -0.2037
 1059BOLB   C2D25414  16.312  25.716  14.916  0.1721  0.0033 -0.1349
 1059BOLB   C3D25415  16.217  26.165  14.824  0.3934 -0.0649  0.2199
 1059BOLB   C4D25416  15.785  26.295  14.572 -0.0840 -0.0998  0.1169
 1060BOLB   NC125417  12.822  20.708  15.738  0.0998  0.1639  0.1717
 1060BOLB   PO125418  12.951  21.132  15.852 -0.1144  0.1709  0.1459
 1060BOLB   GL125419  13.257  20.909  15.934  0.0703 -0.1958  0.1216
 1060BOLB   GL225420  13.148  20.975  16.285 -0.0536  0.1621 -0.0865
 1060BOLB   C1A25421  13.625  20.778  15.990  0.0239 -0.1385  0.2484
 1060BOLB   C2A25422  13.915  20.604  16.326 -0.3266  0.0843  0.1193
 1060BOLB   C3A25423  14.071  20.432  16.655 -0.0611  0.0277  0.2357
 1060BOLB   C4A25424  14.450  20.354  16.846  0.0185 -0.2057 -0.1880
 1060BOLB   C1B25425  13.545  21.266  16.394  0.2501 -0.0168  0.0409
 1060BOLB   C2B25426  13.890  21.597  16.369  0.2384  0.3964  0.2131
 1060BOLB   C3B25427  14.280  21.835  16.438 -0.1853  0.2104 -0.0233
 1060BOLB   C4B25428  14.636  21.725  16.179 -0.3600 -0.2194  0.0283
 1060BOLB   NC225429  15.731  20.294  18.760  0.0054 -0.1482  0.1547
 1060BOLB   PO225430  15.369  20.016  18.921  0.0281 -0.0141  0.2985
 1060BOLB   GL325431  15.135  19.757  18.616  0.4091  0.4785  0.1262
 1060BOLB   GL425432  15.250  19.402  18.589 -0.1214  0.1220 -0.0979
 1060BOLB   C1C25433  15.054  19.701  18.185 -0.3387  0.0633 -0.3136
 1060BOLB   C2C25434  14.765  19.710  17.770 -0.0223  0.0213 -0.0164
 1060BOLB   C3C25435  14.907  19.756  17.340  0.0406 -0.0878 -0.0419
 1060BOLB   C4C25436  14.574  19.944  17.068 -0.2376 -0.4288  0.0547
 1060BOLB   C1D25437  15.250  19.259  18.112 -0.0913  0.1066  0.1533
 1060BOLB   C2D25438  14.926  19.220  17.930 -0.0818 -0.0170 -0.3000
 1060BOLB   C3D25439  14.740  19.146  17.587 -0.1780 -0.1875  0.3298
 1060BOLB   C4D25440  14.566  19.400  17.240 -0.2091 -0.0719  0.2063
 1061BOLB   NC125441   4.363  11.375  17.921  0.0096  0.2256  0.3408
 1061BOLB   PO125442   4.304  11.663  17.653 -0.0223  0.1511  0.1278
 1061BOLB   GL125443   4.060  11.754  17.407 -0.0286  0.1582  0.1387
 1061BOLB   GL225444   4.063  11.470  17.156 -0.1316 -0.2834 -0.1571
 1061BOLB   C1A25445   3.813  11.909  17.104 -0.0786  0.2847 -0.1034
 1061BOLB   C2A25446   3.932  12.313  16.945 -0.1618 -0.0617  0.0344
 1061BOLB   C3A25447   3.914  12.752  16.983  0.2816 -0.0618 -0.0278
 1061BOLB   C4A25448   3.557  12.871  17.173  0.1656 -0.0620  0.1182
 1061BOLB   C1B25449   3.752  11.530  16.740  0.1291  0.1826 -0.2215
 1061BOLB   C2B25450   3.447  11.474  16.462  0.2031 -0.1849  0.0799
 1061BOLB   C3B25451   3.276  11.715  16.189  0.1947  0.1554  0.2293
 1061BOLB   C4B25452   3.310  11.886  15.739  0.1925  0.0164  0.0378
 1061BOLB   NC225453   3.349  12.463  19.314  0.1373 -0.0334 -0.0689
 1061BOLB   PO225454   3.452  12.676  18.948  0.2963  0.2001 -0.1205
 1061BOLB   GL325455   3.225  12.881  18.670 -0.2430  0.2505 -0.2048
 1061BOLB   GL425456   3.557  13.128  18.553  0.0038 -0.1320  0.1615
 1061BOLB   C1C25457   3.030  12.831  18.294 -0.0849 -0.4326  0.0202
 1061BOLB   C2C25458   2.822  12.907  17.959 -0.1194 -0.1127 -0.2202
 1061BOLB   C3C25459   2.867  13.036  17.559  0.0114  0.1042  0.1390
 1061BOLB   C4C25460   3.133  12.852  17.176 -0.4571 -0.0096  0.1009
 1061BOLB   C1D25461   3.408  13.330  18.092 -0.1675  0.1971 -0.1014
 1061BOLB   C2D25462   3.022  13.419  17.938  0.0815 -0.0619  0.1901
 1061BOLB   C3D25463   2.764  13.699  18.095 -0.4958  0.0471 -0.2245
 1061BOLB   C4D25464   2.398  13.730  18.276 -0.0723  0.0978 -0.2671
 1062BOLB   NC125465  32.654  24.373   2.362 -0.0665 -0.1319  0.2230
 1062BOLB   PO125466  33.002  24.418   2.741 -0.1648 -0.0097 -0.0085
 1062BOLB   GL125467  33.064  24.098   2.924  0.1072  0.0546  0.1357
 1062BOLB   GL225468  33.404  24.036   3.005 -0.1668 -0.1110  0.0756
 1062BOLB   C1A25469  33.071  23.968   3.342  0.3020 -0.0265  0.0223
 1062BOLB   C2A25470  33.443  23.800   3.632  0.0117 -0.2693  0.0753
 1062BOLB   C3A25471  33.670  23.491   3.914  0.0647 -0.0727 -0.1146
 1062BOLB   C4A25472  33.641  23.015   4.037 -0.4272 -0.0085  0.2204
 1062BOLB   C1B25473  33.636  23.801   3.189 -0.3063  0.0973  0.0306
 1062BOLB   C2B25474  33.827  23.463   3.381 -0.2685  0.2186  0.2218
 1062BOLB   C3B25475  34.122  23.318   3.715 -0.0701  0.0289 -0.1838
 1062BOLB   C4B25476  34.098  23.282   4.191 -0.0228  0.2424  0.1370
 1062BOLB   NC225477  32.059  23.121   2.746  0.1328 -0.0623 -0.1455
 1062BOLB   PO225478  31.736  23.191   2.952  0.2262 -0.1715  0.1101
 1062BOLB   GL325479  31.885  22.928   3.225  0.0328 -0.0321 -0.0693
 1062BOLB   GL425480  31.971  22.664   3.029 -0.0024  0.3186 -0.0643
 1062BOLB   C1C25481  32.165  22.963   3.499  0.2800  0.3976 -0.2391
 1062BOLB   C2C25482  32.455  22.886   3.790  0.0667 -0.1599  0.1959
 1062BOLB   C3C25483  32.758  22.947   4.006  0.2096 -0.0260 -0.0274
 1062BOLB   C4C25484  33.211  22.837   4.171 -0.0783  0.0051  0.0982
 1062BOLB   C1D25485  32.222  22.308   3.429 -0.0729  0.1497 -0.3395
 1062BOLB   C2D25486  32.486  22.132   3.803  0.0745  0.1121 -0.0369
 1062BOLB   C3D25487  32.695  22.396   4.188  0.0682  0.3022 -0.3883
 1062BOLB   C4D25488  32.777  22.648   4.430 -0.0975  0.2540  0.2915
 1063BOLB   NC125489   7.709  19.941  17.957 -0.4924 -0.1013 -0.0081
 1063BOLB   PO125490   8.099  19.974  18.074  0.0428  0.0602 -0.2959
 1063BOLB   GL125491   8.201  19.799  18.518  0.1893  0.1314  0.2989
 1063BOLB   GL225492   8.444  19.498  18.492 -0.1679 -0.1321 -0.2631
 1063BOLB   C1A25493   8.283  19.732  18.987  0.2032  0.1902  0.1776
 1063BOLB   C2A25494   8.437  19.729  19.378  0.1191 -0.1139  0.1308
 1063BOLB   C3A25495   8.507  19.530  19.761  0.2389  0.0664 -0.1552
 1063BOLB   C4A25496   8.818  19.622  20.043 -0.1392  0.1816 -0.2646
 1063BOLB   C1B25497   8.574  19.333  18.895 -0.2403  0.0022  0.3032
 1063BOLB   C2B25498   8.449  19.242  19.260 -0.1867  0.1892 -0.1580
 1063BOLB   C3B25499   8.712  18.854  19.380 -0.0313 -0.2335  0.0805
 1063BOLB   C4B25500   9.036  18.662  19.647 -0.0991 -0.0635 -0.2068
 1063BOLB   NC225501  10.299  19.666  22.201  0.0744 -0.1224  0.0488
 1063BOLB   PO225502  10.315  20.090  21.944  0.1034 -0.2801  0.1210
 1063BOLB   GL325503   9.973  20.069  21.644  0.0531  0.1451  0.0491
 1063BOLB   GL425504   9.868  20.285  21.440  0.0186  0.2300  0.0737
 1063BOLB   C1C25505   9.588  19.946  21.653 -0.1014  0.0396 -0.0698
 1063BOLB   C2C25506   9.326  19.992  21.277  0.0762  0.0438  0.1536
 1063BOLB   C3C25507   9.174  19.639  20.895 -0.0066 -0.2839  0.0258
 1063BOLB   C4C25508   8.935  19.575  20.507 -0.1364 -0.1411 -0.0753
 1063BOLB   C1D25509   9.626  20.447  21.065  0.4411 -0.0176  0.1096
 1063BOLB   C2D25510   9.139  20.382  20.994  0.2023  0.0525  0.0286
 1063BOLB   C3D25511   8.865  20.134  21.156  0.1054 -0.0685  0.0038
 1063BOLB   C4D25512   8.840  19.870  21.420  0.2134 -0.1444 -0.3585
 1064BOLB   NC125513   9.417  32.970  12.930  0.1926 -0.0851  0.1529
 1064BOLB   PO125514   9.589  32.499  12.901 -0.0108  0.0399 -0.0708
 1064BOLB   GL125515   9.411  32.132  12.930  0.2409  0.1286 -0.1811
 1064BOLB   GL225516   9.643  31.964  12.877 -0.0518  0.2520  0.0592
 1064BOLB   C1A25517   9.052  31.818  12.721  0.1773 -0.1834 -0.0398
 1064BOLB   C2A25518   8.789  31.509  12.552  0.4614 -0.0477 -0.0959
 1064BOLB   C3A25519   8.704  31.417  12.184 -0.3372 -0.1878 -0.0922
 1064BOLB   C4A25520   8.394  31.233  11.975 -0.2489  0.0691 -0.0600
 1064BOLB   C1B25521   9.470  31.588  12.832 -0.1803  0.0064  0.1749
 1064BOLB   C2B25522   9.274  31.237  12.606  0.2954  0.2421  0.1641
 1064BOLB   C3B25523   8.980  31.022  12.477 -0.1447  0.3003 -0.1700
 1064BOLB   C4B25524   8.598  30.844  12.402  0.0880  0.1668 -0.2537
 1064BOLB   NC225525   9.289  32.613  12.082  0.2261 -0.0690  0.2120
 1064BOLB   PO225526   9.695  32.631  11.823  0.1570 -0.1943  0.0200
 1064BOLB   GL325527   9.393  32.406  11.626 -0.2348 -0.0152 -0.0376
 1064BOLB   GL425528   9.545  32.071  11.481  0.1083  0.1531  0.1601
 1064BOLB   C1C25529   8.950  32.179  11.629 -0.2766 -0.1296 -0.0179
 1064BOLB   C2C25530   8.547  32.072  11.367 -0.1993 -0.0782 -0.0507
 1064BOLB   C3C25531   8.319  31.775  11.427  0.4033 -0.2029  0.1987
 1064BOLB   C4C25532   8.379  31.352  11.594  0.0671 -0.2073  0.0850
 1064BOLB   C1D25533   9.276  31.893  11.366  0.0777 -0.1344 -0.2232
 1064BOLB   C2D25534   9.259  31.541  11.605 -0.0432  0.1894 -0.0363
 1064BOLB   C3D25535   9.448  30.980  11.819 -0.0376  0.0149 -0.0317
 1064BOLB   C4D25536   9.263  30.741  12.167 -0.1160 -0.1280 -0.1083
 1065BOLB   NC125537  29.658  20.669  15.723  0.2001 -0.0426 -0.3203
 1065BOLB   PO125538  29.934  21.078  15.572  0.1246  0.0691 -0.3077
 1065BOLB   GL125539  30.298  21.200  15.762 -0.1631  0.4379  0.5396
 1065BOLB   GL225540  30.543  21.014  15.773 -0.0384  0.1191  0.1239
 1065BOLB   C1A25541  30.551  21.503  15.566  0.1968 -0.0979 -0.0717
 1065BOLB   C2A25542  30.890  21.603  15.387 -0.0655  0.1727 -0.1463
 1065BOLB   C3A25543  31.254  21.313  15.173  0.0302 -0.3014 -0.0649
 1065BOLB   C4A25544  31.321  21.148  14.845 -0.3191 -0.0227  0.0098
 1065BOLB   C1B25545  30.923  21.223  15.734 -0.0507  0.0026  0.0842
 1065BOLB   C2B25546  31.186  21.028  15.794 -0.1424 -0.2634 -0.0557
 1065BOLB   C3B25547  31.546  20.741  15.784 -0.0420 -0.1078  0.2367
 1065BOLB   C4B25548  31.381  20.394  15.976 -0.1523 -0.3994 -0.2363
 1065BOLB   NC225549  29.424  21.669  14.154 -0.0463 -0.0714 -0.0211
 1065BOLB   PO225550  29.525  21.384  14.597  0.2203  0.0136 -0.2300
 1065BOLB   GL325551  29.803  21.319  14.370 -0.0182 -0.0229  0.0089
 1065BOLB   GL425552  29.698  21.053  14.113 -0.2689 -0.2805 -0.3477
 1065BOLB   C1C25553  30.134  21.588  14.370  0.0482 -0.0515  0.2461
 1065BOLB   C2C25554  30.559  21.561  14.446 -0.0240 -0.0457 -0.0791
 1065BOLB   C3C25555  30.798  21.313  14.339 -0.0095 -0.3340  0.3406
 1065BOLB   C4C25556  31.216  21.126  14.420  0.1110 -0.2637 -0.1151
 1065BOLB   C1D25557  30.151  21.245  13.990 -0.1030 -0.0592  0.0389
 1065BOLB   C2D25558  30.214  21.269  13.572  0.0264 -0.0666 -0.0448
 1065BOLB   C3D25559  30.616  21.495  13.367 -0.1916 -0.1719  0.1268
 1065BOLB   C4D25560  30.868  21.790  13.195  0.2823  0.2140  0.0176
 1066BOLB   NC125561   8.395  21.573   2.798  0.0630  0.1205  0.2028
 1066BOLB   PO125562   8.309  21.635   2.422 -0.2238  0.0938 -0.1935
 1066BOLB   GL125563   8.401  21.730   2.078  0.4610  0.0247  0.1429
 1066BOLB   GL225564   8.636  21.479   1.988 -0.1098 -0.0160  0.3060
 1066BOLB   C1A25565   8.532  21.941   1.680 -0.3372 -0.1921 -0.0555
 1066BOLB   C2A25566   8.687  22.196   1.364  0.1236 -0.0396 -0.3053
 1066BOLB   C3A25567   8.521  22.254   0.947  0.0982 -0.0301  0.0877
 1066BOLB   C4A25568   8.314  22.398   0.581  0.2276 -0.0823  0.1763
 1066BOLB   C1B25569   8.886  21.552   1.575  0.1964 -0.0655 -0.3479
 1066BOLB   C2B25570   8.791  21.704   1.200  0.2120 -0.3660  0.0710
 1066BOLB   C3B25571   8.782  21.789   0.786  0.2005  0.0926 -0.0012
 1066BOLB   C4B25572   8.736  21.822   0.492  0.1672 -0.0204 -0.0087
 1066BOLB   NC225573   8.879  23.733  -1.276 -0.1958  0.0343 -0.2692
 1066BOLB   PO225574   8.666  24.170  -1.350  0.1031  0.1255 -0.1868
 1066BOLB   GL325575   8.676  24.011  -0.889  0.0442  0.0409  0.3225
 1066BOLB   GL425576   8.454  24.203  -0.689  0.2226 -0.3912  0.0019
 1066BOLB   C1C25577   8.552  23.738  -0.570  0.0513 -0.0687 -0.0361
 1066BOLB   C2C25578   8.473  23.332  -0.383  0.1362 -0.0352  0.0965
 1066BOLB   C3C25579   8.195  22.910  -0.269 -0.1482  0.1712 -0.1851
 1066BOLB   C4C25580   8.266  22.549   0.096  0.1058 -0.1621 -0.0201
 1066BOLB   C1D25581   8.690  24.166  -0.354  0.0667 -0.0220  0.1678
 1066BOLB   C2D25582   9.009  24.126  -0.069 -0.3334  0.1667 -0.1484
 1066BOLB   C3D25583   9.327  23.814  -0.018 -0.0263 -0.3714  0.3583
 1066BOLB   C4D25584   9.372  23.502  -0.119 -0.0190  0.3682  0.0079
 1067BOLB   NC125585   1.858   6.406  11.382 -0.1705 -0.1321  0.3831
 1067BOLB   PO125586   1.618   6.163  11.617  0.0527 -0.0958 -0.0628
 1067BOLB   GL125587   1.634   6.517  11.843  0.1435 -0.0131  0.0231
 1067BOLB   GL225588   1.932   6.654  11.949  0.5727 -0.7588 -0.0834
 1067BOLB   C1A25589   1.500   6.856  12.044  0.0669 -0.0378  0.0236
 1067BOLB   C2A25590   1.202   7.069  11.915  0.0341 -0.0018 -0.0528
 1067BOLB   C3A25591   0.877   7.522  11.998 -0.1563 -0.1749  0.4140
 1067BOLB   C4A25592   0.383   7.660  11.942 -0.1031  0.0068  0.2915
 1067BOLB   C1B25593   1.811   7.130  11.818 -0.1982  0.0475  0.4338
 1067BOLB   C2B25594   1.904   7.522  11.750 -0.2838  0.3658  0.1544
 1067BOLB   C3B25595   1.826   7.973  11.878  0.1062 -0.2618  0.0183
 1067BOLB   C4B25596   1.588   8.344  11.907 -0.1547 -0.2768 -0.1267
 1067BOLB   NC225597  -1.509   6.513  11.891  0.2500 -0.0373 -0.0301
 1067BOLB   PO225598  -1.436   6.764  11.555  0.1300 -0.1622  0.0923
 1067BOLB   GL325599  -1.128   7.068  11.372 -0.0094  0.1568  0.1392
 1067BOLB   GL425600  -0.739   7.114  11.446 -0.0471 -0.0509 -0.1354
 1067BOLB   C1C25601  -1.148   7.495  11.456 -0.1536 -0.0284 -0.1613
 1067BOLB   C2C25602  -0.734   7.723  11.711  0.3707  0.1503 -0.0557
 1067BOLB   C3C25603  -0.292   7.877  11.857  0.0161  0.0059  0.1764
 1067BOLB   C4C25604  -0.006   7.590  11.989 -0.0572 -0.0045  0.1459
 1067BOLB   C1D25605  -0.760   7.390  11.182  0.3258  0.4332 -0.1198
 1067BOLB   C2D25606  -0.816   7.886  11.183 -0.2080  0.1298  0.0048
 1067BOLB   C3D25607  -0.746   8.366  11.036  0.1060 -0.0923  0.4250
 1067BOLB   C4D25608  -0.959   8.749  10.886 -0.0782 -0.1937 -0.0735
 1068BOLB   NC125609  29.836  20.726   6.262  0.0507  0.0281  0.0868
 1068BOLB   PO125610  29.706  21.222   6.252  0.1322  0.1235  0.3978
 1068BOLB   GL125611  30.033  21.049   6.551 -0.1656 -0.1291  0.2981
 1068BOLB   GL225612  30.333  21.131   6.332 -0.3576  0.0753 -0.0519
 1068BOLB   C1A25613  30.146  20.954   6.947 -0.2932  0.2299  0.1587
 1068BOLB   C2A25614  30.116  20.965   7.466 -0.3413  0.2449  0.3723
 1068BOLB   C3A25615  30.096  20.839   7.839  0.3047 -0.0859  0.1948
 1068BOLB   C4A25616  30.182  20.446   7.920  0.0526 -0.0722  0.1970
 1068BOLB   C1B25617  30.643  21.464   6.380  0.2199 -0.0092  0.1626
 1068BOLB   C2B25618  30.515  21.800   6.362  0.3663 -0.0127  0.2086
 1068BOLB   C3B25619  30.469  22.138   6.573  0.1257 -0.2714  0.0026
 1068BOLB   C4B25620  30.599  22.419   6.813 -0.4874 -0.1830 -0.2538
 1068BOLB   NC225621  28.639  20.035   8.558  0.0533 -0.5835  0.2628
 1068BOLB   PO225622  28.834  19.630   8.249 -0.1990  0.0632  0.1561
 1068BOLB   GL325623  29.319  19.556   8.480 -0.2146  0.1275  0.1369
 1068BOLB   GL425624  29.536  19.831   8.578 -0.0920  0.1673 -0.1095
 1068BOLB   C1C25625  29.718  19.428   8.424 -0.0219  0.0831 -0.1612
 1068BOLB   C2C25626  30.130  19.396   8.183 -0.0281  0.2843 -0.3806
 1068BOLB   C3C25627  30.374  19.587   7.955 -0.0845  0.1377  0.0842
 1068BOLB   C4C25628  30.314  20.022   7.821  0.1933  0.2346 -0.1994
 1068BOLB   C1D25629  29.601  20.032   8.893 -0.2568 -0.3334  0.2734
 1068BOLB   C2D25630  29.754  19.926   9.331  0.0350  0.0669 -0.0298
 1068BOLB   C3D25631  30.045  19.647   9.503 -0.1137  0.0592 -0.1623
 1068BOLB   C4D25632  30.310  19.316   9.453 -0.2746  0.4938 -0.2228
 1069BOLB   NC125633  36.895   6.809  11.040  0.2570  0.3645 -0.0078
 1069BOLB   PO125634  36.952   7.003  10.674 -0.0954  0.1202 -0.1669
 1069BOLB   GL125635  37.303   7.247  10.866  0.2111 -0.0017 -0.0521
 1069BOLB   GL225636  37.621   7.295  10.687 -0.2161 -0.1276  0.2017
 1069BOLB   C1A25637  37.245   7.607  10.892  0.2408 -0.0043 -0.2328
 1069BOLB   C2A25638  37.305   7.996  10.682 -0.0478 -0.0981  0.3197
 1069BOLB   C3A25639  37.295   8.402  10.582  0.3211  0.2443  0.1539
 1069BOLB   C4A25640  36.907   8.708  10.667 -0.0886  0.0121  0.0768
 1069BOLB   C1B25641  37.640   7.656  10.542 -0.1752  0.2091 -0.1865
 1069BOLB   C2B25642  37.794   8.057  10.674 -0.1544 -0.0469  0.1967
 1069BOLB   C3B25643  38.105   8.357  10.804 -0.3201 -0.1393  0.3072
 1069BOLB   C4B25644  38.503   8.370  10.743 -0.1033  0.0844  0.2784
 1069BOLB   NC225645  35.842   7.413  11.083 -0.1960  0.0503  0.3594
 1069BOLB   PO225646  36.051   7.756  11.407  0.1175  0.1353 -0.1733
 1069BOLB   GL325647  36.029   8.157  11.624  0.2432  0.3056  0.0839
 1069BOLB   GL425648  35.730   8.228  11.621  0.2161 -0.2538  0.1666
 1069BOLB   C1C25649  36.288   8.428  11.637  0.0668 -0.1404 -0.0421
 1069BOLB   C2C25650  36.294   8.746  11.357 -0.4834 -0.1059 -0.1772
 1069BOLB   C3C25651  36.500   9.152  11.245 -0.5091 -0.2021 -0.3058
 1069BOLB   C4C25652  36.634   8.961  10.853 -0.3159 -0.2435 -0.1626
 1069BOLB   C1D25653  35.834   8.372  11.211  0.3222 -0.2509  0.0470
 1069BOLB   C2D25654  36.153   8.517  10.932  0.0348 -0.0439 -0.1013
 1069BOLB   C3D25655  36.481   8.392  10.639  0.0140  0.0225  0.0927
 1069BOLB   C4D25656  36.797   8.249  10.847 -0.1042  0.2435  0.0240
 1070BOLB   NC125657   1.771  19.239  17.132  0.0686 -0.0373  0.0637
 1070BOLB   PO125658   2.112  19.385  17.528 -0.0296 -0.1666  0.2845
 1070BOLB   GL125659   1.726  19.279  17.658 -0.2340  0.0543  0.0313
 1070BOLB   GL225660   1.833  19.148  17.885  0.0136 -0.0274 -0.0938
 1070BOLB   C1A25661   1.427  19.401  17.996 -0.0447  0.1629 -0.0169
 1070BOLB   C2A25662   1.332  19.634  18.300 -0.0158 -0.4007 -0.0533
 1070BOLB   C3A25663   0.945  19.795  18.572  0.0541  0.3302 -0.0631
 1070BOLB   C4A25664   0.864  20.019  18.969 -0.1470  0.1601  0.0340
 1070BOLB   C1B25665   1.645  19.120  18.386  0.1684 -0.0289 -0.0030
 1070BOLB   C2B25666   1.372  19.280  18.779 -0.0071 -0.3078  0.2045
 1070BOLB   C3B25667   0.999  19.497  19.013  0.0993 -0.0170  0.1919
 1070BOLB   C4B25668   0.633  19.371  19.114 -0.1985  0.1966  0.0461
 1070BOLB   NC225669  -0.075  21.367  21.040 -0.1191  0.1737  0.0356
 1070BOLB   PO225670   0.007  21.638  20.670 -0.2627  0.0168 -0.0432
 1070BOLB   GL325671   0.084  21.561  20.237  0.0500  0.0885  0.1683
 1070BOLB   GL425672  -0.050  21.972  20.093  0.2472 -0.0002 -0.0698
 1070BOLB   C1C25673   0.309  21.290  19.858  0.0663  0.0272  0.2006
 1070BOLB   C2C25674   0.483  21.135  19.477 -0.1683  0.0234 -0.1160
 1070BOLB   C3C25675   0.619  20.762  19.399  0.2560 -0.1440  0.1557
 1070BOLB   C4C25676   0.730  20.344  19.142  0.0381  0.0901 -0.1110
 1070BOLB   C1D25677   0.196  21.881  19.677  0.0429  0.2363  0.2123
 1070BOLB   C2D25678   0.366  21.652  19.361  0.1167  0.2641 -0.2827
 1070BOLB   C3D25679   0.731  21.523  19.239  0.2032 -0.0084  0.2498
 1070BOLB   C4D25680   0.824  21.166  19.112  0.0530  0.0779 -0.3327
 1071BOLB   NC125681  11.783  26.854  12.900 -0.0602  0.5875 -0.0410
 1071BOLB   PO125682  11.914  27.089  12.541  0.0194 -0.2327  0.0644
 1071BOLB   GL125683  12.223  27.391  12.577 -0.2155 -0.1284  0.0918
 1071BOLB   GL225684  12.288  27.577  12.298  0.0487  0.0069  0.0147
 1071BOLB   C1A25685  12.269  27.731  12.780 -0.0334 -0.2773  0.0051
 1071BOLB   C2A25686  12.526  27.819  13.157  0.2064 -0.0160 -0.1962
 1071BOLB   C3A25687  12.815  27.856  13.544 -0.1627 -0.0918 -0.0904
 1071BOLB   C4A25688  13.257  28.014  13.663 -0.1069 -0.1295 -0.1155
 1071BOLB   C1B25689  12.655  27.835  12.404 -0.0584 -0.1500 -0.2284
 1071BOLB   C2B25690  12.932  28.261  12.566  0.0207 -0.2163 -0.2671
 1071BOLB   C3B25691  13.104  28.657  12.643 -0.0702  0.1034 -0.0248
 1071BOLB   C4B25692  13.309  28.997  12.851 -0.0686  0.1166  0.0929
 1071BOLB   NC225693  14.850  29.362  15.285 -0.1267 -0.1368  0.0655
 1071BOLB   PO225694  14.694  29.167  15.000  0.0197  0.0191 -0.2393
 1071BOLB   GL325695  14.289  28.961  15.033 -0.1923  0.0675 -0.5036
 1071BOLB   GL425696  14.264  29.150  14.662 -0.0197  0.1982  0.2024
 1071BOLB   C1C25697  14.030  28.727  14.956  0.0512  0.1072  0.0963
 1071BOLB   C2C25698  13.767  28.549  14.806  0.0018 -0.0024  0.3158
 1071BOLB   C3C25699  13.507  28.168  14.533 -0.5573 -0.2066  0.4317
 1071BOLB   C4C25700  13.534  27.958  14.138  0.1990  0.0513 -0.4591
 1071BOLB   C1D25701  14.153  28.713  14.502 -0.2374 -0.1796 -0.1451
 1071BOLB   C2D25702  14.187  28.455  14.150  0.0035 -0.1968  0.2320
 1071BOLB   C3D25703  14.120  28.212  13.829  0.1821  0.0457  0.0463
 1071BOLB   C4D25704  13.798  27.909  13.686  0.0241  0.2387 -0.2467
 1072BOLB   NC125705   9.596  23.890  17.663  0.1646 -0.0634 -0.2002
 1072BOLB   PO125706   9.294  23.854  18.103 -0.0148 -0.0057  0.1659
 1072BOLB   GL125707   9.459  23.992  18.430 -0.1475  0.0946 -0.1760
 1072BOLB   GL225708   9.703  23.804  18.590  0.0618  0.1444  0.1977
 1072BOLB   C1A25709   9.499  24.218  18.813 -0.0951  0.4618  0.2157
 1072BOLB   C2A25710   9.694  24.315  19.138  0.1317 -0.0342 -0.0059
 1072BOLB   C3A25711   9.836  24.691  19.331 -0.1427 -0.2520 -0.0552
 1072BOLB   C4A25712  10.063  25.049  19.298  0.1580 -0.3470 -0.1723
 1072BOLB   C1B25713  10.081  23.687  18.930 -0.2450  0.1738 -0.1917
 1072BOLB   C2B25714  10.280  23.589  19.331 -0.2239  0.0728  0.1465
 1072BOLB   C3B25715  10.593  23.452  19.673  0.0779 -0.0416  0.0015
 1072BOLB   C4B25716  10.986  23.287  19.703  0.0361  0.1736  0.1633
 1072BOLB   NC225717   9.692  26.463  21.697  0.0193 -0.1870  0.2297
 1072BOLB   PO225718  10.066  26.594  21.332  0.1492  0.0406 -0.0559
 1072BOLB   GL325719  10.161  26.430  20.987 -0.1884 -0.0741 -0.2173
 1072BOLB   GL425720  10.148  26.145  20.979  0.0601  0.5239 -0.2065
 1072BOLB   C1C25721  10.343  26.259  20.455 -0.1912  0.2273  0.2148
 1072BOLB   C2C25722  10.395  25.822  20.283 -0.1235  0.0988  0.0350
 1072BOLB   C3C25723  10.097  25.576  20.014 -0.0420  0.0707 -0.1092
 1072BOLB   C4C25724  10.001  25.392  19.661 -0.1038  0.2775  0.3474
 1072BOLB   C1D25725   9.980  25.954  20.625  0.0515  0.0265 -0.2996
 1072BOLB   C2D25726   9.769  25.851  20.224  0.3820 -0.4060  0.1426
 1072BOLB   C3D25727   9.705  25.870  19.699 -0.3663 -0.0762  0.2276
 1072BOLB   C4D25728   9.548  25.593  19.426  0.0947  0.0523 -0.2010
 1073BOLB   NC125729   8.100  28.162  14.077  0.3402  0.1054  0.3581
 1073BOLB   PO125730   7.743  28.358  14.351 -0.3881  0.0619 -0.2656
 1073BOLB   GL125731   7.757  28.781  14.468 -0.0428  0.0511 -0.0977
 1073BOLB   GL225732   8.042  29.020  14.402  0.2142  0.2461  0.1951
 1073BOLB   C1A25733   7.435  29.171  14.604 -0.1668 -0.3531 -0.2118
 1073BOLB   C2A25734   7.163  29.465  14.714  0.2580  0.0325  0.1636
 1073BOLB   C3A25735   6.950  29.813  14.755 -0.2916 -0.1317  0.0255
 1073BOLB   C4A25736   6.908  30.218  14.396  0.0517 -0.0558 -0.1402
 1073BOLB   C1B25737   8.103  29.418  14.161 -0.0051 -0.0637  0.2316
 1073BOLB   C2B25738   8.142  29.807  13.872  0.3122  0.0394  0.0314
 1073BOLB   C3B25739   8.014  30.219  13.607  0.0419 -0.0584  0.0216
 1073BOLB   C4B25740   7.503  30.259  13.542  0.2326 -0.1755 -0.0238
 1073BOLB   NC225741   6.859  32.770  15.381 -0.2564 -0.1124  0.0019
 1073BOLB   PO225742   7.005  32.532  14.943  0.2242  0.1257 -0.0029
 1073BOLB   GL325743   6.997  32.264  14.573 -0.0694 -0.4447  0.5291
 1073BOLB   GL425744   6.753  32.130  14.381  0.0349 -0.1176  0.3184
 1073BOLB   C1C25745   7.202  31.919  14.423 -0.1038 -0.0484  0.1127
 1073BOLB   C2C25746   7.257  31.449  14.339 -0.0190  0.2540  0.1370
 1073BOLB   C3C25747   7.029  31.061  14.255 -0.0424  0.1282 -0.1580
 1073BOLB   C4C25748   6.910  30.615  14.297  0.2366  0.1211 -0.1956
 1073BOLB   C1D25749   6.829  31.735  14.236  0.1078 -0.0019  0.1013
 1073BOLB   C2D25750   6.816  31.405  13.987  0.2467 -0.0244 -0.0055
 1073BOLB   C3D25751   6.655  30.989  13.921 -0.3408 -0.1251 -0.0993
 1073BOLB   C4D25752   6.339  30.880  13.571 -0.0834  0.0728 -0.0880
 1074BOLB   NC125753  12.543  18.040  20.721 -0.3307 -0.0726  0.1555
 1074BOLB   PO125754  12.735  18.353  20.975  0.0885 -0.0891 -0.1381
 1074BOLB   GL125755  12.477  18.599  20.655  0.1236 -0.1084 -0.0049
 1074BOLB   GL225756  12.237  18.833  20.719 -0.0951  0.2361  0.1032
 1074BOLB   C1A25757  12.315  18.547  20.262 -0.0831  0.0652 -0.0261
 1074BOLB   C2A25758  11.940  18.496  20.044 -0.0282 -0.0390 -0.2500
 1074BOLB   C3A25759  11.740  18.689  19.674  0.1172 -0.0514  0.0565
 1074BOLB   C4A25760  12.057  18.919  19.300  0.2316 -0.1055 -0.2418
 1074BOLB   C1B25761  12.277  19.153  20.481 -0.0430 -0.1248 -0.0429
 1074BOLB   C2B25762  12.187  19.491  20.200  0.3340  0.1561  0.2758
 1074BOLB   C3B25763  12.120  19.618  19.857 -0.1798  0.3010  0.4442
 1074BOLB   C4B25764  11.885  19.907  19.704  0.0505  0.0900  0.0973
 1074BOLB   NC225765  14.223  17.132  19.947  0.1780 -0.0049  0.1560
 1074BOLB   PO225766  13.849  17.457  19.961 -0.0695  0.0074  0.1052
 1074BOLB   GL325767  13.519  17.778  19.825 -0.2429 -0.1624  0.1007
 1074BOLB   GL425768  13.628  17.957  19.668  0.0457  0.0691  0.0157
 1074BOLB   C1C25769  13.139  18.214  19.741 -0.3167  0.0930  0.1146
 1074BOLB   C2C25770  13.069  18.628  19.591  0.1012 -0.1081 -0.2745
 1074BOLB   C3C25771  12.768  18.902  19.464 -0.5039  0.1094 -0.1965
 1074BOLB   C4C25772  12.498  18.900  19.183  0.0877  0.0928  0.3963
 1074BOLB   C1D25773  13.418  18.229  19.291  0.3420 -0.3116 -0.1997
 1074BOLB   C2D25774  13.135  18.532  19.023  0.0288 -0.5717 -0.3367
 1074BOLB   C3D25775  12.951  18.914  19.044  0.0347 -0.0183  0.0650
 1074BOLB   C4D25776  12.736  19.061  18.789 -0.1838 -0.1323 -0.0914
 1075BOLB   NC125777  34.015  23.739  17.274 -0.3860 -0.0995  0.0730
 1075BOLB   PO125778  34.218  23.453  17.590 -0.0896  0.0558 -0.0228
 1075BOLB   GL125779  34.351  23.380  17.106 -0.1706 -0.0715  0.1765
 1075BOLB   GL225780  34.677  23.305  16.978  0.3104  0.0461  0.2496
 1075BOLB   C1A25781  34.368  23.204  16.582 -0.3749  0.2055  0.0134
 1075BOLB   C2A25782  34.498  22.803  16.502 -0.0072 -0.1920  0.3839
 1075BOLB   C3A25783  34.582  22.526  16.195  0.0924  0.1889  0.1463
 1075BOLB   C4A25784  34.460  22.099  16.228  0.0201 -0.0630  0.1792
 1075BOLB   C1B25785  34.942  23.190  16.646  0.1367 -0.0134 -0.3239
 1075BOLB   C2B25786  35.023  22.809  16.472 -0.1393  0.0830 -0.0691
 1075BOLB   C3B25787  35.120  22.374  16.319  0.4154 -0.1402 -0.0541
 1075BOLB   C4B25788  34.916  22.017  15.949  0.0429  0.1461  0.3188
 1075BOLB   NC225789  33.387  22.299  18.175 -0.3024 -0.2616 -0.1231
 1075BOLB   PO225790  33.762  22.218  18.470  0.0653 -0.1527  0.0326
 1075BOLB   GL325791  33.945  22.210  18.054  0.0137  0.2131  0.0253
 1075BOLB   GL425792  33.634  21.960  17.868  0.0084  0.0619 -0.2149
 1075BOLB   C1C25793  34.160  22.326  17.610  0.0333  0.1618 -0.2180
 1075BOLB   C2C25794  33.951  22.326  17.233  0.2485 -0.1628  0.0818
 1075BOLB   C3C25795  34.191  22.197  16.796 -0.1217 -0.2476  0.0826
 1075BOLB   C4C25796  34.272  21.997  16.458  0.0942 -0.1805  0.0070
 1075BOLB   C1D25797  33.775  21.961  17.525 -0.0161 -0.0894  0.1733
 1075BOLB   C2D25798  34.190  21.847  17.300 -0.0047 -0.2913 -0.2800
 1075BOLB   C3D25799  34.289  21.485  17.071 -0.1907  0.1461 -0.3718
 1075BOLB   C4D25800  34.467  21.048  17.271  0.1597 -0.0199 -0.2321
 1076BOLB   NC125801   4.263  14.839   5.299  0.1891  0.0928 -0.0378
 1076BOLB   PO125802   4.623  14.406   5.378 -0.0332  0.1500 -0.3373
 1076BOLB   GL125803   4.434  14.220   5.081  0.1622  0.1173 -0.1726
 1076BOLB   GL225804   4.137  14.256   5.121 -0.1458  0.1882 -0.6161
 1076BOLB   C1A25805   4.405  13.825   4.962  0.0795  0.1312 -0.0624
 1076BOLB   C2A25806   4.535  13.395   4.768 -0.1140 -0.1270 -0.0042
 1076BOLB   C3A25807   4.784  13.293   4.309 -0.1234 -0.3705 -0.0485
 1076BOLB   C4A25808   4.777  13.090   3.982  0.0191 -0.0431  0.3441
 1076BOLB   C1B25809   3.938  13.898   4.925  0.0450 -0.0974  0.1166
 1076BOLB   C2B25810   4.069  13.630   4.621  0.3082 -0.0444  0.0347
 1076BOLB   C3B25811   4.262  13.259   4.350 -0.0084 -0.0968 -0.1353
 1076BOLB   C4B25812   4.452  12.822   4.402  0.0447 -0.0788 -0.1689
 1076BOLB   NC225813   4.414  11.464   1.784  0.1373 -0.0907 -0.4281
 1076BOLB   PO225814   4.328  11.411   2.176  0.1186 -0.0242  0.5225
 1076BOLB   GL325815   4.411  11.599   2.529 -0.1162  0.0821  0.0869
 1076BOLB   GL425816   4.158  11.512   2.736  0.2217 -0.2107 -0.0847
 1076BOLB   C1C25817   4.483  11.929   2.910 -0.1323 -0.1251  0.1116
 1076BOLB   C2C25818   4.675  12.205   3.201 -0.1860  0.1637  0.1990
 1076BOLB   C3C25819   4.554  12.503   3.433 -0.1576 -0.1188 -0.1656
 1076BOLB   C4C25820   4.700  12.824   3.609  0.2095  0.3923 -0.3072
 1076BOLB   C1D25821   3.975  11.885   2.986 -0.0519 -0.0034 -0.3815
 1076BOLB   C2D25822   3.851  12.224   3.225  0.2384 -0.3433 -0.3372
 1076BOLB   C3D25823   3.638  12.519   3.096 -0.0188  0.2313 -0.2241
 1076BOLB   C4D25824   3.748  13.015   2.981  0.0444 -0.0717  0.1277
 1077BOLB   NC125825  11.368  24.060  16.160 -0.1587  0.2731  0.0947
 1077BOLB   PO125826  11.314  24.418  16.620  0.1033  0.0172 -0.3024
 1077BOLB   GL125827  11.658  24.483  16.792  0.1282  0.0264  0.1257
 1077BOLB   GL225828  11.850  24.312  16.814  0.1226  0.3622  0.1335
 1077BOLB   C1A25829  11.934  24.809  16.927  0.1812 -0.3114 -0.1073
 1077BOLB   C2A25830  12.275  24.935  16.981 -0.1690 -0.1825  0.0658
 1077BOLB   C3A25831  12.707  25.081  17.136 -0.0542  0.0175 -0.2475
 1077BOLB   C4A25832  12.986  24.781  17.322  0.0156 -0.1482 -0.1515
 1077BOLB   C1B25833  12.334  24.432  16.864 -0.3018 -0.1464  0.0319
 1077BOLB   C2B25834  12.556  24.388  17.196  0.0329 -0.3276  0.3859
 1077BOLB   C3B25835  12.426  24.588  17.639 -0.1381 -0.3269  0.1251
 1077BOLB   C4B25836  12.360  24.668  18.054 -0.0452  0.0127 -0.2162
 1077BOLB   NC225837  14.072  25.583  19.691  0.1804  0.4235  0.0062
 1077BOLB   PO225838  14.181  25.873  19.434 -0.2872  0.1236 -0.1591
 1077BOLB   GL325839  13.993  25.634  19.109 -0.5550 -0.0559  0.1776
 1077BOLB   GL425840  14.041  25.661  18.722  0.3920 -0.3639  0.0662
 1077BOLB   C1C25841  13.630  25.433  18.871  0.1384  0.1404  0.2159
 1077BOLB   C2C25842  13.501  25.303  18.452  0.3152 -0.3500  0.0373
 1077BOLB   C3C25843  13.282  25.125  18.158 -0.2015 -0.2437  0.0820
 1077BOLB   C4C25844  13.076  24.857  17.722  0.0577  0.3833 -0.0493
 1077BOLB   C1D25845  13.905  25.615  18.295  0.0553  0.1125 -0.2304
 1077BOLB   C2D25846  13.579  25.516  17.945  0.4748  0.0565  0.0140
 1077BOLB   C3D25847  13.595  25.287  17.535 -0.1734  0.1505 -0.3428
 1077BOLB   C4D25848  13.484  24.856  17.346  0.4033  0.0931 -0.2408
 1078BOLB   NC125849   6.759  10.751  16.307 -0.1213  0.0998 -0.0356
 1078BOLB   PO125850   6.297  10.899  15.965  0.1570  0.1130  0.0523
 1078BOLB   GL125851   6.349  11.135  15.667 -0.2641 -0.3010 -0.2147
 1078BOLB   GL225852   6.332  11.506  15.854  0.3100  0.4734  0.3922
 1078BOLB   C1A25853   6.153  11.436  15.337  0.0422 -0.2198  0.1021
 1078BOLB   C2A25854   5.665  11.662  15.236  0.2052  0.3691  0.2361
 1078BOLB   C3A25855   5.463  11.972  15.022 -0.0472  0.0728 -0.0126
 1078BOLB   C4A25856   5.635  12.298  14.732 -0.0821  0.1227 -0.1561
 1078BOLB   C1B25857   6.127  11.765  16.184 -0.0174 -0.2258 -0.3441
 1078BOLB   C2B25858   5.725  12.028  16.218  0.0891  0.1641 -0.5415
 1078BOLB   C3B25859   5.556  12.368  16.043 -0.1344 -0.0665 -0.0366
 1078BOLB   C4B25860   5.514  12.806  15.781 -0.1487 -0.0912  0.3473
 1078BOLB   NC225861   6.793  10.767  15.782  0.3552  0.0603  0.0562
 1078BOLB   PO225862   7.003  10.786  15.421 -0.3510  0.3183  0.1614
 1078BOLB   GL325863   6.977  11.122  15.365 -0.0823 -0.1961  0.0812
 1078BOLB   GL425864   7.064  11.318  15.565 -0.2012 -0.1743 -0.1578
 1078BOLB   C1C25865   6.815  11.461  15.139  0.1476 -0.0571  0.0086
 1078BOLB   C2C25866   6.579  11.729  15.012  0.2982  0.0371  0.3512
 1078BOLB   C3C25867   6.418  11.982  14.747 -0.0197 -0.1625 -0.1936
 1078BOLB   C4C25868   6.102  12.359  14.649 -0.2120  0.0801  0.1154
 1078BOLB   C1D25869   6.771  11.640  15.617  0.2431  0.0288  0.2735
 1078BOLB   C2D25870   6.461  11.919  15.529 -0.0901 -0.1753  0.0636
 1078BOLB   C3D25871   6.105  11.946  15.178 -0.0459  0.1562 -0.1286
 1078BOLB   C4D25872   5.897  11.818  14.818  0.2863  0.0047 -0.1716
 1079BOLB   NC125873  15.674  27.996  15.474  0.0269 -0.1797  0.4529
 1079BOLB   PO125874  15.587  28.252  15.172 -0.2898 -0.1466  0.0557
 1079BOLB   GL125875  15.339  27.997  14.884 -0.0147  0.1334 -0.1576
 1079BOLB   GL225876  15.351  27.739  15.104 -0.1655  0.0248 -0.0645
 1079BOLB   C1A25877  14.949  28.057  14.665  0.1330  0.0388  0.0953
 1079BOLB   C2A25878  14.540  27.862  14.747 -0.0193  0.0428  0.3532
 1079BOLB   C3A25879  14.246  27.600  14.677  0.0436  0.3140  0.4931
 1079BOLB   C4A25880  13.992  27.423  14.800 -0.1232 -0.0255  0.0225
 1079BOLB   C1B25881  15.243  27.359  15.131 -0.0445  0.0494  0.0097
 1079BOLB   C2B25882  15.000  27.106  15.087  0.0718  0.3059  0.1773
 1079BOLB   C3B25883  14.806  26.824  14.875  0.0618 -0.1898  0.0496
 1079BOLB   C4B25884  14.546  26.772  14.420  0.1162 -0.3194 -0.2592
 1079BOLB   NC225885  14.606  28.477  17.102 -0.1318  0.1063 -0.0937
 1079BOLB   PO225886  14.627  28.312  16.821  0.1173 -0.3573 -0.1202
 1079BOLB   GL325887  14.316  28.105  16.575  0.0409  0.1099  0.1861
 1079BOLB   GL425888  14.362  27.816  16.583 -0.2073 -0.2177  0.3014
 1079BOLB   C1C25889  13.970  27.984  16.233 -0.0357 -0.2177  0.2299
 1079BOLB   C2C25890  13.877  27.792  15.796 -0.0852  0.2072 -0.0773
 1079BOLB   C3C25891  13.790  27.813  15.361  0.0342 -0.0725 -0.0575
 1079BOLB   C4C25892  13.839  27.488  15.066  0.1515 -0.0836  0.0332
 1079BOLB   C1D25893  14.018  27.492  16.446  0.0741  0.1196  0.0893
 1079BOLB   C2D25894  13.627  27.503  16.159  0.3344 -0.0562 -0.1681
 1079BOLB   C3D25895  13.414  27.097  15.976  0.3107  0.0078  0.0549
 1079BOLB   C4D25896  13.132  26.942  15.721 -0.0039 -0.0889  0.1305
 1080BOLB   NC125897  30.340  25.420  10.306 -0.2009 -0.2976  0.0103
 1080BOLB   PO125898  30.777  25.582  10.292 -0.0742  0.0571 -0.3213
 1080BOLB   GL125899  31.177  25.600  10.136 -0.1538  0.0954 -0.1376
 1080BOLB   GL225900  31.423  25.396  10.331 -0.0099  0.4620 -0.1584
 1080BOLB   C1A25901  31.413  25.310   9.770 -0.1257  0.4421  0.1203
 1080BOLB   C2A25902  31.332  24.965   9.573  0.2818 -0.0464 -0.0417
 1080BOLB   C3A25903  31.256  24.731   9.178 -0.0916 -0.1234 -0.2742
 1080BOLB   C4A25904  31.016  24.510   9.067 -0.1647 -0.1923  0.3687
 1080BOLB   C1B25905  31.257  25.021  10.218  0.1343 -0.0674  0.0043
 1080BOLB   C2B25906  31.016  24.607  10.105  0.0151  0.0997 -0.2364
 1080BOLB   C3B25907  30.844  24.202  10.172  0.1475 -0.1430  0.0799
 1080BOLB   C4B25908  30.596  23.826   9.930 -0.2132  0.0517  0.0393
 1080BOLB   NC225909  29.661  24.843   7.218  0.2855  0.0850 -0.0323
 1080BOLB   PO225910  29.819  24.426   7.425  0.3108 -0.0427 -0.1193
 1080BOLB   GL325911  30.078  24.042   7.512 -0.1878 -0.0136 -0.2836
 1080BOLB   GL425912  29.976  23.678   7.576 -0.1136 -0.3623 -0.1665
 1080BOLB   C1C25913  30.383  23.956   7.845 -0.0485 -0.0037  0.1361
 1080BOLB   C2C25914  30.537  24.032   8.246  0.2033 -0.0500  0.1214
 1080BOLB   C3C25915  30.905  23.934   8.574  0.4340  0.0550  0.0820
 1080BOLB   C4C25916  31.090  24.140   8.886  0.1700 -0.2548  0.4457
 1080BOLB   C1D25917  30.176  23.296   7.566  0.0060 -0.4332 -0.3298
 1080BOLB   C2D25918  30.519  23.062   7.623  0.3912 -0.2376  0.4663
 1080BOLB   C3D25919  30.794  22.803   7.913  0.0964 -0.2183  0.2819
 1080BOLB   C4D25920  31.185  22.646   8.086  0.0244  0.2369 -0.0668
 1081BOLB   NC125921  11.480  27.590  11.286  0.0106 -0.0828  0.4817
 1081BOLB   PO125922  11.524  27.255  10.941 -0.1124  0.1680 -0.0365
 1081BOLB   GL125923  11.887  27.553  10.988  0.1362 -0.3176  0.0721
 1081BOLB   GL225924  11.849  27.859  11.027  0.0888  0.2540 -0.1042
 1081BOLB   C1A25925  12.324  27.627  10.950 -0.1974 -0.1975 -0.1709
 1081BOLB   C2A25926  12.613  27.984  11.231 -0.0548  0.2020  0.4289
 1081BOLB   C3A25927  12.814  28.342  11.167 -0.1447  0.2677  0.3860
 1081BOLB   C4A25928  12.906  28.769  11.000 -0.1682 -0.0785  0.0823
 1081BOLB   C1B25929  12.064  28.249  10.945 -0.1018 -0.1765  0.3693
 1081BOLB   C2B25930  12.363  28.532  11.128 -0.0784 -0.2577  0.1099
 1081BOLB   C3B25931  12.564  28.840  11.387  0.0080 -0.1160  0.1562
 1081BOLB   C4B25932  12.767  28.959  11.652  0.2162 -0.2504  0.0850
 1081BOLB   NC225933  13.935  30.926  10.637 -0.1086  0.2775 -0.0338
 1081BOLB   PO225934  13.963  30.664  10.283  0.0607  0.1084  0.0481
 1081BOLB   GL325935  13.658  30.502  10.669 -0.3197 -0.4106 -0.1835
 1081BOLB   GL425936  13.484  30.737  10.763 -0.1249 -0.1816 -0.1969
 1081BOLB   C1C25937  13.637  30.126  10.849  0.0483  0.0681  0.0494
 1081BOLB   C2C25938  13.487  29.762  10.925  0.0815 -0.0679  0.1079
 1081BOLB   C3C25939  13.436  29.393  10.705 -0.1375  0.2858 -0.1099
 1081BOLB   C4C25940  13.228  29.072  10.809 -0.1823  0.2527 -0.0540
 1081BOLB   C1D25941  13.051  30.857  10.706 -0.3690 -0.0306  0.2527
 1081BOLB   C2D25942  12.704  30.764  10.386  0.0692 -0.1798 -0.0570
 1081BOLB   C3D25943  12.410  30.651  10.226  0.1393  0.1623 -0.1707
 1081BOLB   C4D25944  12.135  30.317  10.267  0.1650 -0.0655  0.1640
 1082BOLB   NC125945   5.433   8.396  12.372  0.0827  0.1628  0.1560
 1082BOLB   PO125946   5.706   8.597  12.122 -0.3001  0.1007  0.2453
 1082BOLB   GL125947   5.699   9.021  11.913  0.2366 -0.1275  0.0467
 1082BOLB   GL225948   5.983   9.062  11.890 -0.1244 -0.1157 -0.4612
 1082BOLB   C1A25949   5.431   9.218  11.552  0.1408  0.0037  0.3830
 1082BOLB   C2A25950   5.032   9.251  11.302  0.2757 -0.0210  0.0125
 1082BOLB   C3A25951   4.711   9.358  11.123  0.0931 -0.0255 -0.0827
 1082BOLB   C4A25952   4.247   9.298  11.222 -0.1364  0.2382 -0.1255
 1082BOLB   C1B25953   5.863   9.507  11.965 -0.3546 -0.2552 -0.1916
 1082BOLB   C2B25954   5.839   9.896  11.820  0.0197  0.0022  0.0924
 1082BOLB   C3B25955   5.718  10.310  11.903  0.3809  0.1381 -0.0424
 1082BOLB   C4B25956   5.846  10.746  11.901  0.2370  0.3898 -0.1471
 1082BOLB   NC225957   4.020   6.605  10.549 -0.1034  0.0300  0.0516
 1082BOLB   PO225958   4.225   6.954  10.612  0.0055  0.0472  0.0522
 1082BOLB   GL325959   4.024   7.218  10.970  0.0047 -0.1490 -0.2076
 1082BOLB   GL425960   4.051   7.271  11.357 -0.0153  0.2149  0.4128
 1082BOLB   C1C25961   3.976   7.684  11.016 -0.2237  0.1143  0.1686
 1082BOLB   C2C25962   4.012   8.119  11.034  0.0742 -0.1311  0.0980
 1082BOLB   C3C25963   4.173   8.371  11.385  0.0631 -0.3056  0.3056
 1082BOLB   C4C25964   4.211   8.808  11.512  0.2728 -0.2361 -0.1233
 1082BOLB   C1D25965   3.898   7.529  11.594  0.0304  0.1073  0.2325
 1082BOLB   C2D25966   3.840   7.927  11.478 -0.1083 -0.1930 -0.0476
 1082BOLB   C3D25967   3.695   8.348  11.589 -0.3142 -0.1016  0.0613
 1082BOLB   C4D25968   3.406   8.610  11.506  0.0547  0.1097 -0.3176
 1083BOLB   NC125969   3.434  17.345   4.244 -0.1620  0.0173 -0.0867
 1083BOLB   PO125970   3.578  17.059   3.869  0.0455 -0.1940 -0.1031
 1083BOLB   GL125971   3.394  17.034   3.461 -0.1104  0.2186  0.0456
 1083BOLB   GL225972   3.029  16.825   3.487  0.0674 -0.4723 -0.0285
 1083BOLB   C1A25973   3.247  16.935   3.034  0.0582 -0.0682 -0.0651
 1083BOLB   C2A25974   3.145  16.817   2.679  0.0056 -0.2305  0.0070
 1083BOLB   C3A25975   2.731  16.699   2.368 -0.1307  0.0059 -0.1686
 1083BOLB   C4A25976   2.633  16.470   2.030 -0.1181 -0.0257 -0.2320
 1083BOLB   C1B25977   2.973  16.529   3.117  0.0108 -0.0576 -0.0998
 1083BOLB   C2B25978   2.916  16.409   2.748 -0.0008 -0.0251 -0.3842
 1083BOLB   C3B25979   3.095  16.390   2.393 -0.0359 -0.2724 -0.0877
 1083BOLB   C4B25980   3.347  16.194   2.372 -0.1500  0.0564 -0.2424
 1083BOLB   NC225981   1.122  15.881  -0.349 -0.0887  0.0452  0.0899
 1083BOLB   PO225982   1.478  16.009  -0.252  0.0644 -0.0840  0.0677
 1083BOLB   GL325983   1.753  16.063   0.010 -0.1973 -0.0361 -0.1565
 1083BOLB   GL425984   1.566  15.938   0.275 -0.3867  0.1046  0.0650
 1083BOLB   C1C25985   2.013  16.183   0.337 -0.1179  0.1434  0.1932
 1083BOLB   C2C25986   2.137  16.197   0.835  0.0245  0.0605  0.1298
 1083BOLB   C3C25987   2.278  16.218   1.357  0.2036  0.0155  0.3439
 1083BOLB   C4C25988   2.413  16.386   1.672 -0.1482  0.2967  0.1495
 1083BOLB   C1D25989   1.629  15.960   0.719  0.0510 -0.1397 -0.2142
 1083BOLB   C2D25990   1.819  15.985   1.163 -0.1616  0.2348 -0.0916
 1083BOLB   C3D25991   2.043  15.786   1.467 -0.0474  0.1690  0.1895
 1083BOLB   C4D25992   1.840  15.586   1.947  0.2029 -0.1979  0.1644
 1084BOLB   NC125993   6.448   8.754  13.175 -0.0141 -0.0066  0.1637
 1084BOLB   PO125994   6.205   8.944  12.818  0.2279  0.1192 -0.1227
 1084BOLB   GL125995   5.965   9.307  12.656 -0.0683  0.0577  0.5372
 1084BOLB   GL225996   5.744   9.391  12.869 -0.1631  0.2253 -0.0633
 1084BOLB   C1A25997   5.628   9.362  12.365 -0.0876  0.2052  0.2902
 1084BOLB   C2A25998   5.243   9.167  12.064  0.1174 -0.0760  0.1167
 1084BOLB   C3A25999   4.899   9.467  11.843  0.3257 -0.0636 -0.0739
 1084BOLB   C4A26000   4.792   9.655  11.525  0.3489  0.1702 -0.0697
 1084BOLB   C1B26001   5.410   9.679  12.665  0.3900 -0.2956 -0.0586
 1084BOLB   C2B26002   5.632   9.880  12.249 -0.3126  0.2216 -0.1683
 1084BOLB   C3B26003   5.991  10.188  12.325 -0.0577 -0.2348  0.1842
 1084BOLB   C4B26004   6.198  10.666  12.247 -0.0569 -0.2623  0.0611
 1084BOLB   NC226005   5.130   8.030  10.979 -0.0503  0.1554 -0.0505
 1084BOLB   PO226006   5.007   8.130  10.587 -0.1525 -0.0354  0.0408
 1084BOLB   GL326007   4.953   8.550  10.575  0.0407 -0.0565 -0.1153
 1084BOLB   GL426008   5.152   8.584  10.917  0.4859  0.1863  0.2084
 1084BOLB   C1C26009   4.809   8.936  10.484  0.1572 -0.1676 -0.5424
 1084BOLB   C2C26010   4.656   9.356  10.463  0.2801 -0.1337  0.0700
 1084BOLB   C3C26011   4.472   9.660  10.727 -0.2873  0.2521  0.0210
 1084BOLB   C4C26012   4.487   9.837  11.184  0.1101  0.1400  0.1584
 1084BOLB   C1D26013   5.205   9.000  10.913 -0.1768  0.1047  0.3819
 1084BOLB   C2D26014   5.064   9.396  10.817 -0.0030  0.2293 -0.0569
 1084BOLB   C3D26015   4.989   9.789  10.999 -0.0705  0.3363 -0.1595
 1084BOLB   C4D26016   4.971  10.042  11.346  0.1193  0.0717  0.1887
 1085BOLB   NC126017  13.546  25.253   8.064 -0.0994 -0.0817  0.3135
 1085BOLB   PO126018  13.190  25.480   8.302  0.3789 -0.5766 -0.3562
 1085BOLB   GL126019  13.549  25.739   8.104 -0.0202  0.3355  0.0300
 1085BOLB   GL226020  13.412  26.051   8.190  0.1152 -0.0178  0.0325
 1085BOLB   C1A26021  13.787  26.222   7.923  0.0607  0.0201 -0.1049
 1085BOLB   C2A26022  13.833  26.582   7.608  0.0376  0.1498 -0.2370
 1085BOLB   C3A26023  14.111  26.729   7.368 -0.1760  0.0658  0.2300
 1085BOLB   C4A26024  14.410  26.922   7.056 -0.2571 -0.0171  0.3283
 1085BOLB   C1B26025  13.364  26.050   7.728 -0.1696  0.1631  0.2873
 1085BOLB   C2B26026  13.499  26.102   7.314 -0.0200 -0.1301  0.0437
 1085BOLB   C3B26027  13.898  26.181   7.105  0.0233  0.3584 -0.0871
 1085BOLB   C4B26028  14.101  26.279   6.752  0.0091 -0.2683  0.0118
 1085BOLB   NC226029  14.679  28.911   5.769 -0.1738 -0.1301  0.1290
 1085BOLB   PO226030  14.468  28.631   5.461 -0.1850 -0.0542  0.0338
 1085BOLB   GL326031  14.429  28.294   5.716  0.1291 -0.0813  0.0219
 1085BOLB   GL426032  14.348  28.122   5.483  0.0170 -0.3149 -0.2374
 1085BOLB   C1C26033  14.535  27.995   6.026  0.3574  0.0308  0.1185
 1085BOLB   C2C26034  14.750  27.571   6.086  0.1947  0.2005  0.0235
 1085BOLB   C3C26035  14.839  27.189   6.334  0.2051 -0.0284  0.0358
 1085BOLB   C4C26036  14.571  27.079   6.661  0.0086  0.2559 -0.0690
 1085BOLB   C1D26037  14.088  27.801   5.793  0.0071  0.1362  0.0761
 1085BOLB   C2D26038  14.247  27.492   6.100 -0.1100 -0.2857 -0.4916
 1085BOLB   C3D26039  14.452  27.476   6.448  0.1301  0.1330  0.1974
 1085BOLB   C4D26040  14.383  27.449   6.839 -0.2283 -0.1068  0.1665
 1086BOLB   NC126041   3.892  17.719  24.797  0.1504 -0.3001  0.1977
 1086BOLB   PO126042   3.832  17.520  25.219 -0.0407  0.0232  0.0725
 1086BOLB   GL126043   4.137  17.581  25.502  0.1602 -0.1116  0.2868
 1086BOLB   GL226044   3.976  17.876  25.760 -0.0688  0.2084  0.1277
 1086BOLB   C1A26045   4.423  17.819  25.831 -0.2604  0.3086  0.1212
 1086BOLB   C2A26046   4.624  18.128  26.121  0.0398 -0.0268  0.0442
 1086BOLB   C3A26047   4.710  18.398  26.445 -0.0502 -0.0821 -0.2425
 1086BOLB   C4A26048   4.501  18.777  26.586 -0.1412  0.0615  0.3397
 1086BOLB   C1B26049   4.022  18.111  26.235  0.0758 -0.2295 -0.2186
 1086BOLB   C2B26050   4.149  18.136  26.668  0.0404 -0.1090 -0.0274
 1086BOLB   C3B26051   4.310  18.404  26.982 -0.1409 -0.0783 -0.0244
 1086BOLB   C4B26052   4.124  18.461  27.397  0.2058 -0.0474 -0.3150
 1086BOLB   NC226053   4.643  20.103  24.534  0.0892 -0.1707  0.0590
 1086BOLB   PO226054   4.628  19.788  24.861  0.1732  0.2374 -0.2146
 1086BOLB   GL326055   4.577  19.373  25.282 -0.0047 -0.0989  0.0073
 1086BOLB   GL426056   4.845  19.289  25.379 -0.0121 -0.3195 -0.3005
 1086BOLB   C1C26057   4.222  19.307  25.448 -0.2358  0.2471 -0.5101
 1086BOLB   C2C26058   4.124  19.430  25.895 -0.1061 -0.0133  0.0741
 1086BOLB   C3C26059   4.284  19.533  26.301 -0.0043  0.1503  0.3680
 1086BOLB   C4C26060   4.424  19.185  26.606  0.0413  0.1447 -0.2641
 1086BOLB   C1D26061   4.756  19.487  25.855  0.2783  0.1545 -0.1540
 1086BOLB   C2D26062   4.913  19.926  25.910 -0.0469 -0.1195 -0.0041
 1086BOLB   C3D26063   5.266  20.154  25.772  0.3215  0.2331  0.1591
 1086BOLB   C4D26064   5.546  20.130  25.456 -0.0340 -0.0265 -0.0783
 1087BOLB   NC126065  36.942  26.391   2.810 -0.1104 -0.3200  0.2936
 1087BOLB   PO126066  37.092  25.931   2.694 -0.0424  0.2191  0.0104
 1087BOLB   GL126067  37.464  25.722   2.842  0.0957  0.4257  0.1697
 1087BOLB   GL226068  37.810  25.548   2.626  0.1238  0.2085 -0.4045
 1087BOLB   C1A26069  37.882  25.820   3.024  0.1601  0.0720 -0.2271
 1087BOLB   C2A26070  38.248  25.840   3.231  0.2688 -0.4157 -0.1358
 1087BOLB   C3A26071  38.281  25.846   3.585  0.1924  0.1750 -0.1846
 1087BOLB   C4A26072  38.459  26.115   3.900 -0.0324  0.1553  0.0146
 1087BOLB   C1B26073  37.745  25.282   2.952  0.3028  0.0823  0.0460
 1087BOLB   C2B26074  37.785  25.138   3.366  0.2056  0.1969  0.0358
 1087BOLB   C3B26075  37.673  24.702   3.397 -0.0202 -0.3926 -0.0419
 1087BOLB   C4B26076  37.334  24.393   3.595 -0.0427 -0.0558 -0.1383
 1087BOLB   NC226077  40.181  24.984   5.149  0.1519  0.2049 -0.0840
 1087BOLB   PO226078  39.848  24.952   5.531 -0.0293 -0.1019 -0.2413
 1087BOLB   GL326079  39.730  25.240   5.148  0.2631  0.0833  0.2291
 1087BOLB   GL426080  39.528  25.295   5.327  0.0536  0.0160  0.2254
 1087BOLB   C1C26081  39.661  25.612   4.730 -0.4671  0.0052  0.0856
 1087BOLB   C2C26082  39.380  25.772   4.405  0.1421  0.1483 -0.3023
 1087BOLB   C3C26083  38.953  25.994   4.455 -0.2151  0.2770  0.0562
 1087BOLB   C4C26084  38.682  26.170   4.233  0.1102 -0.2252 -0.1791
 1087BOLB   C1D26085  39.138  25.417   5.152 -0.1431  0.0018  0.0113
 1087BOLB   C2D26086  38.769  25.457   5.311 -0.1489 -0.0580 -0.1435
 1087BOLB   C3D26087  38.319  25.625   5.277  0.0214  0.0413 -0.1517
 1087BOLB   C4D26088  37.809  25.530   5.436  0.1112  0.2002 -0.2976
 1088BOLB   NC126089   8.959  29.937  18.910  0.0108  0.2800  0.0059
 1088BOLB   PO126090   9.533  29.883  19.083  0.0375  0.0066 -0.0139
 1088BOLB   GL126091   9.551  29.470  18.913 -0.2851  0.2502  0.0690
 1088BOLB   GL226092   9.367  29.592  18.665 -0.2777 -0.0379  0.0556
 1088BOLB   C1A26093   9.741  29.133  18.553 -0.1136  0.1145 -0.2226
 1088BOLB   C2A26094   9.656  28.886  18.218 -0.1238 -0.0142  0.1001
 1088BOLB   C3A26095   9.553  28.429  18.157  0.0739 -0.0294  0.4209
 1088BOLB   C4A26096   9.335  28.039  18.067 -0.0093  0.0659  0.2991
 1088BOLB   C1B26097   9.209  29.727  18.280 -0.2137 -0.0007  0.1355
 1088BOLB   C2B26098   8.758  29.672  18.092 -0.0144 -0.1255  0.1829
 1088BOLB   C3B26099   8.531  29.356  17.894 -0.0307 -0.0928 -0.1716
 1088BOLB   C4B26100   8.452  29.097  17.492  0.0326  0.1661 -0.0387
 1088BOLB   NC226101   8.977  28.998  19.852  0.0931  0.4296 -0.3850
 1088BOLB   PO226102   8.826  29.442  19.711  0.0328  0.4210 -0.1347
 1088BOLB   GL326103   8.737  29.066  19.414 -0.1411  0.1550 -0.2647
 1088BOLB   GL426104   9.032  29.064  19.243  0.0674 -0.1256  0.0157
 1088BOLB   C1C26105   8.743  28.630  19.209 -0.1875  0.0530  0.0617
 1088BOLB   C2C26106   8.776  28.399  18.836 -0.0871  0.1075  0.0134
 1088BOLB   C3C26107   8.836  28.101  18.540 -0.1636 -0.0291  0.1060
 1088BOLB   C4C26108   8.962  27.840  18.319  0.0025  0.0080  0.0894
 1088BOLB   C1D26109   9.151  29.045  18.814  0.0856  0.0456  0.0270
 1088BOLB   C2D26110   9.215  29.178  18.324 -0.0482 -0.0405  0.0414
 1088BOLB   C3D26111   9.370  29.178  17.913  0.2635  0.2070  0.0852
 1088BOLB   C4D26112   9.531  28.897  17.458 -0.1954  0.1566 -0.2547
 1089BOLB   NC126113   0.525  20.775  16.116  0.3681 -0.0648 -0.0775
 1089BOLB   PO126114   0.657  21.038  16.527  0.0054 -0.2697  0.1436
 1089BOLB   GL126115   0.342  20.975  16.725 -0.0952  0.0740 -0.3169
 1089BOLB   GL226116   0.140  20.764  16.486  0.1468 -0.0605  0.0492
 1089BOLB   C1A26117   0.214  20.993  17.115 -0.0715  0.1870  0.2189
 1089BOLB   C2A26118  -0.166  20.940  17.247 -0.1163  0.2818  0.0302
 1089BOLB   C3A26119  -0.393  20.778  17.559  0.3480 -0.0313  0.0992
 1089BOLB   C4A26120  -0.574  20.651  17.936  0.1076  0.3825 -0.1771
 1089BOLB   C1B26121  -0.068  20.628  16.886  0.3307  0.2028  0.3186
 1089BOLB   C2B26122  -0.131  20.389  17.304 -0.1794 -0.2973  0.1503
 1089BOLB   C3B26123  -0.480  20.212  17.484  0.0047 -0.2615  0.0504
 1089BOLB   C4B26124  -0.953  20.363  17.650 -0.2076 -0.0523 -0.1308
 1089BOLB   NC226125  -2.030  21.938  20.134 -0.0887 -0.1562  0.2023
 1089BOLB   PO226126  -1.819  21.560  19.970 -0.2596 -0.0508 -0.2666
 1089BOLB   GL326127  -1.765  21.544  19.459 -0.0891 -0.1739  0.0013
 1089BOLB   GL426128  -1.739  21.882  19.280 -0.3777  0.0144  0.4226
 1089BOLB   C1C26129  -1.505  21.409  19.004  0.0748  0.1584 -0.0892
 1089BOLB   C2C26130  -1.310  21.264  18.733  0.0868  0.4203 -0.1272
 1089BOLB   C3C26131  -1.067  20.979  18.503 -0.3802 -0.0097  0.2288
 1089BOLB   C4C26132  -0.939  20.705  18.187 -0.1264  0.0106 -0.2453
 1089BOLB   C1D26133  -1.366  22.015  18.929 -0.0529  0.2051 -0.1112
 1089BOLB   C2D26134  -1.083  21.848  18.620 -0.2882  0.3167  0.2840
 1089BOLB   C3D26135  -1.067  21.449  18.324 -0.1841  0.0116  0.0251
 1089BOLB   C4D26136  -1.001  21.268  18.009 -0.1246  0.1836  0.3488
 1090BOLB   NC126137   3.697   8.210  14.806  0.2207 -0.1249  0.4961
 1090BOLB   PO126138   3.243   8.133  14.815  0.1621  0.1366  0.1276
 1090BOLB   GL126139   3.045   8.397  14.757 -0.1221 -0.0457 -0.0558
 1090BOLB   GL226140   2.802   8.205  14.613  0.1234 -0.2637 -0.2369
 1090BOLB   C1A26141   2.716   8.780  14.806  0.0356  0.2156 -0.0562
 1090BOLB   C2A26142   2.342   8.955  14.576  0.2453  0.0133 -0.1176
 1090BOLB   C3A26143   2.103   9.218  14.711  0.3375 -0.0984  0.0500
 1090BOLB   C4A26144   2.213   9.618  15.030  0.1281 -0.0987 -0.2043
 1090BOLB   C1B26145   2.810   8.147  14.218  0.0588  0.1966  0.0116
 1090BOLB   C2B26146   3.069   8.168  13.832 -0.0264  0.0499 -0.0970
 1090BOLB   C3B26147   3.185   7.920  13.425  0.2795 -0.1505  0.2748
 1090BOLB   C4B26148   3.459   8.070  13.208 -0.1936 -0.3495  0.1115
 1090BOLB   NC226149   4.396   9.934  16.261 -0.0912  0.2156  0.0426
 1090BOLB   PO226150   4.128   9.441  16.322 -0.0195 -0.0473  0.0153
 1090BOLB   GL326151   3.863   9.495  15.908  0.1644  0.1267  0.1587
 1090BOLB   GL426152   3.549   9.561  16.072 -0.0426  0.2438  0.1093
 1090BOLB   C1C26153   3.544   9.589  15.591  0.0030  0.0813 -0.0606
 1090BOLB   C2C26154   3.326   9.839  15.276  0.1031 -0.1269  0.1773
 1090BOLB   C3C26155   2.840  10.090  15.154  0.1022 -0.0334  0.0157
 1090BOLB   C4C26156   2.378   9.881  15.129  0.0099 -0.2429  0.1394
 1090BOLB   C1D26157   3.145   9.682  16.229  0.3838 -0.0162 -0.0444
 1090BOLB   C2D26158   2.741   9.543  16.197 -0.1841  0.1167 -0.0637
 1090BOLB   C3D26159   2.315   9.497  16.233  0.1220  0.1984  0.0464
 1090BOLB   C4D26160   2.059   9.305  16.563  0.0757 -0.1793  0.0876
 1091BOLB   NC126161   3.596  16.140  25.687  0.1165 -0.1372 -0.2152
 1091BOLB   PO126162   3.229  16.358  25.747  0.3266  0.1247  0.1143
 1091BOLB   GL126163   3.133  16.576  26.066 -0.2733  0.3049 -0.2323
 1091BOLB   GL226164   2.830  16.669  26.022  0.0582 -0.3738  0.1501
 1091BOLB   C1A26165   3.160  16.940  26.354 -0.0997 -0.2267  0.0469
 1091BOLB   C2A26166   2.902  17.309  26.456 -0.1875 -0.0788 -0.1684
 1091BOLB   C3A26167   2.809  17.606  26.739  0.0026 -0.0789 -0.1517
 1091BOLB   C4A26168   2.946  18.007  26.967 -0.0069 -0.0484 -0.0073
 1091BOLB   C1B26169   2.877  16.563  26.572 -0.1388  0.1087  0.1462
 1091BOLB   C2B26170   3.029  16.859  26.859  0.3487  0.0899  0.1431
 1091BOLB   C3B26171   2.900  17.324  27.096  0.4524  0.0859 -0.0323
 1091BOLB   C4B26172   2.661  17.540  27.305 -0.0272  0.1486 -0.2172
 1091BOLB   NC226173   2.797  19.759  25.287 -0.0173 -0.3066  0.0094
 1091BOLB   PO226174   2.467  19.590  25.290 -0.1399 -0.2488 -0.2948
 1091BOLB   GL326175   2.609  19.439  25.729  0.0039 -0.0205 -0.2189
 1091BOLB   GL426176   2.617  19.624  25.992 -0.0854 -0.1851  0.2766
 1091BOLB   C1C26177   2.828  19.040  25.847 -0.5027  0.3450 -0.2194
 1091BOLB   C2C26178   3.015  18.947  26.330  0.2130 -0.1858  0.0915
 1091BOLB   C3C26179   3.104  18.551  26.489 -0.1251  0.1003  0.0439
 1091BOLB   C4C26180   3.259  18.345  26.807  0.2091 -0.1376  0.3004
 1091BOLB   C1D26181   2.508  19.208  26.298  0.0321 -0.1428 -0.2171
 1091BOLB   C2D26182   2.586  19.045  26.774  0.0258  0.0375  0.0662
 1091BOLB   C3D26183   2.404  19.358  27.058  0.1769  0.0735  0.0184
 1091BOLB   C4D26184   2.219  19.718  26.968 -0.2101 -0.0127  0.3405
 1092BOLB   NC126185  34.538  21.322   0.711 -0.3636  0.1173  0.0357
 1092BOLB   PO126186  34.618  20.923   0.671  0.0228 -0.4350 -0.3027
 1092BOLB   GL126187  34.895  20.754   0.929  0.0931 -0.1310  0.1004
 1092BOLB   GL226188  35.262  20.632   0.896  0.0820  0.1228  0.0789
 1092BOLB   C1A26189  34.827  20.512   1.344  0.0573  0.3081 -0.2648
 1092BOLB   C2A26190  34.874  20.190   1.654 -0.1586  0.0117 -0.0280
 1092BOLB   C3A26191  34.802  19.940   2.046  0.2917 -0.0221 -0.1102
 1092BOLB   C4A26192  34.454  20.195   2.124 -0.1029  0.4576  0.0683
 1092BOLB   C1B26193  35.617  20.735   1.044 -0.0457  0.1896 -0.0595
 1092BOLB   C2B26194  35.877  20.526   1.277 -0.0648  0.0915 -0.3128
 1092BOLB   C3B26195  35.854  20.056   1.226  0.0078  0.0690  0.0183
 1092BOLB   C4B26196  35.668  19.685   1.440  0.1623  0.0125  0.1480
 1092BOLB   NC226197  32.289  20.875   1.388  0.0980  0.0318  0.0858
 1092BOLB   PO226198  32.288  20.739   1.734 -0.1427 -0.0480 -0.1141
 1092BOLB   GL326199  32.596  20.495   1.996  0.4679 -0.1289 -0.0061
 1092BOLB   GL426200  32.330  20.256   2.164  0.2197 -0.0224 -0.1709
 1092BOLB   C1C26201  32.962  20.473   1.924 -0.0432  0.1973 -0.1080
 1092BOLB   C2C26202  33.288  20.279   1.727  0.0351 -0.1585  0.4325
 1092BOLB   C3C26203  33.740  20.189   1.827  0.2208  0.2167 -0.1354
 1092BOLB   C4C26204  34.185  20.362   1.894  0.0884 -0.1161 -0.0525
 1092BOLB   C1D26205  32.560  20.087   2.494  0.0620  0.4195  0.3432
 1092BOLB   C2D26206  32.791  20.394   2.888  0.1528 -0.1772 -0.0876
 1092BOLB   C3D26207  33.310  20.353   3.029 -0.1428 -0.1409  0.0758
 1092BOLB   C4D26208  33.615  20.499   3.285 -0.2698 -0.0226 -0.3315
 1093BOLB   NC126209   2.608  24.280  21.900 -0.2328 -0.0604 -0.1783
 1093BOLB   PO126210   2.989  24.094  22.071 -0.2561 -0.0585 -0.0663
 1093BOLB   GL126211   3.033  23.950  21.614  0.0693 -0.2692 -0.0274
 1093BOLB   GL226212   3.160  24.196  21.559 -0.1855  0.0390  0.0550
 1093BOLB   C1A26213   3.171  23.668  21.235 -0.4016 -0.0101  0.0928
 1093BOLB   C2A26214   2.878  23.528  20.889  0.2430 -0.3569 -0.0982
 1093BOLB   C3A26215   2.757  23.732  20.503 -0.3990  0.0344  0.2408
 1093BOLB   C4A26216   2.969  23.914  20.295 -0.1141  0.0770 -0.0540
 1093BOLB   C1B26217   3.484  24.240  21.249  0.0785  0.1227  0.0525
 1093BOLB   C2B26218   3.747  24.271  20.901 -0.0730  0.0065  0.3546
 1093BOLB   C3B26219   3.982  24.498  20.536 -0.0655 -0.1841 -0.2354
 1093BOLB   C4B26220   4.057  24.907  20.597  0.1000 -0.0081 -0.1450
 1093BOLB   NC226221   2.564  25.791  21.793  0.2532  0.4257 -0.0760
 1093BOLB   PO226222   2.603  25.936  21.341  0.1012  0.1572  0.1317
 1093BOLB   GL326223   2.656  25.726  21.042  0.2483  0.5063  0.2744
 1093BOLB   GL426224   2.606  25.858  20.729  0.1672 -0.2861 -0.2558
 1093BOLB   C1C26225   2.842  25.457  20.751 -0.1924  0.1082  0.3885
 1093BOLB   C2C26226   2.997  25.067  20.585  0.0964  0.0354  0.0335
 1093BOLB   C3C26227   3.119  24.749  20.333  0.0335  0.1954  0.0858
 1093BOLB   C4C26228   2.975  24.297  20.122 -0.2282 -0.1656 -0.1094
 1093BOLB   C1D26229   2.423  25.610  20.330 -0.0323 -0.0835 -0.1240
 1093BOLB   C2D26230   2.518  25.456  19.920 -0.0579  0.2356  0.3545
 1093BOLB   C3D26231   2.451  25.660  19.521 -0.1564  0.2550  0.1004
 1093BOLB   C4D26232   2.176  25.864  19.296  0.0237 -0.3092  0.1590
 1094BOLB   NC126233  30.962  16.383   4.166  0.0120  0.1073  0.0274
 1094BOLB   PO126234  31.311  16.116   4.083 -0.1998 -0.1317 -0.0141
 1094BOLB   GL126235  31.659  16.276   4.407 -0.2555 -0.0327  0.5047
 1094BOLB   GL226236  31.874  16.078   4.492 -0.0380  0.0501 -0.0216
 1094BOLB   C1A26237  32.061  16.733   4.418 -0.2556  0.2883  0.0120
 1094BOLB   C2A26238  32.246  17.014   4.294  0.1285  0.0692  0.3599
 1094BOLB   C3A26239  32.447  17.387   4.263  0.0172 -0.1365 -0.0713
 1094BOLB   C4A26240  32.602  17.686   3.970  0.0928  0.1040  0.3999
 1094BOLB   C1B26241  32.015  16.374   4.725  0.4091  0.4310 -0.0188
 1094BOLB   C2B26242  32.256  16.633   4.900  0.2533 -0.3538 -0.0226
 1094BOLB   C3B26243  32.125  16.902   5.286  0.2194 -0.1401  0.0141
 1094BOLB   C4B26244  31.750  17.062   5.459  0.0089  0.2903 -0.0985
 1094BOLB   NC226245  32.008  18.295   1.470  0.0225  0.0466  0.2576
 1094BOLB   PO226246  32.188  18.307   1.794 -0.1065 -0.0369 -0.1482
 1094BOLB   GL326247  32.554  18.328   2.019  0.0087 -0.1637  0.1378
 1094BOLB   GL426248  32.699  17.987   2.032 -0.2834  0.0814  0.2479
 1094BOLB   C1C26249  32.647  18.330   2.460 -0.0627  0.0190 -0.1079
 1094BOLB   C2C26250  32.552  18.188   2.894 -0.3093 -0.2124  0.0088
 1094BOLB   C3C26251  32.617  17.907   3.171  0.0401  0.1117  0.2717
 1094BOLB   C4C26252  32.650  17.788   3.586  0.0748  0.0673  0.1921
 1094BOLB   C1D26253  33.036  18.077   2.233  0.2153 -0.2257  0.1893
 1094BOLB   C2D26254  33.105  18.270   2.625 -0.1244  0.0004 -0.0224
 1094BOLB   C3D26255  33.050  18.425   3.005  0.2469  0.2784  0.0725
 1094BOLB   C4D26256  33.345  18.558   3.363  0.2477 -0.0742  0.2995
 1095BOLB   NC126257   4.765   7.890   9.313 -0.2880  0.3217 -0.0414
 1095BOLB   PO126258   4.820   7.760   8.875 -0.0057 -0.3006 -0.1856
 1095BOLB   GL126259   4.703   8.223   8.937  0.0435 -0.0150  0.1004
 1095BOLB   GL226260   4.741   8.400   9.198  0.1160  0.2024  0.1322
 1095BOLB   C1A26261   4.703   8.533   8.655 -0.4303 -0.1120  0.0650
 1095BOLB   C2A26262   4.501   8.830   8.320 -0.2017 -0.0411 -0.1202
 1095BOLB   C3A26263   4.211   9.108   8.325 -0.2043 -0.0200  0.2134
 1095BOLB   C4A26264   4.114   9.465   8.518  0.0311  0.0590  0.1736
 1095BOLB   C1B26265   4.560   8.750   9.098  0.2642  0.5923  0.1172
 1095BOLB   C2B26266   4.634   9.121   9.225  0.1192  0.0150 -0.2362
 1095BOLB   C3B26267   4.409   9.429   9.370  0.1219 -0.0021 -0.1602
 1095BOLB   C4B26268   4.115   9.390   9.706 -0.0149 -0.1022  0.0278
 1095BOLB   NC226269   5.030   8.091  10.095 -0.2145  0.0374  0.0282
 1095BOLB   PO226270   5.020   8.057   9.680 -0.1372  0.0192 -0.1003
 1095BOLB   GL326271   4.889   8.476   9.679  0.3292  0.1700 -0.1726
 1095BOLB   GL426272   5.080   8.778   9.480 -0.0617  0.4532  0.4978
 1095BOLB   C1C26273   4.554   8.806   9.638 -0.1876  0.1823  0.2160
 1095BOLB   C2C26274   4.207   8.934   9.410  0.2028 -0.0974  0.0909
 1095BOLB   C3C26275   3.933   9.272   9.279  0.0299  0.2278 -0.2369
 1095BOLB   C4C26276   3.947   9.514   8.933  0.3292  0.2382  0.0544
 1095BOLB   C1D26277   4.919   9.154   9.649 -0.2415 -0.1760  0.1073
 1095BOLB   C2D26278   4.615   9.364   9.847 -0.1371  0.3185  0.0350
 1095BOLB   C3D26279   4.405   9.578  10.106 -0.0691  0.2121 -0.1393
 1095BOLB   C4D26280   4.613   9.995  10.363 -0.1142 -0.2175 -0.1782
 1096BOLB   NC126281  12.456  18.107   5.309  0.1055  0.2595 -0.1488
 1096BOLB   PO126282  12.979  17.947   5.158 -0.0169  0.2654  0.2024
 1096BOLB   GL126283  13.006  17.535   4.896 -0.1905 -0.0631  0.1353
 1096BOLB   GL226284  12.785  17.331   4.745 -0.1074 -0.2976 -0.0609
 1096BOLB   C1A26285  13.447  17.403   4.841  0.3675  0.0332  0.0037
 1096BOLB   C2A26286  13.758  17.121   4.631 -0.1480  0.1860 -0.2149
 1096BOLB   C3A26287  14.127  16.863   4.737  0.0513  0.1003 -0.1242
 1096BOLB   C4A26288  14.618  16.661   4.806  0.0929 -0.3071  0.1132
 1096BOLB   C1B26289  12.926  17.098   4.411  0.1947 -0.1573 -0.1256
 1096BOLB   C2B26290  13.263  16.919   4.394  0.0932 -0.1666 -0.1145
 1096BOLB   C3B26291  13.641  16.604   4.493  0.0425  0.0835 -0.0873
 1096BOLB   C4B26292  14.004  16.429   4.622  0.1968 -0.1223 -0.2910
 1096BOLB   NC226293  16.983  15.637   4.526 -0.0068  0.0623  0.2114
 1096BOLB   PO226294  16.621  15.440   4.416  0.1735 -0.2812 -0.0604
 1096BOLB   GL326295  16.280  15.735   4.348  0.0294  0.0400 -0.0660
 1096BOLB   GL426296  16.037  15.948   4.212  0.0750 -0.0495  0.0929
 1096BOLB   C1C26297  15.968  15.803   4.712  0.1708 -0.0849 -0.0962
 1096BOLB   C2C26298  15.681  15.969   4.976  0.1677  0.0474 -0.1107
 1096BOLB   C3C26299  15.272  16.185   5.128 -0.1427 -0.0851 -0.4740
 1096BOLB   C4C26300  14.954  16.387   4.972  0.1573  0.1596  0.3003
 1096BOLB   C1D26301  15.592  16.091   4.410  0.0141 -0.1109 -0.1665
 1096BOLB   C2D26302  15.157  16.086   4.429  0.1592 -0.1413  0.0447
 1096BOLB   C3D26303  14.895  15.806   4.409 -0.0679  0.0765  0.1984
 1096BOLB   C4D26304  14.518  15.802   4.415  0.0133 -0.2461 -0.0471
 1097BOLB   NC126305   1.989   6.782   7.072 -0.3869 -0.1888  0.1401
 1097BOLB   PO126306   1.632   6.706   6.815  0.0221  0.0527  0.0161
 1097BOLB   GL126307   1.521   7.032   6.924  0.0443 -0.2721 -0.1065
 1097BOLB   GL226308   1.537   7.107   7.194 -0.1046  0.0806 -0.2581
 1097BOLB   C1A26309   1.670   7.413   6.780  0.2038 -0.2338 -0.0186
 1097BOLB   C2A26310   1.576   7.840   6.672 -0.0344 -0.4946 -0.1091
 1097BOLB   C3A26311   1.620   8.308   6.603  0.0724  0.0940  0.3024
 1097BOLB   C4A26312   1.635   8.556   7.044 -0.1189  0.0485 -0.1977
 1097BOLB   C1B26313   1.446   7.486   7.374 -0.0320 -0.0875 -0.1429
 1097BOLB   C2B26314   1.568   7.885   7.327 -0.2263 -0.3416  0.4000
 1097BOLB   C3B26315   1.784   8.120   7.123  0.2234 -0.1074  0.0326
 1097BOLB   C4B26316   2.080   8.430   6.968  0.0146  0.2279 -0.0896
 1097BOLB   NC226317   1.156   6.875   6.574 -0.1800 -0.0088 -0.0059
 1097BOLB   PO226318   0.900   6.998   6.885 -0.3801  0.1270 -0.0295
 1097BOLB   GL326319   0.945   7.319   7.159  0.2179 -0.0584  0.0991
 1097BOLB   GL426320   1.210   7.468   6.962 -0.1003 -0.2213 -0.0980
 1097BOLB   C1C26321   0.994   7.675   7.360  0.0448 -0.0426  0.1587
 1097BOLB   C2C26322   1.258   7.846   7.761  0.2799  0.1980  0.3327
 1097BOLB   C3C26323   1.413   8.169   7.718 -0.0108  0.0320  0.1463
 1097BOLB   C4C26324   1.551   8.543   7.515  0.0777 -0.1069  0.0829
 1097BOLB   C1D26325   0.884   7.823   6.824  0.1729  0.0593 -0.3305
 1097BOLB   C2D26326   0.647   8.096   6.923  0.1003  0.0265 -0.0344
 1097BOLB   C3D26327   0.728   8.468   7.128  0.0574  0.1296 -0.1935
 1097BOLB   C4D26328   0.711   8.591   7.576  0.1447 -0.3536 -0.2397
 1098BOLB   NC126329  29.084  18.957   9.425 -0.1029  0.1425 -0.2251
 1098BOLB   PO126330  28.852  18.849   8.960 -0.0809  0.0853 -0.3629
 1098BOLB   GL126331  29.229  19.203   8.977  0.0423 -0.0202  0.1440
 1098BOLB   GL226332  29.497  18.973   9.056  0.0480 -0.0578 -0.1436
 1098BOLB   C1A26333  29.571  19.467   8.998 -0.0829  0.0832  0.1106
 1098BOLB   C2A26334  30.008  19.604   8.983 -0.2393 -0.2262 -0.0536
 1098BOLB   C3A26335  30.381  19.439   8.912 -0.3693 -0.0039 -0.0435
 1098BOLB   C4A26336  30.672  19.128   8.734 -0.2711 -0.0080  0.2163
 1098BOLB   C1B26337  29.682  18.658   9.108 -0.1796 -0.3342 -0.0508
 1098BOLB   C2B26338  30.143  18.446   9.169 -0.2277 -0.0787 -0.1511
 1098BOLB   C3B26339  30.539  18.403   9.335  0.0249 -0.2663  0.0310
 1098BOLB   C4B26340  30.926  18.516   9.639 -0.1382  0.3459 -0.1002
 1098BOLB   NC226341  29.491  17.939   8.045 -0.0103 -0.1538 -0.3763
 1098BOLB   PO226342  29.666  17.678   7.722 -0.1069  0.2944 -0.3628
 1098BOLB   GL326343  29.984  17.947   7.856 -0.1020 -0.2033  0.2608
 1098BOLB   GL426344  29.975  18.133   8.129 -0.0707  0.1512  0.2902
 1098BOLB   C1C26345  30.236  18.310   7.656  0.0239 -0.0089 -0.1327
 1098BOLB   C2C26346  30.343  18.677   7.883  0.1352  0.2341  0.0916
 1098BOLB   C3C26347  30.709  18.747   8.034  0.0430  0.1329  0.0382
 1098BOLB   C4C26348  30.771  18.771   8.535  0.2115 -0.1700  0.0050
 1098BOLB   C1D26349  30.252  17.969   8.355  0.0595 -0.1628 -0.4312
 1098BOLB   C2D26350  30.677  17.736   8.497  0.0348  0.0775  0.0614
 1098BOLB   C3D26351  30.946  17.769   8.801  0.1237  0.0263 -0.0460
 1098BOLB   C4D26352  31.069  18.100   9.151 -0.2739 -0.0249 -0.2461
 1099BOLB   NC126353  34.279  18.462   0.122  0.0435  0.0267 -0.3010
 1099BOLB   PO126354  34.632  18.530   0.098 -0.1647  0.4234 -0.0098
 1099BOLB   GL126355  35.107  18.529   0.125 -0.2005  0.1961 -0.0070
 1099BOLB   GL226356  35.278  18.801   0.360  0.1952  0.1083 -0.1770
 1099BOLB   C1A26357  35.080  18.446   0.641  0.1787 -0.2126  0.0310
 1099BOLB   C2A26358  35.267  18.283   0.948 -0.2597 -0.0384  0.2527
 1099BOLB   C3A26359  35.366  17.903   1.001  0.0195  0.0398  0.2962
 1099BOLB   C4A26360  35.250  17.480   1.066 -0.1382  0.0657  0.3737
 1099BOLB   C1B26361  35.578  18.388   0.404  0.1043 -0.1436 -0.0981
 1099BOLB   C2B26362  35.507  18.062   0.536  0.0925 -0.2009 -0.2752
 1099BOLB   C3B26363  35.373  17.654   0.571  0.4976 -0.1002  0.0472
 1099BOLB   C4B26364  35.098  17.292   0.625 -0.1198  0.0640  0.1533
 1099BOLB   NC226365  33.888  17.158   0.012 -0.2887  0.2453  0.1105
 1099BOLB   PO226366  34.284  17.060   0.173 -0.0899  0.1304 -0.0193
 1099BOLB   GL326367  34.329  17.104   0.642  0.0974  0.3516  0.4002
 1099BOLB   GL426368  34.615  17.122   0.568  0.0738 -0.2523 -0.1724
 1099BOLB   C1C26369  34.367  16.710   0.929  0.2197  0.2483 -0.1587
 1099BOLB   C2C26370  34.688  16.442   1.127  0.0242 -0.1116  0.2422
 1099BOLB   C3C26371  35.072  16.763   1.217  0.1106  0.0089  0.1292
 1099BOLB   C4C26372  35.295  17.163   1.294 -0.1750  0.0170  0.4117
 1099BOLB   C1D26373  34.686  17.067   1.016 -0.2770  0.1593  0.0531
 1099BOLB   C2D26374  34.798  17.177   1.292 -0.1467  0.3252  0.1394
 1099BOLB   C3D26375  34.990  17.519   1.503 -0.1624  0.3278 -0.1323
 1099BOLB   C4D26376  35.413  17.700   1.466 -0.1153 -0.1405 -0.1512
 1100BOLB   NC126377  36.678   7.458   9.510  0.0229 -0.1261 -0.3056
 1100BOLB   PO126378  36.757   7.593   9.183  0.0395 -0.2716 -0.1267
 1100BOLB   GL126379  36.655   7.813   8.753 -0.1584 -0.0062  0.0227
 1100BOLB   GL226380  36.939   7.924   8.590 -0.0712  0.2929 -0.1778
 1100BOLB   C1A26381  36.551   8.229   8.849 -0.1747 -0.1991  0.3440
 1100BOLB   C2A26382  36.333   8.590   8.804 -0.1127  0.0108 -0.0509
 1100BOLB   C3A26383  36.314   8.972   8.684  0.0964 -0.5872 -0.0798
 1100BOLB   C4A26384  36.435   9.421   8.683  0.0990  0.3409 -0.0890
 1100BOLB   C1B26385  37.240   7.939   8.977 -0.2885 -0.0334 -0.1838
 1100BOLB   C2B26386  37.585   8.177   9.033 -0.0450  0.1655  0.0737
 1100BOLB   C3B26387  37.986   8.416   9.067  0.1818 -0.2698 -0.0580
 1100BOLB   C4B26388  38.245   8.590   8.783 -0.1519 -0.0913  0.1837
 1100BOLB   NC226389  37.059   7.899   7.948  0.0214 -0.1531  0.1460
 1100BOLB   PO226390  37.169   7.601   7.553  0.1292  0.1642 -0.2767
 1100BOLB   GL326391  37.248   8.002   7.483  0.1568 -0.0593 -0.2787
 1100BOLB   GL426392  37.469   8.246   7.553  0.2048  0.2155 -0.0750
 1100BOLB   C1C26393  36.972   8.420   7.523 -0.0292 -0.1995  0.2373
 1100BOLB   C2C26394  36.912   8.859   7.741  0.4136  0.0009  0.0884
 1100BOLB   C3C26395  36.937   9.202   8.059  0.0203  0.1260  0.0557
 1100BOLB   C4C26396  36.769   9.448   8.411 -0.2287 -0.1681  0.0756
 1100BOLB   C1D26397  37.737   8.545   7.627 -0.1168 -0.0848 -0.1858
 1100BOLB   C2D26398  38.126   8.789   7.774 -0.0775 -0.2169  0.2183
 1100BOLB   C3D26399  38.413   9.148   7.862  0.0939 -0.2899 -0.0389
 1100BOLB   C4D26400  38.371   9.593   7.910 -0.1740 -0.0189 -0.1816
 1101BOLB   NC126401   0.805  15.667  21.401  0.2482  0.1209  0.0774
 1101BOLB   PO126402   0.644  15.275  21.570 -0.0110 -0.2886 -0.3274
 1101BOLB   GL126403   0.543  15.314  21.122 -0.1477 -0.2252  0.1727
 1101BOLB   GL226404   0.756  15.233  21.002  0.1796 -0.0976  0.0774
 1101BOLB   C1A26405   0.391  14.981  20.769  0.2436  0.2162 -0.2759
 1101BOLB   C2A26406   0.050  15.153  20.598 -0.0453  0.3191 -0.1796
 1101BOLB   C3A26407  -0.309  15.525  20.671  0.2075  0.1302  0.0836
 1101BOLB   C4A26408  -0.632  15.468  20.545  0.0253  0.0684 -0.0097
 1101BOLB   C1B26409   0.508  15.471  20.654  0.1743 -0.1867  0.1018
 1101BOLB   C2B26410   0.261  15.612  20.295 -0.2611 -0.0493 -0.1374
 1101BOLB   C3B26411   0.125  16.037  20.125 -0.0680  0.1318  0.1537
 1101BOLB   C4B26412  -0.151  16.022  19.770 -0.2713  0.1533  0.1064
 1101BOLB   NC226413  -2.394  15.429  21.545 -0.0255  0.1118 -0.0911
 1101BOLB   PO226414  -2.076  15.027  21.651  0.4727 -0.0804  0.2618
 1101BOLB   GL326415  -1.624  15.000  21.484  0.0387 -0.1293 -0.3749
 1101BOLB   GL426416  -1.385  15.284  21.549 -0.1945 -0.0721 -0.1127
 1101BOLB   C1C26417  -1.417  14.803  21.225 -0.0171 -0.1976 -0.0162
 1101BOLB   C2C26418  -1.167  14.515  21.154 -0.2543 -0.0254 -0.0214
 1101BOLB   C3C26419  -0.896  14.600  20.764 -0.0545  0.0084  0.3049
 1101BOLB   C4C26420  -0.865  14.999  20.509 -0.0915  0.2374  0.0707
 1101BOLB   C1D26421  -1.214  15.362  21.151 -0.1289  0.0229  0.0778
 1101BOLB   C2D26422  -1.068  15.489  20.700  0.0178 -0.0129 -0.0643
 1101BOLB   C3D26423  -1.182  15.318  20.254 -0.0180 -0.1032  0.2221
 1101BOLB   C4D26424  -1.538  15.267  19.904  0.0513 -0.1060  0.1426
 1102BOLB   NC126425   6.508  30.665   2.506 -0.1041 -0.3479  0.2465
 1102BOLB   PO126426   6.745  30.403   2.820  0.0037 -0.1466 -0.1484
 1102BOLB   GL126427   6.545  30.146   3.102  0.0331  0.0726 -0.1946
 1102BOLB   GL226428   6.208  30.032   3.194 -0.0073 -0.1910 -0.1129
 1102BOLB   C1A26429   6.648  29.804   3.277 -0.0024 -0.0320  0.0331
 1102BOLB   C2A26430   6.741  29.456   3.420  0.0407  0.1695  0.1140
 1102BOLB   C3A26431   6.604  29.009   3.368 -0.1303  0.2823 -0.1678
 1102BOLB   C4A26432   6.898  28.600   3.146  0.1929  0.1349 -0.1006
 1102BOLB   C1B26433   6.135  29.607   3.371 -0.1030  0.0486  0.0731
 1102BOLB   C2B26434   6.077  29.220   3.214 -0.1800  0.0250  0.0523
 1102BOLB   C3B26435   6.140  28.866   3.240  0.2084 -0.0947 -0.1943
 1102BOLB   C4B26436   5.996  28.564   3.423 -0.0045  0.0074  0.1574
 1102BOLB   NC226437   8.123  30.001   2.763  0.1013  0.2674  0.0095
 1102BOLB   PO226438   8.341  29.676   2.464 -0.0452  0.1149  0.0842
 1102BOLB   GL326439   8.164  29.344   2.704 -0.1041 -0.3266 -0.1110
 1102BOLB   GL426440   7.960  29.545   2.798 -0.0828 -0.4173  0.1873
 1102BOLB   C1C26441   8.078  28.995   2.764 -0.3205  0.1925 -0.1370
 1102BOLB   C2C26442   7.976  28.731   3.022  0.0380  0.0240 -0.1987
 1102BOLB   C3C26443   7.566  28.535   2.852  0.2181 -0.2146 -0.0151
 1102BOLB   C4C26444   7.201  28.378   2.973  0.1724  0.1866 -0.2355
 1102BOLB   C1D26445   7.987  29.310   3.169 -0.0926 -0.0008 -0.0122
 1102BOLB   C2D26446   8.082  28.884   3.488  0.0638  0.1419 -0.3269
 1102BOLB   C3D26447   7.838  28.506   3.636  0.2709  0.0612 -0.0898
 1102BOLB   C4D26448   7.612  28.227   3.957 -0.2864 -0.0718  0.1825
 1103BOLB   NC126449  30.453  25.470  11.641 -0.2301  0.1884 -0.0096
 1103BOLB   PO126450  30.477  25.354  11.165  0.0594  0.3276 -0.0773
 1103BOLB   GL126451  30.535  24.911  11.171 -0.0164  0.2023 -0.0771
 1103BOLB   GL226452  30.307  24.834  11.118  0.0665  0.2690  0.0553
 1103BOLB   C1A26453  30.828  24.637  11.139  0.1711  0.1994  0.0258
 1103BOLB   C2A26454  31.202  24.697  11.029  0.0239  0.1855 -0.2024
 1103BOLB   C3A26455  31.563  24.537  10.760 -0.4107 -0.0453 -0.2179
 1103BOLB   C4A26456  31.790  24.447  10.352  0.0156  0.0720 -0.1887
 1103BOLB   C1B26457  30.393  24.441  11.055  0.0428 -0.1081 -0.3134
 1103BOLB   C2B26458  30.603  24.208  11.199  0.1290  0.3207 -0.0955
 1103BOLB   C3B26459  31.081  24.185  11.384 -0.1363  0.1775 -0.0954
 1103BOLB   C4B26460  31.438  23.981  11.494 -0.0352  0.1582 -0.3969
 1103BOLB   NC226461  31.380  26.343   9.032 -0.1054 -0.2483  0.0248
 1103BOLB   PO226462  31.671  26.096   9.169  0.0246  0.2773  0.1089
 1103BOLB   GL326463  31.905  25.767   9.423  0.1867  0.2625  0.1288
 1103BOLB   GL426464  31.652  25.484   9.393  0.2312 -0.3485  0.1025
 1103BOLB   C1C26465  32.183  25.704   9.721 -0.1965 -0.0462 -0.0269
 1103BOLB   C2C26466  32.389  25.368   9.818 -0.0748 -0.0802 -0.0321
 1103BOLB   C3C26467  32.341  24.893   9.862  0.2850  0.1798 -0.1516
 1103BOLB   C4C26468  32.154  24.554   9.999  0.1864 -0.0359  0.2341
 1103BOLB   C1D26469  31.656  25.037   9.177  0.1443  0.1419  0.2470
 1103BOLB   C2D26470  31.731  24.615   9.082 -0.0779 -0.0583 -0.0627
 1103BOLB   C3D26471  31.867  24.334   8.963 -0.0139  0.1244 -0.0299
 1103BOLB   C4D26472  32.158  24.071   9.356 -0.0337 -0.3584 -0.1082
 1104BOLB   NC126473  13.330  25.467  13.615 -0.2020  0.1329  0.2215
 1104BOLB   PO126474  13.109  25.828  13.467  0.0604  0.0220 -0.0752
 1104BOLB   GL126475  13.211  25.984  13.837 -0.0106 -0.0236 -0.0869
 1104BOLB   GL226476  13.529  25.930  13.742 -0.1883  0.3057 -0.1680
 1104BOLB   C1A26477  13.339  26.180  14.196 -0.0672  0.0478  0.2625
 1104BOLB   C2A26478  13.575  26.463  14.303  0.0513  0.1513  0.1275
 1104BOLB   C3A26479  13.603  26.929  14.322  0.3124 -0.1288 -0.0039
 1104BOLB   C4A26480  13.835  27.273  14.311  0.1717 -0.1669 -0.0043
 1104BOLB   C1B26481  13.945  26.243  13.977 -0.3554 -0.0563 -0.0231
 1104BOLB   C2B26482  14.409  26.241  14.060  0.0575  0.1204  0.0124
 1104BOLB   C3B26483  14.832  26.545  14.040 -0.0272 -0.2677  0.1435
 1104BOLB   C4B26484  15.067  26.932  13.815 -0.0023 -0.0596 -0.0774
 1104BOLB   NC226485  15.115  28.904  15.155 -0.0050  0.0043 -0.3677
 1104BOLB   PO226486  14.697  28.829  15.421  0.3407  0.1238 -0.0449
 1104BOLB   GL326487  14.485  28.527  15.288  0.2027  0.1604 -0.0740
 1104BOLB   GL426488  14.208  28.614  15.394 -0.0455 -0.0066 -0.1340
 1104BOLB   C1C26489  14.366  28.341  14.979  0.3618 -0.4195 -0.0604
 1104BOLB   C2C26490  14.094  28.170  14.608  0.1981 -0.1006 -0.0417
 1104BOLB   C3C26491  14.082  27.975  14.266 -0.0599  0.1088 -0.0724
 1104BOLB   C4C26492  13.987  27.555  14.177  0.3228 -0.0316  0.4100
 1104BOLB   C1D26493  13.877  28.771  15.385 -0.0707  0.0624  0.0441
 1104BOLB   C2D26494  13.531  28.756  15.170 -0.0342  0.0727 -0.0772
 1104BOLB   C3D26495  13.134  28.837  15.056  0.1458  0.2149 -0.2116
 1104BOLB   C4D26496  12.819  28.795  14.820  0.0319 -0.2957  0.1676
 1105BOLB   NC126497  13.710  19.980  20.497 -0.0163 -0.0259 -0.3487
 1105BOLB   PO126498  14.038  19.704  20.609 -0.3847  0.0732  0.0114
 1105BOLB   GL126499  13.938  19.705  20.136  0.1947 -0.1360 -0.0883
 1105BOLB   GL226500  13.636  19.656  20.008  0.0068 -0.4301 -0.0691
 1105BOLB   C1A26501  13.878  20.041  19.763  0.2564 -0.0902  0.1151
 1105BOLB   C2A26502  13.883  20.075  19.350  0.2101 -0.4495 -0.0723
 1105BOLB   C3A26503  13.570  20.257  19.054  0.0525  0.3876 -0.0474
 1105BOLB   C4A26504  13.342  20.529  18.869  0.0932 -0.0291 -0.1430
 1105BOLB   C1B26505  13.704  19.621  19.497  0.2732  0.2919 -0.1176
 1105BOLB   C2B26506  13.679  19.716  19.087 -0.0349 -0.1331 -0.3027
 1105BOLB   C3B26507  13.586  19.855  18.756  0.0072 -0.0753 -0.0209
 1105BOLB   C4B26508  13.605  20.225  18.553  0.1759  0.2110  0.2811
 1105BOLB   NC226509  13.622  21.529  20.321 -0.1347  0.0093  0.1625
 1105BOLB   PO226510  13.480  21.482  20.784 -0.1680  0.1328  0.0081
 1105BOLB   GL326511  13.247  21.285  20.497 -0.2743 -0.0870  0.0541
 1105BOLB   GL426512  13.085  21.630  20.325 -0.0287 -0.2382 -0.1340
 1105BOLB   C1C26513  13.058  21.145  20.192 -0.0173  0.0079  0.0490
 1105BOLB   C2C26514  13.009  21.010  19.798 -0.0425 -0.1595  0.1348
 1105BOLB   C3C26515  12.854  20.875  19.329 -0.0657 -0.0239 -0.3937
 1105BOLB   C4C26516  13.053  20.860  18.914 -0.1753 -0.1911 -0.3316
 1105BOLB   C1D26517  13.100  21.600  19.934 -0.3211  0.0241 -0.1429
 1105BOLB   C2D26518  12.772  21.876  19.951  0.1645 -0.0156 -0.0016
 1105BOLB   C3D26519  12.479  22.158  19.917  0.1235  0.0902 -0.1315
 1105BOLB   C4D26520  12.122  22.357  19.891  0.2859 -0.1027 -0.1885
 1106BOLB   NC126521  15.783  21.166   0.754 -0.5468  0.1504  0.0752
 1106BOLB   PO126522  15.984  21.151   1.093 -0.0934 -0.1754 -0.3287
 1106BOLB   GL126523  15.682  20.905   1.125  0.0306 -0.1181  0.0805
 1106BOLB   GL226524  15.438  21.045   1.199 -0.3718 -0.0073  0.2805
 1106BOLB   C1A26525  15.491  20.640   1.458 -0.1506  0.1894  0.3259
 1106BOLB   C2A26526  15.275  20.364   1.791 -0.0156 -0.0969  0.1308
 1106BOLB   C3A26527  15.029  20.530   2.087 -0.2534 -0.1672  0.1317
 1106BOLB   C4A26528  14.845  20.784   2.373  0.0415  0.0036 -0.0089
 1106BOLB   C1B26529  15.110  21.107   1.511 -0.2976 -0.2454  0.0448
 1106BOLB   C2B26530  14.904  20.892   1.832  0.2393 -0.0612  0.0946
 1106BOLB   C3B26531  14.525  20.607   1.957  0.1452 -0.1812  0.0166
 1106BOLB   C4B26532  14.168  20.443   1.703 -0.3165 -0.3162 -0.0491
 1106BOLB   NC226533  14.525  21.550   0.383 -0.0914 -0.0234 -0.0399
 1106BOLB   PO226534  14.939  21.531   0.403 -0.1809  0.0967 -0.2348
 1106BOLB   GL326535  14.814  21.336   0.799  0.2820 -0.1186  0.0094
 1106BOLB   GL426536  14.466  21.547   0.894 -0.1956 -0.0251  0.1540
 1106BOLB   C1C26537  14.749  21.007   0.991 -0.0908 -0.2805  0.0132
 1106BOLB   C2C26538  14.580  20.901   1.394 -0.1109  0.0270 -0.1342
 1106BOLB   C3C26539  14.401  21.052   1.795  0.3393 -0.1840 -0.1525
 1106BOLB   C4C26540  14.488  20.973   2.316  0.1105 -0.1751  0.0714
 1106BOLB   C1D26541  14.402  21.804   1.352 -0.1486  0.0371 -0.1126
 1106BOLB   C2D26542  14.277  21.747   1.730  0.0540  0.1484  0.0093
 1106BOLB   C3D26543  13.928  21.752   2.050 -0.3727 -0.0199 -0.1130
 1106BOLB   C4D26544  13.644  22.046   2.214  0.2790 -0.0098  0.0556
 1107BOLB   NC126545   5.546  29.760  19.478  0.2593  0.0020 -0.3468
 1107BOLB   PO126546   5.543  29.607  19.016  0.2139 -0.1407 -0.1179
 1107BOLB   GL126547   5.774  29.340  18.892 -0.3045 -0.2695  0.1577
 1107BOLB   GL226548   5.763  29.046  19.109 -0.0431  0.0160 -0.1002
 1107BOLB   C1A26549   5.847  29.173  18.531  0.1598  0.0451  0.0833
 1107BOLB   C2A26550   5.700  28.871  18.305 -0.0265  0.3987  0.2844
 1107BOLB   C3A26551   5.363  28.678  18.036  0.2590 -0.1910 -0.2559
 1107BOLB   C4A26552   5.057  28.745  17.654  0.0157 -0.0125  0.1638
 1107BOLB   C1B26553   5.466  28.863  18.770 -0.2036 -0.0680 -0.0152
 1107BOLB   C2B26554   5.371  28.609  18.572 -0.1014 -0.0368  0.1726
 1107BOLB   C3B26555   5.213  28.215  18.613 -0.1167 -0.1678 -0.1990
 1107BOLB   C4B26556   5.247  27.802  18.664 -0.2167  0.1189 -0.0474
 1107BOLB   NC226557   4.088  30.796  17.512 -0.2085  0.1614 -0.3551
 1107BOLB   PO226558   4.136  30.597  17.861  0.2204  0.1578  0.3139
 1107BOLB   GL326559   4.388  30.289  17.966  0.1756 -0.0568  0.1387
 1107BOLB   GL426560   4.670  30.451  17.942 -0.1062  0.3131  0.2279
 1107BOLB   C1C26561   4.482  29.905  17.709 -0.1688  0.2933  0.1148
 1107BOLB   C2C26562   4.634  29.761  17.381 -0.2147  0.2956 -0.0026
 1107BOLB   C3C26563   4.871  29.382  17.146 -0.2184  0.3467  0.0354
 1107BOLB   C4C26564   4.981  28.939  17.268 -0.1716  0.3369  0.2501
 1107BOLB   C1D26565   4.723  30.359  17.575  0.1464  0.3484 -0.0853
 1107BOLB   C2D26566   4.996  30.184  17.239 -0.1042 -0.1329  0.1554
 1107BOLB   C3D26567   4.840  29.922  16.947  0.6603 -0.0469 -0.1924
 1107BOLB   C4D26568   4.659  29.999  16.597  0.0082 -0.0963 -0.2902
 1108BOLB   NC126569   2.180  32.496  10.995 -0.3834 -0.1571 -0.1271
 1108BOLB   PO126570   1.989  32.088  11.175 -0.1180 -0.4194 -0.1157
 1108BOLB   GL126571   2.077  31.653  11.207 -0.2151 -0.0420 -0.1802
 1108BOLB   GL226572   2.102  31.652  10.883 -0.1805 -0.0651  0.2434
 1108BOLB   C1A26573   2.295  31.523  11.526 -0.0975 -0.3435  0.0842
 1108BOLB   C2A26574   2.606  31.158  11.698  0.3043 -0.1464  0.0848
 1108BOLB   C3A26575   2.950  30.827  11.806  0.0171 -0.2168 -0.0153
 1108BOLB   C4A26576   3.351  30.850  11.914 -0.2551 -0.1272  0.0765
 1108BOLB   C1B26577   1.944  31.159  10.895  0.2972 -0.1319 -0.0945
 1108BOLB   C2B26578   1.951  30.819  10.994 -0.5472 -0.3225  0.0378
 1108BOLB   C3B26579   2.170  30.579  11.273  0.1423  0.0962  0.2125
 1108BOLB   C4B26580   2.101  30.218  11.389  0.0519 -0.1638  0.1813
 1108BOLB   NC226581   3.548  33.029  10.578  0.1945 -0.1530  0.0146
 1108BOLB   PO226582   3.393  32.859  11.054 -0.1058  0.0154 -0.0994
 1108BOLB   GL326583   3.698  32.590  11.099 -0.2917  0.0556  0.2383
 1108BOLB   GL426584   3.809  32.325  10.932  0.1899 -0.1088  0.1772
 1108BOLB   C1C26585   3.720  32.079  11.364  0.1222 -0.0988 -0.0715
 1108BOLB   C2C26586   4.067  31.794  11.471 -0.0632 -0.0410  0.1465
 1108BOLB   C3C26587   3.992  31.427  11.871  0.0768 -0.0157 -0.0278
 1108BOLB   C4C26588   3.786  30.922  11.992  0.2540  0.1922  0.0405
 1108BOLB   C1D26589   3.749  31.941  10.808 -0.1628  0.0354 -0.1537
 1108BOLB   C2D26590   3.765  31.445  10.685  0.2146 -0.0484 -0.3371
 1108BOLB   C3D26591   3.793  31.043  10.931 -0.2190  0.0538  0.0441
 1108BOLB   C4D26592   3.944  30.650  10.797  0.1431  0.1285  0.1489
 1109BOLB   NC126593  14.996  19.633   9.312  0.0723 -0.0012 -0.1131
 1109BOLB   PO126594  15.037  19.530   8.878  0.0306  0.3276  0.2497
 1109BOLB   GL126595  15.339  19.228   8.934 -0.0292  0.0159 -0.0558
 1109BOLB   GL226596  15.285  19.099   8.720 -0.0008 -0.1178 -0.3059
 1109BOLB   C1A26597  15.709  18.894   9.159  0.1298 -0.1960 -0.1953
 1109BOLB   C2A26598  16.180  18.936   9.134 -0.0198 -0.1119  0.2137
 1109BOLB   C3A26599  16.483  19.186   9.354 -0.2076  0.1252 -0.0356
 1109BOLB   C4A26600  16.794  19.059   9.501 -0.1591  0.0259  0.0000
 1109BOLB   C1B26601  15.668  18.875   8.689 -0.1634  0.0591 -0.0805
 1109BOLB   C2B26602  15.993  18.581   8.769  0.1032  0.0399 -0.0765
 1109BOLB   C3B26603  16.334  18.271   8.903  0.2023 -0.0972  0.0430
 1109BOLB   C4B26604  16.659  18.131   9.181  0.2657  0.2036  0.0791
 1109BOLB   NC226605  18.406  17.552  10.202 -0.0793  0.1398 -0.0326
 1109BOLB   PO226606  18.441  17.927  10.035 -0.0519 -0.3153  0.2037
 1109BOLB   GL326607  18.055  18.104   9.887 -0.2517  0.0923  0.0087
 1109BOLB   GL426608  17.971  18.263  10.171 -0.4926 -0.1025  0.1548
 1109BOLB   C1C26609  17.684  17.960   9.849 -0.1472 -0.1022  0.0011
 1109BOLB   C2C26610  17.314  18.107   9.775  0.1800 -0.2965  0.0347
 1109BOLB   C3C26611  16.931  18.334   9.585 -0.0943 -0.0746 -0.0461
 1109BOLB   C4C26612  16.938  18.755   9.660 -0.1251  0.2260 -0.2450
 1109BOLB   C1D26613  17.516  18.305  10.241 -0.3556 -0.3520  0.2440
 1109BOLB   C2D26614  17.033  18.204  10.164 -0.1331  0.0830  0.3136
 1109BOLB   C3D26615  16.708  17.916  10.259 -0.1737  0.1788 -0.0172
 1109BOLB   C4D26616  16.204  17.827   9.985 -0.2685 -0.2968 -0.1300
 1110BOLB   NC126617  28.705  21.377   8.812 -0.6520 -0.2398 -0.1032
 1110BOLB   PO126618  28.888  21.191   9.176 -0.1468  0.0305 -0.0161
 1110BOLB   GL126619  29.322  20.944   9.247  0.1487  0.3699 -0.1159
 1110BOLB   GL226620  29.460  20.583   9.131 -0.1888  0.3509 -0.1518
 1110BOLB   C1A26621  29.806  20.919   9.217  0.1358  0.1075  0.1423
 1110BOLB   C2A26622  30.239  21.094   9.247  0.1226  0.0166 -0.2002
 1110BOLB   C3A26623  30.666  21.113   9.263  0.0054  0.0770 -0.2006
 1110BOLB   C4A26624  30.909  20.820   9.599 -0.3324 -0.3528 -0.0624
 1110BOLB   C1B26625  29.892  20.418   9.234  0.0232  0.1774 -0.1481
 1110BOLB   C2B26626  30.252  20.178   9.296 -0.0123  0.0761  0.1316
 1110BOLB   C3B26627  30.605  19.904   9.367 -0.0776 -0.0858  0.2251
 1110BOLB   C4B26628  30.743  19.349   9.190  0.0506  0.1229 -0.0827
 1110BOLB   NC226629  29.114  20.319  10.050  0.3787  0.1409 -0.0746
 1110BOLB   PO226630  29.091  19.999  10.329  0.1740  0.2265  0.0136
 1110BOLB   GL326631  29.604  20.115  10.102  0.0077  0.0195 -0.1794
 1110BOLB   GL426632  29.547  20.234   9.738  0.2001  0.2240 -0.2716
 1110BOLB   C1C26633  30.102  20.113  10.217 -0.1220  0.1663 -0.3023
 1110BOLB   C2C26634  30.518  19.958  10.285 -0.0197 -0.2844 -0.0111
 1110BOLB   C3C26635  30.910  20.166  10.200 -0.0452 -0.0076 -0.0635
 1110BOLB   C4C26636  31.086  20.474   9.840 -0.4509 -0.6536 -0.0710
 1110BOLB   C1D26637  30.005  20.077   9.738  0.2522  0.2217 -0.0359
 1110BOLB   C2D26638  30.365  19.781   9.839 -0.0297 -0.0283  0.0098
 1110BOLB   C3D26639  30.814  19.738   9.836  0.3742  0.1473  0.4742
 1110BOLB   C4D26640  31.118  19.724  10.027  0.0380 -0.2142 -0.0784
 1111BOLB   NC126641  11.929  16.987  12.705  0.0515  0.0513 -0.1194
 1111BOLB   PO126642  12.000  16.713  13.021 -0.0366 -0.1538 -0.0279
 1111BOLB   GL126643  12.366  16.566  12.912  0.0233 -0.0467  0.0320
 1111BOLB   GL226644  12.431  16.468  13.124 -0.1931  0.3049  0.2056
 1111BOLB   C1A26645  12.634  16.189  12.788 -0.0586  0.2521 -0.3068
 1111BOLB   C2A26646  12.927  15.832  12.815  0.0071  0.0184 -0.0930
 1111BOLB   C3A26647  13.274  15.668  12.570  0.1144 -0.1136 -0.1279
 1111BOLB   C4A26648  13.589  15.517  12.718 -0.1114  0.1038  0.3944
 1111BOLB   C1B26649  12.656  16.330  13.490  0.0331 -0.0947 -0.2031
 1111BOLB   C2B26650  12.739  16.049  13.848  0.1616 -0.1417 -0.0545
 1111BOLB   C3B26651  12.860  15.876  14.214  0.2933  0.3276 -0.1198
 1111BOLB   C4B26652  13.057  15.976  14.573  0.1355 -0.0661 -0.1211
 1111BOLB   NC226653  14.561  13.644  13.614  0.0500 -0.0665 -0.0315
 1111BOLB   PO226654  14.914  13.832  13.630 -0.0962  0.0236  0.0704
 1111BOLB   GL326655  14.555  14.240  13.625 -0.2121 -0.1031 -0.0021
 1111BOLB   GL426656  14.424  14.367  14.036  0.2271  0.0770 -0.1819
 1111BOLB   C1C26657  14.150  14.330  13.613 -0.0890 -0.0250 -0.0734
 1111BOLB   C2C26658  13.887  14.510  13.267  0.0662 -0.2538 -0.2293
 1111BOLB   C3C26659  13.929  14.884  13.070  0.1636 -0.0797 -0.0473
 1111BOLB   C4C26660  13.668  15.258  12.963  0.2016  0.3148  0.2496
 1111BOLB   C1D26661  14.457  14.691  13.878  0.1512  0.0902  0.0917
 1111BOLB   C2D26662  14.438  14.786  13.471  0.0268 -0.2723  0.0546
 1111BOLB   C3D26663  14.405  15.223  13.287  0.1096  0.1235 -0.1867
 1111BOLB   C4D26664  14.428  15.653  13.191  0.4539 -0.2086  0.4598
 1112BOLB   NC126665   8.985  13.307   0.851  0.0029  0.1722  0.0616
 1112BOLB   PO126666   9.170  12.925   0.992 -0.0273 -0.0537 -0.1340
 1112BOLB   GL126667   9.035  13.140   1.407 -0.2137  0.1983 -0.1917
 1112BOLB   GL226668   9.067  13.452   1.383 -0.2912 -0.2200 -0.1475
 1112BOLB   C1A26669   9.329  13.250   1.714 -0.2292 -0.2219 -0.0737
 1112BOLB   C2A26670   9.802  13.113   1.759 -0.1941  0.2033 -0.0681
 1112BOLB   C3A26671  10.318  13.142   1.892  0.2057  0.1848 -0.0280
 1112BOLB   C4A26672  10.235  13.507   2.182 -0.0705  0.1023  0.0620
 1112BOLB   C1B26673   9.106  13.774   1.614  0.0055 -0.0065 -0.0349
 1112BOLB   C2B26674   8.827  14.016   1.918  0.1770  0.3491 -0.1905
 1112BOLB   C3B26675   8.760  14.264   2.290 -0.0173  0.3824  0.1490
 1112BOLB   C4B26676   8.387  14.079   2.564  0.2887 -0.0926  0.1797
 1112BOLB   NC226677   8.211  13.210   0.791  0.4023  0.1205  0.0539
 1112BOLB   PO226678   8.103  12.979   1.188  0.1924  0.0064  0.1371
 1112BOLB   GL326679   8.189  13.139   1.503 -0.5010 -0.1307 -0.2301
 1112BOLB   GL426680   7.950  13.221   1.629 -0.0046  0.1110 -0.0216
 1112BOLB   C1C26681   8.596  13.230   1.703 -0.0982  0.0514  0.0088
 1112BOLB   C2C26682   8.887  13.377   1.953  0.0020 -0.0236 -0.0446
 1112BOLB   C3C26683   9.207  13.651   2.163  0.0815  0.2890 -0.1821
 1112BOLB   C4C26684   9.704  13.604   2.229 -0.3335  0.2495  0.0376
 1112BOLB   C1D26685   7.979  13.442   1.999 -0.2496  0.1435  0.0163
 1112BOLB   C2D26686   7.965  13.807   2.279 -0.1351 -0.0962 -0.0480
 1112BOLB   C3D26687   7.707  14.185   2.422 -0.0581 -0.1298  0.1705
 1112BOLB   C4D26688   7.653  14.496   2.663 -0.1696 -0.2080  0.3408
 1113BOLB   NC126689  13.998  21.301  13.576  0.1161  0.1229 -0.0938
 1113BOLB   PO126690  14.403  21.113  13.644 -0.1357 -0.0367 -0.0019
 1113BOLB   GL126691  14.861  21.053  13.639  0.0652 -0.0146 -0.2904
 1113BOLB   GL226692  15.159  20.906  13.345  0.0376 -0.1248 -0.0360
 1113BOLB   C1A26693  15.389  21.083  13.779  0.1506 -0.0089 -0.4089
 1113BOLB   C2A26694  15.644  21.393  13.986  0.1316  0.0781  0.1110
 1113BOLB   C3A26695  15.641  21.653  14.302 -0.2519  0.1549 -0.1336
 1113BOLB   C4A26696  15.660  21.921  14.666  0.1951  0.0688  0.3351
 1113BOLB   C1B26697  15.603  20.804  13.393 -0.1127  0.1965  0.0319
 1113BOLB   C2B26698  15.950  20.872  13.617 -0.1849  0.1456  0.3110
 1113BOLB   C3B26699  16.397  20.691  13.520 -0.0276 -0.0653 -0.0402
 1113BOLB   C4B26700  16.634  20.328  13.374 -0.3977 -0.1963 -0.2337
 1113BOLB   NC226701  17.625  22.326  15.533 -0.2588 -0.0135 -0.0596
 1113BOLB   PO226702  17.685  21.859  15.515 -0.2385 -0.1126  0.1574
 1113BOLB   GL326703  17.432  21.672  15.351 -0.0227  0.1252 -0.1788
 1113BOLB   GL426704  17.577  21.290  15.362  0.1317 -0.0264 -0.1768
 1113BOLB   C1C26705  17.024  21.593  15.250 -0.0684  0.0553  0.0127
 1113BOLB   C2C26706  16.617  21.594  15.057  0.3356  0.2419 -0.0648
 1113BOLB   C3C26707  16.487  21.981  14.932 -0.0779 -0.0241 -0.3299
 1113BOLB   C4C26708  16.054  22.068  14.827  0.0229 -0.0455  0.0529
 1113BOLB   C1D26709  17.170  21.169  15.407 -0.0381  0.2509 -0.2849
 1113BOLB   C2D26710  16.799  21.386  15.663  0.1375  0.1423 -0.0510
 1113BOLB   C3D26711  16.498  21.622  15.550  0.0692 -0.2550  0.1331
 1113BOLB   C4D26712  16.173  22.058  15.696  0.2225 -0.0209  0.0098
 1114BOLB   NC126713   0.322  26.155  11.239 -0.1955  0.0441  0.0831
 1114BOLB   PO126714   0.035  25.859  11.327 -0.1186 -0.2374 -0.2939
 1114BOLB   GL126715  -0.159  26.352  11.404  0.0439  0.0201 -0.1416
 1114BOLB   GL226716  -0.164  26.499  11.724 -0.1560 -0.0619 -0.1396
 1114BOLB   C1A26717  -0.345  26.686  11.154 -0.1630 -0.0407  0.2072
 1114BOLB   C2A26718  -0.616  27.119  11.036  0.0043 -0.1781 -0.1895
 1114BOLB   C3A26719  -0.711  27.554  10.974  0.1522 -0.0467 -0.4050
 1114BOLB   C4A26720  -1.055  27.728  10.838  0.1113  0.1350  0.1595
 1114BOLB   C1B26721  -0.406  26.732  11.979  0.2346  0.0339 -0.0967
 1114BOLB   C2B26722  -0.376  27.047  12.410  0.0762  0.0635  0.0502
 1114BOLB   C3B26723  -0.777  27.166  12.523  0.1572  0.0805 -0.0854
 1114BOLB   C4B26724  -1.191  27.078  12.514  0.1380  0.2285 -0.2204
 1114BOLB   NC226725  -1.965  29.329  12.135  0.0538  0.1293  0.3931
 1114BOLB   PO226726  -2.417  29.086  12.113  0.0345 -0.1644 -0.2572
 1114BOLB   GL326727  -2.386  28.786  11.780  0.2058  0.3189 -0.0974
 1114BOLB   GL426728  -2.618  28.519  11.765 -0.0188 -0.3447 -0.2507
 1114BOLB   C1C26729  -2.216  28.473  11.474 -0.3510  0.0641 -0.0909
 1114BOLB   C2C26730  -2.091  28.413  11.114  0.0430  0.1300  0.0694
 1114BOLB   C3C26731  -1.870  28.167  10.802  0.0737  0.0931  0.1211
 1114BOLB   C4C26732  -1.468  27.851  10.806 -0.2119  0.1069  0.2959
 1114BOLB   C1D26733  -2.360  28.110  11.725  0.1975  0.0579  0.0451
 1114BOLB   C2D26734  -2.246  27.949  11.257 -0.0680  0.4807  0.3415
 1114BOLB   C3D26735  -2.356  27.845  10.814 -0.4644 -0.0692  0.1961
 1114BOLB   C4D26736  -2.614  27.571  10.524 -0.2257  0.0962 -0.0774
 1115BOLB   NC126737  10.373  13.848  10.912 -0.0392 -0.2980 -0.0643
 1115BOLB   PO126738  10.435  13.979  11.301 -0.2771  0.1504 -0.1548
 1115BOLB   GL126739  10.829  13.842  11.150 -0.3582  0.3406 -0.0148
 1115BOLB   GL226740  10.979  13.785  10.789 -0.0046 -0.0578  0.3686
 1115BOLB   C1A26741  11.119  13.565  11.205 -0.0215 -0.0480  0.4487
 1115BOLB   C2A26742  11.295  13.104  11.370  0.0722 -0.3068 -0.2241
 1115BOLB   C3A26743  11.289  12.693  11.521 -0.0634  0.4866 -0.0147
 1115BOLB   C4A26744  11.337  12.261  11.541  0.1397 -0.0903 -0.1919
 1115BOLB   C1B26745  11.134  13.321  10.680  0.0851  0.0925 -0.2004
 1115BOLB   C2B26746  10.950  12.951  10.492  0.1741 -0.0880 -0.0262
 1115BOLB   C3B26747  11.007  12.640  10.111  0.1506  0.0760  0.1257
 1115BOLB   C4B26748  11.247  12.434   9.786  0.0509  0.1014  0.0755
 1115BOLB   NC226749  13.635  11.573  12.808 -0.1700 -0.1769 -0.1717
 1115BOLB   PO226750  13.262  11.592  12.539 -0.0618  0.2027  0.4273
 1115BOLB   GL326751  12.781  11.713  12.518 -0.1201 -0.3013 -0.1251
 1115BOLB   GL426752  12.811  11.908  12.822  0.0779 -0.3205 -0.3951
 1115BOLB   C1C26753  12.384  11.882  12.252 -0.1490  0.1321 -0.1078
 1115BOLB   C2C26754  11.994  11.745  12.146  0.0963  0.3144 -0.2999
 1115BOLB   C3C26755  11.670  11.771  12.030  0.1619  0.1083 -0.2151
 1115BOLB   C4C26756  11.459  11.853  11.678 -0.0788 -0.4346  0.0441
 1115BOLB   C1D26757  12.392  11.907  12.944 -0.2190  0.0641 -0.1462
 1115BOLB   C2D26758  11.835  11.832  13.039 -0.0824 -0.0810  0.0430
 1115BOLB   C3D26759  11.456  12.049  13.058 -0.0412 -0.2398  0.3524
 1115BOLB   C4D26760  11.242  12.476  12.934  0.6321 -0.1805 -0.0162
 1116BOLB   NC126761   2.747  23.727   3.673 -0.0916  0.1421 -0.0445
 1116BOLB   PO126762   3.014  23.908   3.328 -0.1598  0.1125  0.0226
 1116BOLB   GL126763   2.679  23.836   3.118  0.2070 -0.1428  0.1664
 1116BOLB   GL226764   2.497  24.084   3.340 -0.0183  0.1113  0.0740
 1116BOLB   C1A26765   2.536  23.735   2.758 -0.3282 -0.0234  0.2005
 1116BOLB   C2A26766   2.322  23.937   2.432 -0.2028 -0.0111  0.2217
 1116BOLB   C3A26767   2.278  24.238   2.153 -0.3178 -0.0298  0.2609
 1116BOLB   C4A26768   2.071  24.204   1.750 -0.1149  0.4009 -0.0221
 1116BOLB   C1B26769   2.483  24.320   2.999  0.0358 -0.2134 -0.1291
 1116BOLB   C2B26770   2.503  24.472   2.581  0.1656 -0.0413 -0.0365
 1116BOLB   C3B26771   2.694  24.624   2.244  0.1356  0.2300 -0.0294
 1116BOLB   C4B26772   2.830  24.949   1.809  0.1260 -0.5266  0.0251
 1116BOLB   NC226773   1.064  24.260  -0.823 -0.1869  0.1520 -0.2585
 1116BOLB   PO226774   0.928  24.103  -0.405  0.1191 -0.0076 -0.2411
 1116BOLB   GL326775   1.252  24.100  -0.172 -0.1337  0.1767  0.0303
 1116BOLB   GL426776   1.435  23.945  -0.191  0.2609 -0.0552 -0.4122
 1116BOLB   C1C26777   1.364  24.024   0.287 -0.3433 -0.0403 -0.3732
 1116BOLB   C2C26778   1.529  23.929   0.699  0.0711 -0.0123  0.0275
 1116BOLB   C3C26779   1.763  24.131   0.922  0.2818  0.2957  0.0768
 1116BOLB   C4C26780   1.914  24.199   1.401 -0.1115  0.0252  0.1669
 1116BOLB   C1D26781   1.632  23.586   0.084  0.2208  0.1432 -0.0273
 1116BOLB   C2D26782   1.847  23.306   0.070  0.0305 -0.2204 -0.0181
 1116BOLB   C3D26783   2.062  22.925  -0.016 -0.0102  0.0346 -0.1479
 1116BOLB   C4D26784   2.176  22.623  -0.316 -0.0772  0.1725  0.1927
 1117BOLB   NC126785   9.432  13.856  11.206 -0.1948  0.0367  0.0160
 1117BOLB   PO126786   9.373  14.060  11.592  0.1017  0.0528  0.0092
 1117BOLB   GL126787   9.594  13.678  11.637 -0.0964 -0.0663 -0.2470
 1117BOLB   GL226788   9.895  13.720  11.815 -0.1235  0.2590 -0.1883
 1117BOLB   C1A26789   9.424  13.160  11.519 -0.1286  0.0208  0.2089
 1117BOLB   C2A26790   9.380  12.788  11.197 -0.2228 -0.1236  0.0338
 1117BOLB   C3A26791   9.536  12.443  11.224  0.2967  0.0262  0.0632
 1117BOLB   C4A26792   9.738  12.070  11.485 -0.1103 -0.2427  0.0989
 1117BOLB   C1B26793   9.898  13.234  11.779 -0.2739 -0.1977 -0.4192
 1117BOLB   C2B26794  10.192  12.854  11.747  0.2109 -0.0675 -0.2063
 1117BOLB   C3B26795  10.394  12.510  11.557  0.0225 -0.0626 -0.2405
 1117BOLB   C4B26796  10.852  12.462  11.529 -0.0101  0.0975  0.2278
 1117BOLB   NC226797   9.963   9.962  12.796 -0.1274  0.1053 -0.0588
 1117BOLB   PO226798   9.897   9.835  12.394  0.0199  0.0373  0.0382
 1117BOLB   GL326799  10.111  10.233  12.399 -0.1195 -0.0183 -0.0249
 1117BOLB   GL426800  10.570  10.298  12.265  0.0933 -0.0379 -0.0142
 1117BOLB   C1C26801  10.169  10.707  12.209 -0.3462 -0.1322  0.2016
 1117BOLB   C2C26802  10.159  11.184  12.181 -0.0396  0.0987 -0.1157
 1117BOLB   C3C26803   9.922  11.435  12.130  0.0625 -0.2771  0.2421
 1117BOLB   C4C26804   9.725  11.744  11.851  0.2251 -0.1417  0.0653
 1117BOLB   C1D26805  10.584  10.585  11.941  0.1735  0.0710  0.0857
 1117BOLB   C2D26806  10.305  10.804  11.686 -0.3058  0.0925  0.0269
 1117BOLB   C3D26807  10.001  10.947  11.360  0.3373  0.2797  0.1527
 1117BOLB   C4D26808   9.836  11.242  11.010  0.3730  0.4443  0.2474
 1118BOLB   NC126809  12.727  23.567  15.360  0.2885 -0.3494  0.2767
 1118BOLB   PO126810  12.684  24.016  15.182 -0.0891 -0.0208 -0.0123
 1118BOLB   GL126811  12.948  24.371  15.203  0.0129 -0.1086 -0.2995
 1118BOLB   GL226812  13.109  24.627  15.155 -0.0474 -0.2926 -0.2414
 1118BOLB   C1A26813  13.218  24.456  15.588 -0.4193  0.3031 -0.0720
 1118BOLB   C2A26814  13.515  24.746  15.744 -0.0270  0.0204 -0.1227
 1118BOLB   C3A26815  13.784  25.004  15.982  0.0662  0.1259 -0.0558
 1118BOLB   C4A26816  14.127  25.274  15.753  0.0398  0.1836 -0.4754
 1118BOLB   C1B26817  13.584  24.721  15.249 -0.0020  0.0833 -0.0040
 1118BOLB   C2B26818  13.976  24.826  15.508 -0.1174 -0.0131  0.0381
 1118BOLB   C3B26819  14.446  24.743  15.595 -0.5633  0.1550 -0.1307
 1118BOLB   C4B26820  14.808  24.924  15.860  0.1025  0.0463  0.2865
 1118BOLB   NC226821  16.684  25.694  16.083 -0.0728  0.3286  0.0121
 1118BOLB   PO226822  16.507  25.984  16.358  0.3669  0.0085  0.3129
 1118BOLB   GL326823  16.198  25.899  15.905  0.0541  0.1700 -0.0722
 1118BOLB   GL426824  16.318  25.934  15.646 -0.1274 -0.0307  0.1711
 1118BOLB   C1C26825  15.837  25.602  15.839 -0.1670 -0.0466  0.0341
 1118BOLB   C2C26826  15.304  25.592  15.922 -0.0051  0.1272  0.0334
 1118BOLB   C3C26827  14.996  25.431  15.659  0.0602  0.2128  0.0501
 1118BOLB   C4C26828  14.591  25.378  15.661  0.1336 -0.0852 -0.0053
 1118BOLB   C1D26829  16.029  25.821  15.341  0.3946  0.0965 -0.1381
 1118BOLB   C2D26830  15.904  25.406  15.147 -0.2900  0.1773 -0.0612
 1118BOLB   C3D26831  15.791  24.971  14.872 -0.0860  0.3441 -0.0254
 1118BOLB   C4D26832  16.002  24.765  14.531 -0.2111  0.1735 -0.0389
 1119BOLB   NC126833   1.478  25.998   6.842 -0.0847 -0.1663  0.1173
 1119BOLB   PO126834   1.003  25.844   6.700  0.2995 -0.1346  0.1980
 1119BOLB   GL126835   0.925  26.288   6.668 -0.0502 -0.1682  0.0762
 1119BOLB   GL226836   0.623  26.575   6.587 -0.0545 -0.2783  0.2720
 1119BOLB   C1A26837   1.093  26.601   6.492 -0.4014 -0.1928 -0.2199
 1119BOLB   C2A26838   1.114  26.773   6.192 -0.0491  0.0121  0.2467
 1119BOLB   C3A26839   1.183  27.088   5.886 -0.1644  0.0491  0.0356
 1119BOLB   C4A26840   1.003  27.405   5.565 -0.1697 -0.2575 -0.2386
 1119BOLB   C1B26841   0.173  26.686   6.420  0.0877 -0.1716  0.2219
 1119BOLB   C2B26842  -0.221  26.829   6.441  0.0462  0.1481  0.1331
 1119BOLB   C3B26843  -0.539  26.764   6.775 -0.0571  0.1233  0.4436
 1119BOLB   C4B26844  -0.564  26.372   6.938 -0.1618 -0.0377 -0.4429
 1119BOLB   NC226845  -0.243  29.523   4.423  0.0621 -0.0073  0.1096
 1119BOLB   PO226846   0.095  29.272   4.460 -0.2741 -0.1120 -0.0872
 1119BOLB   GL326847   0.584  29.115   4.323 -0.0468 -0.0129  0.3456
 1119BOLB   GL426848   0.802  29.190   4.583 -0.1374  0.0648  0.1724
 1119BOLB   C1C26849   0.687  28.721   4.412  0.1533  0.4404  0.0793
 1119BOLB   C2C26850   0.843  28.224   4.508 -0.4610 -0.0126  0.0746
 1119BOLB   C3C26851   0.872  27.872   4.706 -0.0193  0.2751 -0.0573
 1119BOLB   C4C26852   1.000  27.485   5.096  0.1802 -0.0425  0.2537
 1119BOLB   C1D26853   1.024  28.939   4.769  0.1540  0.0386 -0.1541
 1119BOLB   C2D26854   1.429  28.831   4.993  0.1127 -0.0335  0.0410
 1119BOLB   C3D26855   1.662  28.685   5.320 -0.0280 -0.2679 -0.0207
 1119BOLB   C4D26856   1.965  28.957   5.472  0.1282  0.4100  0.1011
 1120BOLB   NC126857   6.260  13.323   7.891 -0.0186  0.0907 -0.3358
 1120BOLB   PO126858   6.330  12.847   7.874  0.0144 -0.0832 -0.2847
 1120BOLB   GL126859   6.620  12.583   8.001 -0.1762 -0.0280  0.1815
 1120BOLB   GL226860   6.483  12.271   8.012  0.0193  0.2612 -0.1879
 1120BOLB   C1A26861   6.905  12.314   7.826 -0.0121  0.0776  0.1833
 1120BOLB   C2A26862   7.095  11.941   7.964 -0.0894 -0.0090  0.1558
 1120BOLB   C3A26863   7.244  11.676   8.315  0.3815  0.1072 -0.2028
 1120BOLB   C4A26864   7.345  11.482   8.792 -0.1832 -0.2580 -0.1090
 1120BOLB   C1B26865   6.619  11.785   7.835  0.0752 -0.1788  0.4104
 1120BOLB   C2B26866   6.960  11.421   7.881  0.0912 -0.0077  0.2204
 1120BOLB   C3B26867   7.008  11.211   8.352 -0.0550  0.2993  0.3435
 1120BOLB   C4B26868   7.036  10.932   8.721  0.0449 -0.1464 -0.1775
 1120BOLB   NC226869   7.456   8.646   9.207  0.0988  0.0233 -0.1116
 1120BOLB   PO226870   7.679   9.072   9.320  0.1239  0.1147  0.3308
 1120BOLB   GL326871   7.766   9.458   9.239  0.2465 -0.0446  0.0643
 1120BOLB   GL426872   7.510   9.492   8.955 -0.1306 -0.3966 -0.0257
 1120BOLB   C1C26873   7.908   9.899   9.223  0.1165 -0.2026 -0.2588
 1120BOLB   C2C26874   7.785  10.332   9.252  0.5456  0.1255 -0.0474
 1120BOLB   C3C26875   7.533  10.602   9.011 -0.0503  0.2525 -0.4352
 1120BOLB   C4C26876   7.493  11.019   8.967  0.1025 -0.0306  0.0009
 1120BOLB   C1D26877   7.614   9.995   8.844 -0.0066  0.1851 -0.0006
 1120BOLB   C2D26878   7.892  10.274   8.762 -0.1957  0.0024 -0.1959
 1120BOLB   C3D26879   8.104  10.552   9.010 -0.2368  0.1886  0.2185
 1120BOLB   C4D26880   8.251  10.784   9.318 -0.1199  0.0485  0.0587
 1121BOLB   NC126881  16.550  27.447   4.633 -0.0231  0.0248  0.1632
 1121BOLB   PO126882  16.350  27.140   4.950  0.1354  0.3200  0.0338
 1121BOLB   GL126883  16.108  26.780   5.135  0.2491  0.2441  0.2183
 1121BOLB   GL226884  16.272  26.625   5.427 -0.1302 -0.0435  0.3466
 1121BOLB   C1A26885  15.675  26.624   5.193  0.0066  0.0194  0.0429
 1121BOLB   C2A26886  15.160  26.593   5.108  0.0173  0.2494  0.0402
 1121BOLB   C3A26887  14.826  26.400   5.355 -0.2355 -0.0482 -0.1363
 1121BOLB   C4A26888  14.486  26.169   5.436 -0.0554 -0.0332  0.4537
 1121BOLB   C1B26889  16.153  26.300   5.173 -0.0274  0.1088 -0.2120
 1121BOLB   C2B26890  15.990  26.012   5.204  0.0442  0.0746  0.0624
 1121BOLB   C3B26891  15.757  25.962   5.431 -0.2060 -0.0113 -0.4259
 1121BOLB   C4B26892  15.450  25.608   5.584  0.0386 -0.1210  0.2018
 1121BOLB   NC226893  12.356  25.590   6.754  0.2704 -0.0203 -0.5371
 1121BOLB   PO226894  12.359  25.989   6.510 -0.1654  0.0093 -0.1156
 1121BOLB   GL326895  12.662  26.140   6.301  0.1541 -0.0559 -0.0552
 1121BOLB   GL426896  12.900  26.049   6.547 -0.1527  0.0375 -0.1395
 1121BOLB   C1C26897  12.916  26.594   6.181  0.3924  0.1906 -0.0362
 1121BOLB   C2C26898  13.293  26.519   5.859 -0.2995 -0.2658 -0.0310
 1121BOLB   C3C26899  13.762  26.377   5.863 -0.0803 -0.3928 -0.4833
 1121BOLB   C4C26900  14.158  26.228   5.660 -0.0916  0.1088  0.0191
 1121BOLB   C1D26901  13.273  26.177   6.324 -0.1698  0.1136  0.3771
 1121BOLB   C2D26902  13.643  25.994   6.161  0.0997 -0.1503 -0.1493
 1121BOLB   C3D26903  13.740  25.846   5.736 -0.0604 -0.0419 -0.0612
 1121BOLB   C4D26904  13.981  25.767   5.296  0.1032 -0.2707 -0.0870
 1122BOLB   NC126905  11.909  32.044   6.043  0.0564 -0.2359  0.1321
 1122BOLB   PO126906  11.583  31.802   6.254 -0.1937 -0.0681  0.0986
 1122BOLB   GL126907  11.373  31.382   6.471 -0.2344 -0.1627  0.1131
 1122BOLB   GL226908  11.364  31.321   6.711  0.1801 -0.1252 -0.2185
 1122BOLB   C1A26909  11.276  30.881   6.523 -0.0061  0.1492 -0.0971
 1122BOLB   C2A26910  11.161  30.494   6.597 -0.0384  0.0928  0.2191
 1122BOLB   C3A26911  10.868  30.272   6.704  0.0159  0.3230  0.2798
 1122BOLB   C4A26912  10.484  29.935   6.572 -0.1174 -0.2679  0.0135
 1122BOLB   C1B26913  11.401  31.174   7.139 -0.2773 -0.1112  0.1041
 1122BOLB   C2B26914  11.175  30.793   7.322 -0.0827  0.0830 -0.1621
 1122BOLB   C3B26915  11.141  30.543   7.712  0.0039  0.0783  0.1588
 1122BOLB   C4B26916  11.226  30.371   8.224 -0.1714 -0.0555 -0.2145
 1122BOLB   NC226917   8.578  28.238   6.884 -0.3698  0.0358  0.2557
 1122BOLB   PO226918   8.748  28.443   7.286 -0.1210 -0.3151  0.0337
 1122BOLB   GL326919   8.947  28.859   7.287  0.2882  0.0654 -0.2061
 1122BOLB   GL426920   8.781  29.083   7.275 -0.0462 -0.1012  0.3250
 1122BOLB   C1C26921   9.297  29.037   7.162  0.1915  0.0777 -0.0369
 1122BOLB   C2C26922   9.531  29.272   6.885 -0.2662 -0.1990  0.0286
 1122BOLB   C3C26923   9.955  29.457   6.832 -0.2646 -0.0665 -0.0562
 1122BOLB   C4C26924  10.161  29.705   6.682  0.0245  0.1410 -0.1407
 1122BOLB   C1D26925   8.747  29.183   6.850 -0.1360  0.0122 -0.1304
 1122BOLB   C2D26926   8.725  29.536   6.516  0.2104 -0.0088  0.0465
 1122BOLB   C3D26927   8.511  29.687   6.130  0.1475 -0.1906  0.0990
 1122BOLB   C4D26928   8.527  29.863   5.687  0.0656  0.0900  0.1424
 1123BOLB   NC126929   2.573  24.900  16.439 -0.2414  0.2402  0.1113
 1123BOLB   PO126930   2.655  25.345  16.424  0.2218 -0.0854 -0.1596
 1123BOLB   GL126931   2.346  25.264  16.601  0.1682 -0.3107  0.1840
 1123BOLB   GL226932   2.064  25.606  16.581 -0.0900 -0.0385  0.0453
 1123BOLB   C1A26933   2.266  25.254  17.061 -0.0984 -0.0772 -0.1226
 1123BOLB   C2A26934   1.978  25.362  17.281 -0.1811 -0.0694  0.2961
 1123BOLB   C3A26935   1.964  25.540  17.649  0.0782 -0.2635  0.0650
 1123BOLB   C4A26936   1.503  25.518  17.711 -0.2226  0.3635  0.3087
 1123BOLB   C1B26937   2.105  25.765  16.968  0.2849 -0.0352  0.1657
 1123BOLB   C2B26938   1.820  25.869  17.241  0.2174 -0.0067  0.2729
 1123BOLB   C3B26939   1.999  26.196  17.498  0.3955  0.0282  0.0678
 1123BOLB   C4B26940   2.047  26.631  17.487  0.0214  0.0711 -0.0299
 1123BOLB   NC226941   0.504  26.707  19.668 -0.1559 -0.2526  0.0499
 1123BOLB   PO226942   0.174  26.398  19.640 -0.0795 -0.0176  0.1176
 1123BOLB   GL326943   0.355  26.341  19.249  0.0217 -0.1937  0.0522
 1123BOLB   GL426944   0.647  26.568  19.216 -0.2662  0.0686 -0.1156
 1123BOLB   C1C26945   0.322  26.358  18.823 -0.1703 -0.0183  0.0590
 1123BOLB   C2C26946   0.548  26.046  18.509 -0.1519 -0.1283 -0.1056
 1123BOLB   C3C26947   0.844  25.798  18.213 -0.0207 -0.2766  0.0694
 1123BOLB   C4C26948   1.125  25.790  17.924  0.2655 -0.2202  0.1440
 1123BOLB   C1D26949   0.944  26.506  18.886  0.2104  0.1040  0.1586
 1123BOLB   C2D26950   0.982  26.104  18.634  0.4287 -0.0396  0.1957
 1123BOLB   C3D26951   1.175  25.674  18.532  0.3389  0.0273 -0.1362
 1123BOLB   C4D26952   1.336  25.416  18.195  0.1740  0.1795  0.2012
 1124BOLB   NC126953  37.780  24.114   9.261  0.0964  0.1048  0.0926
 1124BOLB   PO126954  37.499  24.329   8.981  0.1080  0.0011 -0.3289
 1124BOLB   GL126955  37.331  24.723   8.997 -0.2968 -0.2098 -0.0863
 1124BOLB   GL226956  37.311  24.938   8.674 -0.3636  0.0063 -0.1488
 1124BOLB   C1A26957  36.910  24.861   8.965 -0.0449  0.2130 -0.1658
 1124BOLB   C2A26958  36.639  25.235   8.763  0.0249  0.3352  0.2818
 1124BOLB   C3A26959  36.400  25.668   8.770  0.1115  0.0021  0.1185
 1124BOLB   C4A26960  36.059  25.988   8.796 -0.1857  0.0315 -0.0476
 1124BOLB   C1B26961  37.078  24.961   8.365 -0.0381 -0.0873 -0.0357
 1124BOLB   C2B26962  36.616  25.126   8.213 -0.2270  0.0210  0.0565
 1124BOLB   C3B26963  36.327  25.399   8.228  0.1675 -0.0035 -0.2854
 1124BOLB   C4B26964  35.972  25.670   8.404  0.2925 -0.3132  0.2495
 1124BOLB   NC226965  35.230  28.097   9.022  0.1567 -0.1674  0.0761
 1124BOLB   PO226966  34.982  27.933   8.784 -0.1144  0.0176 -0.3232
 1124BOLB   GL326967  35.226  27.617   8.866  0.2253  0.0141 -0.0897
 1124BOLB   GL426968  35.532  27.565   8.987 -0.3747  0.1791 -0.1332
 1124BOLB   C1C26969  35.230  27.172   8.845  0.1829  0.1001 -0.2089
 1124BOLB   C2C26970  35.247  26.733   8.727  0.0099 -0.1595 -0.1713
 1124BOLB   C3C26971  35.376  26.330   8.652  0.0575 -0.3850  0.2664
 1124BOLB   C4C26972  35.752  26.257   8.739  0.0226 -0.3356 -0.0998
 1124BOLB   C1D26973  35.686  27.113   8.931 -0.1107 -0.0765  0.0753
 1124BOLB   C2D26974  35.851  26.664   9.018  0.1656  0.2485  0.1727
 1124BOLB   C3D26975  36.112  26.289   9.181  0.0272  0.0868 -0.0152
 1124BOLB   C4D26976  36.211  25.819   9.227  0.0149 -0.0125  0.0725
 1125BOLB   NC126977   2.967  25.645  16.182  0.0523 -0.2763 -0.0717
 1125BOLB   PO126978   3.287  25.394  16.405  0.3455  0.2773 -0.0918
 1125BOLB   GL126979   3.001  25.555  16.708 -0.3644  0.0061  0.0493
 1125BOLB   GL226980   2.782  25.342  16.915 -0.0941 -0.3599 -0.1813
 1125BOLB   C1A26981   3.028  25.792  17.046 -0.1057  0.2327  0.0162
 1125BOLB   C2A26982   2.934  25.892  17.429  0.1853  0.0067 -0.0817
 1125BOLB   C3A26983   2.890  25.871  17.868  0.0391  0.0642  0.1714
 1125BOLB   C4A26984   2.924  25.792  18.287  0.3810  0.2399 -0.2726
 1125BOLB   C1B26985   2.601  25.525  17.268  0.1008  0.3125 -0.2643
 1125BOLB   C2B26986   2.440  25.636  17.697 -0.0045  0.1242  0.0683
 1125BOLB   C3B26987   2.658  25.421  17.991  0.0435  0.0652  0.1569
 1125BOLB   C4B26988   3.063  25.283  18.124  0.1405 -0.0557  0.0766
 1125BOLB   NC226989   2.163  27.101  19.952  0.1167  0.0656 -0.0144
 1125BOLB   PO226990   1.869  26.710  20.016  0.1657  0.0229 -0.0186
 1125BOLB   GL326991   2.160  26.378  20.024 -0.1439  0.1530  0.1576
 1125BOLB   GL426992   2.474  26.260  20.250 -0.4548 -0.3282  0.2287
 1125BOLB   C1C26993   2.446  26.144  19.730  0.0960  0.5123 -0.3208
 1125BOLB   C2C26994   2.637  26.290  19.413  0.0316 -0.2949  0.1176
 1125BOLB   C3C26995   2.586  26.120  19.036  0.1049  0.1569 -0.1065
 1125BOLB   C4C26996   2.760  25.961  18.684 -0.0111 -0.1935 -0.0553
 1125BOLB   C1D26997   2.578  26.652  19.866  0.0899  0.0423 -0.0210
 1125BOLB   C2D26998   2.531  26.871  19.448 -0.1168 -0.2704  0.1076
 1125BOLB   C3D26999   2.678  26.759  19.024 -0.0859 -0.1701 -0.0293
 1125BOLB   C4D27000   2.908  26.659  18.554  0.3491  0.1924 -0.3242
 1126BOLB   NC127001  18.397  25.281  13.054 -0.2430 -0.3810  0.1621
 1126BOLB   PO127002  18.504  25.388  13.523 -0.3190 -0.1355  0.4533
 1126BOLB   GL127003  18.049  25.190  13.451  0.1113 -0.1583  0.1464
 1126BOLB   GL227004  17.785  25.022  13.738 -0.5017 -0.1089 -0.2310
 1126BOLB   C1A27005  17.770  25.090  13.212  0.0446 -0.0052 -0.0298
 1126BOLB   C2A27006  17.396  24.932  12.958 -0.1160  0.0818  0.2273
 1126BOLB   C3A27007  17.231  24.617  12.847  0.2886 -0.1035  0.1264
 1126BOLB   C4A27008  17.179  24.187  13.040 -0.1334  0.0358 -0.0492
 1126BOLB   C1B27009  17.414  25.033  13.689 -0.1715  0.3122  0.0920
 1126BOLB   C2B27010  17.009  24.803  13.488 -0.0244 -0.0411 -0.1755
 1126BOLB   C3B27011  16.778  24.505  13.177 -0.2057  0.0590  0.1527
 1126BOLB   C4B27012  16.609  23.996  13.168  0.0352 -0.0530  0.1265
 1126BOLB   NC227013  18.286  22.530  14.250 -0.0705 -0.1493  0.3079
 1126BOLB   PO227014  18.617  22.879  14.039  0.1991 -0.0104 -0.1084
 1126BOLB   GL327015  18.253  22.833  13.819 -0.1084 -0.0314  0.2398
 1126BOLB   GL427016  17.995  22.895  13.899  0.0183  0.0353  0.0217
 1126BOLB   C1C27017  18.029  22.863  13.370 -0.1839 -0.0291  0.1902
 1126BOLB   C2C27018  17.710  23.206  13.131  0.3846 -0.1348  0.2347
 1126BOLB   C3C27019  17.303  23.428  13.195  0.0152  0.1603 -0.0313
 1126BOLB   C4C27020  17.229  23.858  13.268 -0.2292  0.1427  0.1206
 1126BOLB   C1D27021  17.749  23.032  14.326  0.1467  0.2963  0.0348
 1126BOLB   C2D27022  17.640  23.311  14.661 -0.3181 -0.0387 -0.0922
 1126BOLB   C3D27023  17.375  23.173  14.974  0.0308  0.0185  0.0277
 1126BOLB   C4D27024  17.256  22.793  15.222  0.0553  0.0947 -0.2468
 1127BOLB   NC127025  13.917  17.616   8.173 -0.3860 -0.0299  0.3411
 1127BOLB   PO127026  14.360  17.544   8.277  0.2399 -0.0857  0.2542
 1127BOLB   GL127027  14.693  17.411   8.445  0.1268  0.1207 -0.0400
 1127BOLB   GL227028  14.620  17.325   8.778  0.1444  0.2541 -0.3741
 1127BOLB   C1A27029  14.977  17.180   8.354 -0.0450  0.1798 -0.1654
 1127BOLB   C2A27030  15.179  16.855   8.571  0.0108  0.0036  0.1897
 1127BOLB   C3A27031  15.492  16.552   8.618  0.2361 -0.1423  0.2710
 1127BOLB   C4A27032  15.587  16.057   8.568  0.0817 -0.1468  0.0765
 1127BOLB   C1B27033  14.850  17.005   8.936 -0.1719 -0.1410  0.2874
 1127BOLB   C2B27034  15.299  16.823   9.117 -0.3093  0.2354  0.3092
 1127BOLB   C3B27035  15.572  16.470   9.287 -0.2204  0.1261  0.0053
 1127BOLB   C4B27036  15.787  16.142   9.045  0.3946  0.2150 -0.3046
 1127BOLB   NC227037  16.096  13.834   8.681 -0.3340 -0.0714  0.2824
 1127BOLB   PO227038  16.450  14.097   8.883  0.0412 -0.0306 -0.0301
 1127BOLB   GL327039  16.433  14.494   8.748 -0.4442  0.3878 -0.0583
 1127BOLB   GL427040  16.445  14.526   8.434  0.1975 -0.0816 -0.2319
 1127BOLB   C1C27041  16.162  14.827   8.953  0.0230 -0.0990 -0.2148
 1127BOLB   C2C27042  15.944  15.197   8.923  0.3036  0.0539 -0.1126
 1127BOLB   C3C27043  15.669  15.211   8.614 -0.0466 -0.1866 -0.0613
 1127BOLB   C4C27044  15.570  15.520   8.407  0.1678 -0.1967 -0.1155
 1127BOLB   C1D27045  16.096  14.845   8.411  0.0088  0.0652  0.0946
 1127BOLB   C2D27046  15.755  14.712   8.674 -0.1082 -0.0831 -0.0260
 1127BOLB   C3D27047  15.442  14.953   8.975  0.0392  0.1176 -0.0355
 1127BOLB   C4D27048  15.189  15.308   9.131 -0.4657  0.0480  0.1293
 1128BOLB   NC127049   4.914  25.346   4.533 -0.0530  0.0577 -0.3881
 1128BOLB   PO127050   4.871  25.695   4.482  0.0361 -0.1480 -0.1142
 1128BOLB   GL127051   4.643  26.040   4.315  0.0004 -0.1611  0.2147
 1128BOLB   GL227052   4.774  26.323   4.365 -0.4854 -0.1592 -0.2174
 1128BOLB   C1A27053   4.322  26.202   4.094 -0.0585  0.0095  0.1617
 1128BOLB   C2A27054   4.359  26.500   3.591 -0.1797  0.3001  0.1644
 1128BOLB   C3A27055   4.372  26.533   3.180 -0.1367 -0.0906  0.2377
 1128BOLB   C4A27056   4.324  26.564   2.805  0.1781  0.2273  0.1121
 1128BOLB   C1B27057   4.912  26.435   4.019 -0.3415 -0.0455  0.0005
 1128BOLB   C2B27058   4.798  26.571   3.731 -0.0975  0.0961  0.0634
 1128BOLB   C3B27059   4.826  26.636   3.297  0.0269  0.1343  0.0139
 1128BOLB   C4B27060   4.796  26.479   2.836 -0.3279 -0.1242 -0.1680
 1128BOLB   NC227061   2.437  28.192   0.999 -0.1847  0.0151 -0.0552
 1128BOLB   PO227062   2.707  27.956   1.279 -0.2967 -0.0004 -0.0702
 1128BOLB   GL327063   2.878  27.659   1.638  0.0500  0.0485 -0.0412
 1128BOLB   GL427064   3.216  27.649   1.794  0.3520  0.0696  0.1088
 1128BOLB   C1C27065   2.908  27.353   2.071 -0.2838 -0.0274  0.1373
 1128BOLB   C2C27066   3.134  27.055   2.384  0.0421 -0.4028  0.1947
 1128BOLB   C3C27067   3.510  26.855   2.596 -0.1278  0.1013  0.1337
 1128BOLB   C4C27068   3.895  26.753   2.560  0.1472  0.2409 -0.2645
 1128BOLB   C1D27069   3.475  27.343   2.001  0.0119 -0.1444 -0.1297
 1128BOLB   C2D27070   3.534  26.935   2.072 -0.2231  0.2768 -0.1367
 1128BOLB   C3D27071   3.771  26.546   2.091  0.1476  0.2013 -0.2344
 1128BOLB   C4D27072   4.109  26.270   2.024  0.2333 -0.2027 -0.1542
 1129BOLB   NC127073   1.214  24.630  14.743  0.2471 -0.0334 -0.2753
 1129BOLB   PO127074   1.118  25.022  14.497  0.0880 -0.0113 -0.1519
 1129BOLB   GL127075   0.903  25.292  14.840 -0.0200  0.2691  0.0371
 1129BOLB   GL227076   0.737  25.518  14.825  0.0754  0.0027  0.2892
 1129BOLB   C1A27077   0.773  25.435  15.377  0.2121 -0.2908 -0.0358
 1129BOLB   C2A27078   0.465  25.643  15.572 -0.0342 -0.1712  0.0887
 1129BOLB   C3A27079   0.180  25.848  15.841  0.0247  0.1862 -0.0586
 1129BOLB   C4A27080   0.298  26.019  16.196  0.3089 -0.1070 -0.1167
 1129BOLB   C1B27081   0.470  25.807  14.955  0.0975  0.0552 -0.3007
 1129BOLB   C2B27082   0.240  26.120  14.956  0.1741  0.0435 -0.1350
 1129BOLB   C3B27083  -0.069  26.444  15.023 -0.0862 -0.1341 -0.1870
 1129BOLB   C4B27084  -0.518  26.501  14.964  0.2638  0.0409 -0.0256
 1129BOLB   NC227085  -1.561  27.756  16.898 -0.0824 -0.0817  0.0684
 1129BOLB   PO227086  -1.285  27.509  16.992  0.0311  0.1181  0.0009
 1129BOLB   GL327087  -1.157  27.130  16.874 -0.1239 -0.0660 -0.0030
 1129BOLB   GL427088  -0.950  26.965  17.139  0.1290  0.0488  0.0449
 1129BOLB   C1C27089  -0.830  26.856  16.676 -0.0989 -0.2811  0.1194
 1129BOLB   C2C27090  -0.634  26.551  16.730  0.2506 -0.2911  0.0532
 1129BOLB   C3C27091  -0.225  26.491  16.586  0.0455 -0.1137  0.1857
 1129BOLB   C4C27092   0.165  26.281  16.472 -0.0383 -0.0093  0.0462
 1129BOLB   C1D27093  -0.714  26.497  17.177 -0.2710 -0.2947  0.0989
 1129BOLB   C2D27094  -0.777  26.113  16.973  0.0812  0.0059 -0.1629
 1129BOLB   C3D27095  -0.783  25.710  16.933 -0.0798 -0.0203  0.3048
 1129BOLB   C4D27096  -0.523  25.355  17.069 -0.0126  0.3626 -0.0197
 1130BOLB   NC127097  13.855  24.677  13.011  0.0129 -0.2437 -0.0871
 1130BOLB   PO127098  14.134  24.488  13.463  0.1640  0.4086 -0.1754
 1130BOLB   GL127099  14.326  24.714  13.234  0.0422  0.3559  0.0477
 1130BOLB   GL227100  14.571  24.532  12.986 -0.1204  0.2359 -0.0863
 1130BOLB   C1A27101  14.486  25.079  13.224 -0.1366  0.1581  0.1213
 1130BOLB   C2A27102  14.673  25.470  13.207 -0.0435  0.1264  0.0542
 1130BOLB   C3A27103  14.975  25.772  13.272  0.1245 -0.1492 -0.0821
 1130BOLB   C4A27104  15.278  26.147  13.297  0.0354 -0.0802  0.0069
 1130BOLB   C1B27105  15.021  24.618  12.920  0.4549  0.0090 -0.0675
 1130BOLB   C2B27106  15.362  24.650  12.987  0.0234  0.1789 -0.0654
 1130BOLB   C3B27107  15.819  24.825  12.893  0.1746 -0.0473 -0.0296
 1130BOLB   C4B27108  16.043  25.047  12.923  0.2755 -0.0929 -0.2121
 1130BOLB   NC227109  17.043  26.643  14.667 -0.0817  0.2595 -0.1208
 1130BOLB   PO227110  17.218  26.857  14.434 -0.0108  0.2618  0.1532
 1130BOLB   GL327111  17.023  26.478  14.179  0.2004  0.3807  0.0619
 1130BOLB   GL427112  17.249  26.197  14.048  0.0084 -0.2273  0.0883
 1130BOLB   C1C27113  16.621  26.326  14.287  0.3456  0.2896  0.0430
 1130BOLB   C2C27114  16.424  26.337  13.896  0.0936 -0.1764 -0.0463
 1130BOLB   C3C27115  16.136  26.223  13.607 -0.4155  0.0364  0.2666
 1130BOLB   C4C27116  15.652  26.314  13.628  0.0063  0.0415 -0.1838
 1130BOLB   C1D27117  16.968  25.811  14.310  0.2260 -0.2280  0.0420
 1130BOLB   C2D27118  16.502  25.819  14.405  0.1687  0.0552  0.0824
 1130BOLB   C3D27119  16.046  25.735  14.499  0.0114  0.0793 -0.3161
 1130BOLB   C4D27120  15.731  25.835  14.903  0.0534 -0.0842 -0.1483
 1131BOLB   NC127121  14.253  18.539   8.210 -0.1647 -0.0888 -0.3255
 1131BOLB   PO127122  14.460  18.948   8.236 -0.2975  0.0870  0.0376
 1131BOLB   GL127123  14.843  18.595   8.118  0.1965 -0.1836 -0.1453
 1131BOLB   GL227124  14.999  18.715   7.752  0.1934  0.2015  0.0300
 1131BOLB   C1A27125  15.180  18.375   8.109  0.3465  0.1323 -0.3785
 1131BOLB   C2A27126  15.514  18.151   8.095  0.1561 -0.0085  0.1640
 1131BOLB   C3A27127  15.887  18.205   7.826 -0.0389 -0.1675  0.0720
 1131BOLB   C4A27128  16.329  18.443   7.835  0.1021 -0.1536 -0.1906
 1131BOLB   C1B27129  15.444  18.821   7.871  0.0318  0.2850 -0.1004
 1131BOLB   C2B27130  15.892  18.709   7.626 -0.4610 -0.2088 -0.0018
 1131BOLB   C3B27131  16.346  18.771   7.419 -0.4030 -0.0862  0.3967
 1131BOLB   C4B27132  16.683  18.516   7.258 -0.6610 -0.1827  0.2283
 1131BOLB   NC227133  18.344  17.397   9.175  0.3173  0.2903  0.2089
 1131BOLB   PO227134  18.073  17.167   8.894 -0.3155 -0.1509  0.1893
 1131BOLB   GL327135  17.724  17.325   8.803 -0.1765 -0.1642  0.3434
 1131BOLB   GL427136  17.679  17.429   9.109  0.1011 -0.1164  0.0043
 1131BOLB   C1C27137  17.641  17.528   8.448  0.2029  0.2930 -0.1718
 1131BOLB   C2C27138  17.329  17.699   8.109 -0.1207 -0.1502  0.2023
 1131BOLB   C3C27139  17.070  17.839   7.713 -0.1655 -0.0992  0.0885
 1131BOLB   C4C27140  16.665  18.146   7.689  0.1048 -0.0927 -0.2194
 1131BOLB   C1D27141  17.267  17.469   8.847 -0.1696  0.0979  0.0892
 1131BOLB   C2D27142  17.065  17.869   8.890  0.3332  0.0600 -0.1805
 1131BOLB   C3D27143  16.839  18.090   8.668  0.0414  0.1993  0.1528
 1131BOLB   C4D27144  16.741  18.504   8.702  0.2851  0.0387  0.0110
 1132BOLB   NC127145  12.657  16.091   7.938 -0.0138 -0.5006  0.3046
 1132BOLB   PO127146  12.887  15.999   8.318  0.3415 -0.1162  0.1921
 1132BOLB   GL127147  12.997  15.562   8.257 -0.1720 -0.1194  0.1541
 1132BOLB   GL227148  12.809  15.324   8.317  0.0139 -0.0824  0.1055
 1132BOLB   C1A27149  13.363  15.300   8.370 -0.0125 -0.3354 -0.1235
 1132BOLB   C2A27150  13.748  14.926   8.312  0.2117  0.4514  0.0166
 1132BOLB   C3A27151  14.057  14.524   8.264 -0.1085 -0.1682 -0.3403
 1132BOLB   C4A27152  14.335  14.383   8.599 -0.4860 -0.0429  0.1663
 1132BOLB   C1B27153  13.067  15.078   8.035  0.1712  0.0700 -0.2983
 1132BOLB   C2B27154  13.278  14.827   7.785 -0.2693  0.0891 -0.1986
 1132BOLB   C3B27155  13.471  14.670   7.493  0.0999 -0.0760 -0.2246
 1132BOLB   C4B27156  13.839  14.762   7.338  0.0657  0.3735 -0.0023
 1132BOLB   NC227157  14.926  12.695  10.000  0.1775  0.3211 -0.0961
 1132BOLB   PO227158  14.902  12.644   9.499 -0.0431 -0.0632  0.0265
 1132BOLB   GL327159  14.994  13.023   9.372  0.0072  0.1209 -0.0741
 1132BOLB   GL427160  14.624  13.078   9.542  0.1531  0.2066  0.0711
 1132BOLB   C1C27161  14.824  13.292   9.112  0.3884 -0.2914 -0.2264
 1132BOLB   C2C27162  14.583  13.677   9.228 -0.0552  0.0972  0.1718
 1132BOLB   C3C27163  14.714  14.047   9.162  0.0440 -0.3742  0.1574
 1132BOLB   C4C27164  14.709  14.308   8.795  0.2081 -0.0528 -0.2134
 1132BOLB   C1D27165  14.272  12.897   9.325 -0.0030  0.0066 -0.0898
 1132BOLB   C2D27166  13.857  12.850   9.344 -0.0134 -0.0163 -0.1946
 1132BOLB   C3D27167  13.463  13.175   9.306 -0.1828  0.0903 -0.1198
 1132BOLB   C4D27168  13.214  13.137   8.897  0.1492 -0.4329  0.0396
 1133BOLB   NC127169   4.270  22.601  18.013  0.2973  0.0294  0.2823
 1133BOLB   PO127170   4.207  22.242  18.145  0.3462  0.0742  0.0617
 1133BOLB   GL127171   4.278  22.241  18.582  0.1976  0.0733  0.3830
 1133BOLB   GL227172   4.051  22.544  18.642 -0.0942  0.2730 -0.3911
 1133BOLB   C1A27173   4.254  22.132  18.938 -0.0630  0.3189  0.2812
 1133BOLB   C2A27174   3.938  22.200  19.213  0.2997  0.0724  0.2136
 1133BOLB   C3A27175   3.907  22.278  19.606  0.2149 -0.1806  0.1199
 1133BOLB   C4A27176   3.556  22.447  19.845 -0.0200  0.1144  0.1170
 1133BOLB   C1B27177   3.814  22.699  19.000 -0.0800  0.1002  0.0424
 1133BOLB   C2B27178   3.477  22.660  19.244 -0.0910  0.2424  0.2631
 1133BOLB   C3B27179   3.077  22.584  19.412  0.0681 -0.0889 -0.2210
 1133BOLB   C4B27180   2.734  22.703  19.685 -0.4127 -0.1060 -0.1445
 1133BOLB   NC227181   2.276  22.846  21.975 -0.0614  0.2620 -0.2598
 1133BOLB   PO227182   1.956  22.483  21.840 -0.1791  0.2118 -0.1051
 1133BOLB   GL327183   2.187  22.473  21.601 -0.0455 -0.0946 -0.1227
 1133BOLB   GL427184   1.944  22.568  21.279  0.0061  0.3125  0.2054
 1133BOLB   C1C27185   2.484  22.454  21.212 -0.0595  0.3122  0.0074
 1133BOLB   C2C27186   2.639  22.510  20.770 -0.2815 -0.2164  0.0293
 1133BOLB   C3C27187   2.882  22.725  20.441 -0.2854  0.3519  0.1740
 1133BOLB   C4C27188   3.184  22.504  20.102 -0.0357 -0.2519  0.3821
 1133BOLB   C1D27189   2.087  22.609  20.904  0.1628  0.0246 -0.0747
 1133BOLB   C2D27190   2.318  22.900  20.524  0.0070 -0.1399 -0.2278
 1133BOLB   C3D27191   2.702  23.218  20.516 -0.1902  0.0198  0.1845
 1133BOLB   C4D27192   3.163  23.141  20.545  0.2503  0.3991 -0.2600
 1134BOLB   NC127193   4.163  23.289  22.335  0.2488 -0.0900 -0.1187
 1134BOLB   PO127194   4.090  22.909  22.284 -0.2278  0.0119 -0.0907
 1134BOLB   GL127195   3.860  22.896  21.934  0.2347 -0.2733  0.1538
 1134BOLB   GL227196   3.653  23.158  21.713 -0.1333  0.0697 -0.0447
 1134BOLB   C1A27197   3.786  22.598  21.629 -0.2001 -0.1459 -0.0937
 1134BOLB   C2A27198   3.936  22.260  21.414  0.2273 -0.2081 -0.2497
 1134BOLB   C3A27199   4.084  21.913  21.123  0.1586  0.0343  0.0192
 1134BOLB   C4A27200   4.033  21.497  21.041 -0.1919  0.0607 -0.1691
 1134BOLB   C1B27201   3.675  23.354  21.298 -0.1258 -0.0513 -0.0514
 1134BOLB   C2B27202   3.956  23.325  20.990 -0.0223 -0.0231  0.1139
 1134BOLB   C3B27203   4.228  23.210  20.671  0.0342 -0.0140  0.1238
 1134BOLB   C4B27204   4.511  22.717  20.599  0.2569  0.1744  0.0023
 1134BOLB   NC227205   3.366  20.079  22.693 -0.2019 -0.1350  0.3190
 1134BOLB   PO227206   3.803  20.107  22.730  0.1784 -0.5004 -0.2330
 1134BOLB   GL327207   3.906  20.188  22.351 -0.1204 -0.1308 -0.2811
 1134BOLB   GL427208   4.187  20.100  22.333 -0.0852  0.3284  0.0631
 1134BOLB   C1C27209   3.872  20.383  21.961  0.1741 -0.1232 -0.2949
 1134BOLB   C2C27210   3.901  20.756  21.827  0.0840  0.1344  0.0370
 1134BOLB   C3C27211   4.174  20.975  21.477 -0.1441  0.0916 -0.3454
 1134BOLB   C4C27212   4.114  21.064  21.010  0.0722  0.0252  0.2052
 1134BOLB   C1D27213   4.422  20.298  22.124 -0.5342 -0.1026 -0.0679
 1134BOLB   C2D27214   4.795  20.280  21.970 -0.2393 -0.1874 -0.0114
 1134BOLB   C3D27215   5.107  20.674  21.868 -0.0787  0.1654 -0.1442
 1134BOLB   C4D27216   5.288  21.088  21.709  0.0866  0.0745 -0.3203
 1135BOLB   NC127217  13.128  25.919  13.019  0.2929  0.3015  0.2482
 1135BOLB   PO127218  12.910  26.183  13.115 -0.0836  0.3240 -0.0918
 1135BOLB   GL127219  13.005  26.511  13.408  0.3256 -0.1766 -0.0824
 1135BOLB   GL227220  13.049  26.449  13.738 -0.1467  0.0628 -0.1657
 1135BOLB   C1A27221  13.310  26.883  13.498 -0.3245  0.0115  0.0617
 1135BOLB   C2A27222  13.563  27.175  13.266 -0.1594  0.1248 -0.1768
 1135BOLB   C3A27223  13.794  27.474  13.332  0.2440 -0.1362 -0.0828
 1135BOLB   C4A27224  14.068  27.925  13.248 -0.0341  0.0864  0.0166
 1135BOLB   C1B27225  13.514  26.468  13.736 -0.1554 -0.0403  0.1466
 1135BOLB   C2B27226  13.693  26.866  13.827 -0.1579  0.0160  0.0167
 1135BOLB   C3B27227  13.537  27.260  13.735 -0.0384  0.3056 -0.0022
 1135BOLB   C4B27228  13.350  27.540  13.814 -0.1725 -0.0547 -0.0631
 1135BOLB   NC227229  15.710  29.308  13.938  0.1830 -0.2435  0.1366
 1135BOLB   PO227230  15.760  28.925  13.855 -0.2451  0.0294  0.1292
 1135BOLB   GL327231  15.398  28.654  13.802  0.0623  0.3026  0.0776
 1135BOLB   GL427232  15.461  28.348  13.797  0.0432 -0.1154 -0.1114
 1135BOLB   C1C27233  14.972  28.540  13.915 -0.1575 -0.3528  0.2794
 1135BOLB   C2C27234  14.646  28.319  13.907 -0.2831  0.1924  0.0676
 1135BOLB   C3C27235  14.658  28.096  13.544 -0.2378 -0.2063 -0.4331
 1135BOLB   C4C27236  14.319  28.201  13.349  0.0054 -0.1280 -0.2468
 1135BOLB   C1D27237  15.150  28.141  13.535  0.2642  0.1925 -0.2580
 1135BOLB   C2D27238  14.983  27.828  13.258 -0.2772 -0.0938 -0.3397
 1135BOLB   C3D27239  14.936  27.443  13.040  0.0153 -0.0216 -0.3221
 1135BOLB   C4D27240  14.951  27.081  12.755 -0.3000 -0.0898 -0.2568
 1136BOLB   NC127241  10.248  17.590  16.430 -0.3235  0.0080  0.3271
 1136BOLB   PO127242   9.868  17.552  16.542 -0.1164 -0.2693 -0.2457
 1136BOLB   GL127243  10.141  17.225  16.743  0.1611  0.1398  0.2916
 1136BOLB   GL227244  10.186  17.000  16.466 -0.1905 -0.2354  0.2675
 1136BOLB   C1A27245  10.106  16.903  17.138 -0.0756 -0.0841  0.0653
 1136BOLB   C2A27246  10.215  16.609  17.454 -0.3045 -0.2961  0.0067
 1136BOLB   C3A27247  10.078  16.338  17.790 -0.0134  0.2056  0.1039
 1136BOLB   C4A27248  10.125  16.149  18.161  0.0333  0.0568 -0.0948
 1136BOLB   C1B27249  10.183  16.580  16.682  0.0115  0.0389  0.0751
 1136BOLB   C2B27250  10.568  16.305  16.738 -0.3191 -0.2592  0.1157
 1136BOLB   C3B27251  10.602  15.983  16.727  0.1974 -0.3932 -0.1490
 1136BOLB   C4B27252  10.700  15.650  17.030 -0.1453 -0.5639  0.0581
 1136BOLB   NC227253  10.854  13.989  18.918 -0.0179 -0.0007  0.3647
 1136BOLB   PO227254  10.928  14.401  19.085 -0.1211 -0.0074 -0.4064
 1136BOLB   GL327255  10.737  14.780  19.154 -0.1403  0.3097  0.2997
 1136BOLB   GL427256  10.757  14.870  18.962  0.0098  0.1330  0.0512
 1136BOLB   C1C27257  10.705  15.285  19.287  0.0401 -0.0209  0.2233
 1136BOLB   C2C27258  10.480  15.620  19.237 -0.3786 -0.1622 -0.1580
 1136BOLB   C3C27259  10.266  15.796  18.976 -0.0909 -0.1665 -0.1451
 1136BOLB   C4C27260  10.183  16.002  18.641 -0.3575  0.2093 -0.0814
 1136BOLB   C1D27261  10.541  14.939  18.630 -0.1674  0.3083  0.1798
 1136BOLB   C2D27262  10.292  15.234  18.233 -0.0651  0.0832 -0.0546
 1136BOLB   C3D27263  10.319  15.638  18.016 -0.3247 -0.0260  0.0657
 1136BOLB   C4D27264  10.318  15.936  17.723  0.1804  0.0273  0.4272
 1137BOLB   NC127265  37.939  23.888   7.410  0.1817 -0.1741 -0.3037
 1137BOLB   PO127266  37.883  24.390   7.477 -0.0849  0.0371 -0.2835
 1137BOLB   GL127267  37.567  24.523   7.607 -0.0200  0.0901  0.4025
 1137BOLB   GL227268  37.429  24.831   7.367 -0.4104 -0.0637 -0.0771
 1137BOLB   C1A27269  37.051  24.528   7.521 -0.0933 -0.2063 -0.0163
 1137BOLB   C2A27270  36.709  24.723   7.353  0.0589 -0.0143  0.0461
 1137BOLB   C3A27271  36.505  25.165   7.264 -0.0603 -0.0232 -0.1317
 1137BOLB   C4A27272  36.219  25.450   7.243 -0.3723 -0.2364  0.5789
 1137BOLB   C1B27273  37.127  24.923   7.180 -0.2487 -0.0992 -0.1814
 1137BOLB   C2B27274  36.910  25.300   6.986 -0.4173  0.0653 -0.1363
 1137BOLB   C3B27275  36.606  25.505   6.816  0.2862  0.2354 -0.0756
 1137BOLB   C4B27276  36.289  25.698   6.840  0.0546  0.3427  0.5025
 1137BOLB   NC227277  34.650  27.313   7.537  0.0419  0.1325  0.1258
 1137BOLB   PO227278  34.710  27.484   7.984  0.0574 -0.1173 -0.1253
 1137BOLB   GL327279  35.005  27.140   8.050 -0.0705  0.3486  0.3417
 1137BOLB   GL427280  35.059  26.944   8.333  0.0321  0.2632 -0.1877
 1137BOLB   C1C27281  35.295  26.867   7.884 -0.1258 -0.2586 -0.1998
 1137BOLB   C2C27282  35.574  26.518   7.738  0.1010 -0.2490  0.2759
 1137BOLB   C3C27283  35.780  26.097   7.684 -0.3079 -0.0392  0.1113
 1137BOLB   C4C27284  35.954  25.797   7.449 -0.4121  0.1129  0.2640
 1137BOLB   C1D27285  35.188  26.486   8.168 -0.1146  0.2687  0.0298
 1137BOLB   C2D27286  35.356  26.037   8.000 -0.0778 -0.2279  0.0319
 1137BOLB   C3D27287  35.652  25.608   8.037 -0.0554 -0.2802 -0.0811
 1137BOLB   C4D27288  35.469  25.178   7.871  0.3211 -0.0466 -0.2103
 1138BOLB   NC127289   6.152  18.598  18.003  0.2862  0.1222 -0.0396
 1138BOLB   PO127290   6.251  18.114  18.035 -0.1909 -0.0448  0.0362
 1138BOLB   GL127291   6.452  17.826  18.297  0.2123 -0.1157 -0.0929
 1138BOLB   GL227292   6.412  17.505  18.298 -0.4308 -0.0405 -0.2079
 1138BOLB   C1A27293   6.804  17.780  18.435  0.1490 -0.0482  0.1785
 1138BOLB   C2A27294   6.979  17.511  18.622 -0.1455 -0.0429 -0.1790
 1138BOLB   C3A27295   7.237  17.269  18.913  0.0663  0.2760  0.2117
 1138BOLB   C4A27296   7.531  17.018  19.010 -0.2186  0.4554 -0.2852
 1138BOLB   C1B27297   6.416  17.361  18.714  0.0218 -0.4100  0.0092
 1138BOLB   C2B27298   6.383  17.051  19.006 -0.1303 -0.1176  0.1261
 1138BOLB   C3B27299   6.427  16.632  19.235 -0.3221 -0.2988  0.3513
 1138BOLB   C4B27300   6.822  16.373  19.310  0.0702  0.1596  0.3849
 1138BOLB   NC227301   8.360  16.083  21.035  0.1135  0.0125  0.1448
 1138BOLB   PO227302   8.715  16.218  21.333  0.2144 -0.0692  0.1457
 1138BOLB   GL327303   8.687  16.445  20.904 -0.1864  0.0515  0.1591
 1138BOLB   GL427304   8.781  16.797  20.829  0.1891  0.1333 -0.2262
 1138BOLB   C1C27305   8.476  16.391  20.494 -0.4652 -0.1551  0.0740
 1138BOLB   C2C27306   8.052  16.558  20.095  0.3246  0.1248 -0.1304
 1138BOLB   C3C27307   7.837  16.766  19.759  0.3346 -0.3735 -0.2382
 1138BOLB   C4C27308   7.668  16.816  19.316  0.1127  0.1953 -0.0685
 1138BOLB   C1D27309   8.436  16.884  20.416  0.1838  0.1443 -0.0631
 1138BOLB   C2D27310   8.667  17.000  19.982  0.0571 -0.2886  0.2182
 1138BOLB   C3D27311   8.754  17.365  19.631 -0.2283  0.3367  0.1205
 1138BOLB   C4D27312   8.823  17.571  19.176 -0.1035  0.0872 -0.1686
 1139BOLB   NC127313  10.550  18.776  24.555 -0.2161 -0.1029  0.0700
 1139BOLB   PO127314  10.268  18.666  24.848  0.3584  0.2006  0.0383
 1139BOLB   GL127315  10.148  18.846  25.198  0.3242 -0.2084 -0.1085
 1139BOLB   GL227316   9.955  19.183  25.111 -0.2258  0.0960  0.1399
 1139BOLB   C1A27317  10.313  19.200  25.481 -0.0409 -0.0082 -0.1092
 1139BOLB   C2A27318  10.264  19.348  25.983 -0.0559  0.0246  0.3852
 1139BOLB   C3A27319  10.051  19.624  26.239  0.2882  0.0174  0.0015
 1139BOLB   C4A27320   9.876  19.698  26.576  0.0775 -0.0656 -0.1072
 1139BOLB   C1B27321   9.838  19.205  25.539  0.1319 -0.0661 -0.1320
 1139BOLB   C2B27322   9.741  19.147  25.963 -0.1045  0.0477  0.4804
 1139BOLB   C3B27323   9.448  18.919  26.222  0.0969  0.2433 -0.0184
 1139BOLB   C4B27324   9.213  18.537  26.362 -0.2711 -0.0904  0.2672
 1139BOLB   NC227325   9.452  20.185  29.134 -0.2859 -0.0824  0.3862
 1139BOLB   PO227326   9.714  19.770  28.869  0.1321 -0.2169  0.1501
 1139BOLB   GL327327   9.880  19.963  28.464  0.2270 -0.1796 -0.3158
 1139BOLB   GL427328  10.032  20.267  28.544  0.1263  0.0027 -0.5244
 1139BOLB   C1C27329   9.686  19.811  28.233  0.0683  0.0523  0.0029
 1139BOLB   C2C27330   9.768  19.657  27.904 -0.4578  0.0940  0.0758
 1139BOLB   C3C27331   9.874  19.726  27.434  0.0041 -0.2125  0.1635
 1139BOLB   C4C27332   9.980  19.854  26.958 -0.1508 -0.0417  0.0248
 1139BOLB   C1D27333  10.298  20.202  28.272  0.2448 -0.1892 -0.3570
 1139BOLB   C2D27334  10.528  20.148  27.887 -0.0339 -0.0807 -0.0298
 1139BOLB   C3D27335  10.804  19.903  27.635  0.2833 -0.0041  0.2030
 1139BOLB   C4D27336  11.017  19.899  27.329  0.0301 -0.1427 -0.2514
 1140BOLB   NC127337  37.798  24.557  12.922 -0.0337 -0.2257  0.2052
 1140BOLB   PO127338  37.608  24.381  12.774 -0.2545 -0.0747  0.2053
 1140BOLB   GL127339  37.257  24.505  12.945  0.4546 -0.2069 -0.1492
 1140BOLB   GL227340  36.990  24.333  12.915 -0.1933  0.1639 -0.2038
 1140BOLB   C1A27341  36.967  24.871  12.917  0.2832  0.2099  0.0617
 1140BOLB   C2A27342  36.609  24.936  12.938  0.1633 -0.2245  0.0720
 1140BOLB   C3A27343  36.291  25.294  12.783  0.1036 -0.1802  0.2004
 1140BOLB   C4A27344  35.870  25.453  12.810 -0.0658  0.0549  0.1169
 1140BOLB   C1B27345  36.802  24.573  13.256 -0.3224  0.0520  0.0092
 1140BOLB   C2B27346  36.615  24.781  13.494 -0.2765  0.1792 -0.1551
 1140BOLB   C3B27347  36.459  24.534  13.898  0.2079  0.3458  0.0602
 1140BOLB   C4B27348  36.149  24.636  14.192 -0.1277 -0.0729  0.4495
 1140BOLB   NC227349  34.193  26.858  13.445 -0.4926  0.2621  0.1322
 1140BOLB   PO227350  34.251  26.918  13.875  0.0091 -0.0889  0.0230
 1140BOLB   GL327351  34.479  26.485  13.932 -0.0674  0.0832 -0.1583
 1140BOLB   GL427352  34.786  26.680  13.814 -0.0444 -0.0307  0.0182
 1140BOLB   C1C27353  34.822  26.133  13.869 -0.1623 -0.0218  0.0445
 1140BOLB   C2C27354  34.965  25.995  13.489  0.0949  0.0503  0.0543
 1140BOLB   C3C27355  35.223  25.640  13.366 -0.2157  0.2595 -0.1823
 1140BOLB   C4C27356  35.623  25.607  13.118  0.0306  0.2933 -0.0241
 1140BOLB   C1D27357  35.148  26.661  13.983 -0.1569 -0.1802  0.1105
 1140BOLB   C2D27358  35.558  26.749  14.156 -0.0743  0.2162 -0.0367
 1140BOLB   C3D27359  35.874  27.066  14.087  0.0020  0.1154 -0.2172
 1140BOLB   C4D27360  35.795  27.367  13.831  0.4952 -0.1187 -0.4151
 1141BOLB   NC127361  12.440  20.556   3.815  0.3242 -0.2161  0.3684
 1141BOLB   PO127362  12.800  20.491   3.936 -0.1112  0.1322  0.1914
 1141BOLB   GL127363  12.830  20.585   3.482  0.0428 -0.0376  0.0903
 1141BOLB   GL227364  12.760  20.435   3.339  0.0320  0.1385 -0.2356
 1141BOLB   C1A27365  12.816  20.769   2.973 -0.1284  0.1220 -0.1671
 1141BOLB   C2A27366  12.898  20.607   2.508  0.1332 -0.4869  0.0400
 1141BOLB   C3A27367  13.062  20.673   2.190  0.4954  0.1326 -0.1450
 1141BOLB   C4A27368  13.191  20.680   1.820 -0.1139  0.0617  0.3128
 1141BOLB   C1B27369  12.937  20.324   2.898 -0.4571  0.4169 -0.2610
 1141BOLB   C2B27370  13.210  20.273   2.470 -0.3243 -0.2375 -0.5530
 1141BOLB   C3B27371  13.383  20.310   2.124 -0.3088  0.3396 -0.1785
 1141BOLB   C4B27372  13.649  20.394   1.670  0.1331  0.2027  0.1569
 1141BOLB   NC227373  14.826  19.945   1.052  0.0757  0.3586  0.0081
 1141BOLB   PO227374  14.961  19.999   0.587 -0.1132  0.0593  0.1801
 1141BOLB   GL327375  14.498  20.036   0.663  0.2219 -0.2003 -0.0427
 1141BOLB   GL427376  14.364  20.081   0.998 -0.1675  0.0108  0.3500
 1141BOLB   C1C27377  14.121  20.166   0.536  0.1832 -0.0018  0.3404
 1141BOLB   C2C27378  13.900  20.360   0.766  0.0554  0.0731 -0.2478
 1141BOLB   C3C27379  13.488  20.569   0.948  0.1213  0.1546  0.1434
 1141BOLB   C4C27380  13.309  20.506   1.389  0.3295 -0.2173 -0.3441
 1141BOLB   C1D27381  14.524  20.378   1.326 -0.5147 -0.0288 -0.0222
 1141BOLB   C2D27382  14.668  20.220   1.601  0.0025 -0.0307 -0.3378
 1141BOLB   C3D27383  14.749  20.088   2.029  0.0900  0.0713 -0.1463
 1141BOLB   C4D27384  14.797  20.335   2.482  0.0589 -0.1521  0.0034
 1142BOLB   NC127385  13.702  25.440  10.603 -0.1371 -0.3089 -0.0364
 1142BOLB   PO127386  13.715  25.228  11.020  0.0281  0.0904  0.1253
 1142BOLB   GL127387  14.012  25.586  10.972  0.1251  0.5055  0.1373
 1142BOLB   GL227388  14.230  25.431  10.795 -0.0122  0.1515 -0.1674
 1142BOLB   C1A27389  14.278  25.905  11.007  0.1651  0.0788  0.0747
 1142BOLB   C2A27390  14.582  26.220  10.860 -0.1607 -0.2997  0.2336
 1142BOLB   C3A27391  15.032  26.163  10.853 -0.0023 -0.1281  0.0499
 1142BOLB   C4A27392  15.292  26.392  11.051 -0.1653  0.1533 -0.3309
 1142BOLB   C1B27393  14.423  25.361  11.124  0.1872 -0.0001  0.0961
 1142BOLB   C2B27394  14.825  25.354  11.301  0.1102 -0.0740  0.1382
 1142BOLB   C3B27395  15.167  25.571  11.526 -0.0818 -0.3601 -0.1111
 1142BOLB   C4B27396  15.392  25.741  11.852  0.1805 -0.3304 -0.0927
 1142BOLB   NC227397  17.341  27.161  10.619  0.1100  0.0085  0.0727
 1142BOLB   PO227398  17.135  27.543  10.813 -0.1364 -0.2544  0.0708
 1142BOLB   GL327399  16.811  27.730  10.926  0.0321  0.1009  0.1042
 1142BOLB   GL427400  16.591  28.001  10.791 -0.2044 -0.1015  0.1927
 1142BOLB   C1C27401  16.546  27.391  11.051  0.2457 -0.0065  0.3371
 1142BOLB   C2C27402  16.552  26.961  10.993 -0.1622  0.2130 -0.1001
 1142BOLB   C3C27403  16.149  26.616  11.050  0.3971  0.0686 -0.1204
 1142BOLB   C4C27404  15.743  26.372  11.126  0.0114 -0.3117  0.0417
 1142BOLB   C1D27405  16.333  27.671  10.685 -0.0089  0.0907 -0.1079
 1142BOLB   C2D27406  15.863  27.726  10.566  0.1108  0.2144  0.4522
 1142BOLB   C3D27407  15.497  27.786  10.438  0.1502 -0.1600  0.1121
 1142BOLB   C4D27408  15.062  27.530  10.393  0.0856 -0.0369 -0.1244
 1143BOLB   NC127409   2.797  22.516  17.582  0.1782  0.2328  0.1866
 1143BOLB   PO127410   3.268  22.538  17.711  0.1119 -0.1576 -0.0783
 1143BOLB   GL127411   2.955  22.809  17.924  0.3252 -0.2254 -0.1752
 1143BOLB   GL227412   3.132  22.900  18.124  0.1131  0.2941 -0.2674
 1143BOLB   C1A27413   2.600  22.904  18.266  0.2065  0.2576  0.0408
 1143BOLB   C2A27414   2.421  23.082  18.564  0.1915 -0.4148 -0.1995
 1143BOLB   C3A27415   2.302  23.140  18.963  0.0053  0.1631 -0.0966
 1143BOLB   C4A27416   2.084  23.469  19.120 -0.1402 -0.2585  0.1618
 1143BOLB   C1B27417   3.001  22.860  18.511 -0.2973  0.1275  0.2647
 1143BOLB   C2B27418   2.737  22.802  18.847  0.1262 -0.1015 -0.3649
 1143BOLB   C3B27419   2.566  22.814  19.246  0.0489 -0.2008  0.2716
 1143BOLB   C4B27420   2.184  22.688  19.233 -0.3113  0.1204 -0.0614
 1143BOLB   NC227421   0.365  24.597  20.799 -0.1566  0.2455 -0.5119
 1143BOLB   PO227422   0.342  24.057  20.773  0.1451  0.3047 -0.0237
 1143BOLB   GL327423   0.612  23.883  20.570 -0.1863  0.1591  0.2828
 1143BOLB   GL427424   0.568  23.726  20.319 -0.1324  0.2657  0.0949
 1143BOLB   C1C27425   1.007  23.916  20.272  0.0897  0.2546  0.0559
 1143BOLB   C2C27426   1.331  23.704  20.052 -0.1486  0.2168 -0.2763
 1143BOLB   C3C27427   1.605  23.608  19.770  0.0356  0.0195 -0.2312
 1143BOLB   C4C27428   1.799  23.541  19.413 -0.0462  0.6839  0.3210
 1143BOLB   C1D27429   0.642  23.437  20.020  0.0752 -0.1996  0.1089
 1143BOLB   C2D27430   0.715  23.380  19.650  0.0988  0.0425 -0.3036
 1143BOLB   C3D27431   0.874  23.075  19.370  0.4319 -0.1917  0.0683
 1143BOLB   C4D27432   1.009  22.840  18.960 -0.0722  0.4349 -0.3468
 1144BOLB   NC127433  11.970  24.799   6.225  0.0990  0.2213 -0.1567
 1144BOLB   PO127434  12.272  25.141   6.063 -0.3527 -0.1550 -0.2292
 1144BOLB   GL127435  12.598  25.282   5.775 -0.1249  0.0586  0.0557
 1144BOLB   GL227436  12.546  25.215   5.554  0.2224 -0.0457  0.0770
 1144BOLB   C1A27437  12.918  25.566   5.635  0.0469 -0.0637  0.1694
 1144BOLB   C2A27438  13.387  25.702   5.430 -0.2877  0.3252 -0.2552
 1144BOLB   C3A27439  13.359  25.793   5.003  0.2417 -0.0664 -0.1433
 1144BOLB   C4A27440  13.730  25.741   4.563  0.2262  0.0851  0.4162
 1144BOLB   C1B27441  12.820  25.343   5.194 -0.0296  0.3347  0.0613
 1144BOLB   C2B27442  12.915  25.773   5.202  0.2184 -0.3176  0.0525
 1144BOLB   C3B27443  12.829  26.176   5.319 -0.0554  0.0457 -0.1126
 1144BOLB   C4B27444  12.734  26.218   5.789 -0.2274 -0.1999  0.1736
 1144BOLB   NC227445  15.018  27.134   3.052  0.0514 -0.1769  0.1767
 1144BOLB   PO227446  15.235  26.812   3.329  0.3677 -0.1700  0.2046
 1144BOLB   GL327447  14.997  26.549   3.668 -0.4085 -0.4108  0.1762
 1144BOLB   GL427448  15.074  26.328   3.916  0.4027  0.3532  0.0816
 1144BOLB   C1C27449  14.557  26.350   3.747 -0.0468  0.1617  0.2252
 1144BOLB   C2C27450  14.241  26.041   3.732  0.0666 -0.2237 -0.0958
 1144BOLB   C3C27451  14.101  25.638   3.898 -0.0324 -0.1191 -0.1020
 1144BOLB   C4C27452  13.977  25.687   4.181 -0.0597 -0.2403 -0.4741
 1144BOLB   C1D27453  14.981  25.953   4.032 -0.0148  0.1754 -0.0591
 1144BOLB   C2D27454  14.749  25.812   4.400 -0.0109 -0.0577  0.1510
 1144BOLB   C3D27455  14.462  25.961   4.588  0.0634 -0.0056 -0.2209
 1144BOLB   C4D27456  14.105  25.921   4.808  0.0504 -0.0661 -0.1148
 1145BOLB   NC127457   7.786  14.425   5.112 -0.0757  0.0769  0.2805
 1145BOLB   PO127458   7.538  14.319   4.757 -0.4908  0.0038 -0.0896
 1145BOLB   GL127459   7.672  13.917   4.846  0.0621 -0.0357 -0.3419
 1145BOLB   GL227460   7.650  13.911   5.117  0.0655  0.2881  0.1593
 1145BOLB   C1A27461   7.790  13.546   4.744 -0.0826  0.2509 -0.3162
 1145BOLB   C2A27462   7.897  13.143   4.638 -0.0603 -0.0621 -0.1037
 1145BOLB   C3A27463   7.917  12.973   4.203 -0.3158 -0.1362 -0.2033
 1145BOLB   C4A27464   7.924  12.841   3.819  0.2415  0.2703  0.2379
 1145BOLB   C1B27465   7.963  13.485   5.251  0.0884  0.2322  0.0911
 1145BOLB   C2B27466   8.018  13.048   5.108  0.3688 -0.2150  0.1528
 1145BOLB   C3B27467   8.151  12.644   5.268  0.3499  0.2545 -0.2367
 1145BOLB   C4B27468   8.089  12.183   5.129  0.4349 -0.0631 -0.0415
 1145BOLB   NC227469   8.919  11.659   2.555 -0.1473 -0.2837  0.3151
 1145BOLB   PO227470   9.012  11.243   2.705  0.0269  0.3092  0.2276
 1145BOLB   GL327471   8.783  11.519   2.998  0.1916 -0.2384  0.4730
 1145BOLB   GL427472   8.458  11.669   2.822 -0.0885 -0.1338 -0.5698
 1145BOLB   C1C27473   8.760  11.742   3.351  0.0047 -0.2497  0.1369
 1145BOLB   C2C27474   8.564  11.964   3.658 -0.1453 -0.0897  0.1153
 1145BOLB   C3C27475   8.353  12.247   3.630 -0.0987  0.1148  0.3954
 1145BOLB   C4C27476   8.152  12.512   3.583 -0.1154 -0.1918 -0.0971
 1145BOLB   C1D27477   8.335  11.926   3.149  0.0627  0.1339  0.0037
 1145BOLB   C2D27478   7.973  11.994   3.510  0.0799  0.2454 -0.1112
 1145BOLB   C3D27479   8.100  11.945   3.945  0.1458  0.4138 -0.0185
 1145BOLB   C4D27480   8.078  11.474   4.226  0.0031  0.0956 -0.2928
 1146BOLB   NC127481  10.161  28.094  11.073 -0.0837  0.3119 -0.2001
 1146BOLB   PO127482  10.228  28.240  11.584  0.0932  0.1521 -0.1157
 1146BOLB   GL127483  10.533  28.524  11.529  0.1304  0.0361  0.2830
 1146BOLB   GL227484  10.308  28.834  11.505  0.2667  0.6528 -0.1313
 1146BOLB   C1A27485  10.882  28.668  11.711 -0.2481  0.0741  0.1277
 1146BOLB   C2A27486  11.302  28.894  11.691  0.3077  0.0194 -0.2349
 1146BOLB   C3A27487  11.597  29.163  11.472 -0.1079  0.2282 -0.2011
 1146BOLB   C4A27488  11.840  29.504  11.504 -0.2763  0.2172 -0.0352
 1146BOLB   C1B27489  10.483  29.117  11.278  0.3678  0.0094 -0.1362
 1146BOLB   C2B27490  10.562  29.548  11.187  0.3046  0.1590  0.0621
 1146BOLB   C3B27491  10.901  29.876  11.164 -0.1125 -0.0052 -0.4065
 1146BOLB   C4B27492  10.866  30.295  10.915 -0.0528  0.0929  0.0824
 1146BOLB   NC227493  13.931  30.686  12.316 -0.2159 -0.4894 -0.2426
 1146BOLB   PO227494  14.009  30.718  11.864 -0.3039  0.2485 -0.0738
 1146BOLB   GL327495  13.628  30.591  11.743 -0.0070 -0.2796 -0.2449
 1146BOLB   GL427496  13.704  30.375  11.479 -0.1887  0.1801  0.2543
 1146BOLB   C1C27497  13.179  30.422  11.639 -0.0483  0.0669 -0.2032
 1146BOLB   C2C27498  13.033  30.029  11.422 -0.0587 -0.2893 -0.0429
 1146BOLB   C3C27499  12.647  29.883  11.163 -0.2733  0.0015 -0.1488
 1146BOLB   C4C27500  12.208  29.755  11.412 -0.2108  0.1739  0.0917
 1146BOLB   C1D27501  13.439  30.309  11.266 -0.0283  0.0016 -0.2282
 1146BOLB   C2D27502  13.156  30.220  10.895  0.2888 -0.2200  0.0293
 1146BOLB   C3D27503  12.751  30.439  10.780 -0.2623  0.1450 -0.0456
 1146BOLB   C4D27504  12.312  30.347  10.851  0.0304  0.4432  0.1332
 1147BOLB   NC127505   7.668  25.596   4.641 -0.0338  0.1345  0.0908
 1147BOLB   PO127506   7.976  25.413   4.466  0.3298 -0.0550 -0.0924
 1147BOLB   GL127507   7.938  25.697   4.117 -0.0316  0.3076 -0.1242
 1147BOLB   GL227508   7.594  25.752   3.994  0.2324  0.0698  0.2430
 1147BOLB   C1A27509   8.077  25.954   3.802  0.1057  0.0131 -0.0047
 1147BOLB   C2A27510   8.202  26.084   3.355  0.1585 -0.2176  0.1375
 1147BOLB   C3A27511   8.501  26.184   3.084  0.1020  0.1742 -0.2718
 1147BOLB   C4A27512   8.354  26.350   2.734  0.2743  0.0328 -0.0167
 1147BOLB   C1B27513   7.606  25.959   3.621  0.0027  0.1601  0.3140
 1147BOLB   C2B27514   7.541  26.299   3.366  0.3195 -0.1525 -0.3909
 1147BOLB   C3B27515   7.469  26.571   2.988  0.2935  0.0001  0.0532
 1147BOLB   C4B27516   7.771  26.688   2.653  0.0474  0.1223 -0.1291
 1147BOLB   NC227517   7.506  28.030   0.889 -0.1035  0.1474 -0.3345
 1147BOLB   PO227518   7.864  27.931   1.134  0.2145  0.1417 -0.1084
 1147BOLB   GL327519   7.830  27.579   1.434 -0.0989  0.1172  0.2287
 1147BOLB   GL427520   7.874  27.659   1.741  0.0214 -0.3356  0.2796
 1147BOLB   C1C27521   8.020  27.174   1.577  0.1672 -0.0268 -0.1006
 1147BOLB   C2C27522   8.212  27.024   1.918  0.0848  0.0590  0.2353
 1147BOLB   C3C27523   8.090  26.908   2.300 -0.2453  0.1468  0.2572
 1147BOLB   C4C27524   8.271  26.506   2.471 -0.0492  0.3027 -0.1113
 1147BOLB   C1D27525   7.757  27.307   2.001  0.3950  0.2797 -0.1233
 1147BOLB   C2D27526   7.685  26.937   1.969 -0.1480  0.0215  0.1344
 1147BOLB   C3D27527   7.679  26.519   2.198  0.1430 -0.0213  0.0163
 1147BOLB   C4D27528   7.384  26.410   2.533 -0.1898 -0.0878  0.0581
 1148BOLB   NC127529  14.174  18.899  10.145 -0.1145  0.2124 -0.2348
 1148BOLB   PO127530  14.506  18.847   9.954  0.1255  0.4599 -0.0491
 1148BOLB   GL127531  14.922  18.875  10.164  0.1137 -0.3990 -0.3024
 1148BOLB   GL227532  15.135  19.020   9.951 -0.0907  0.1391 -0.0336
 1148BOLB   C1A27533  15.109  18.660  10.482 -0.0384 -0.0806  0.3403
 1148BOLB   C2A27534  15.110  18.302  10.740 -0.0406  0.1218 -0.0954
 1148BOLB   C3A27535  15.103  18.035  11.068  0.0541  0.1111 -0.1349
 1148BOLB   C4A27536  15.310  18.178  11.549 -0.0032 -0.1373 -0.1751
 1148BOLB   C1B27537  15.314  18.657   9.821 -0.4326  0.3433  0.0996
 1148BOLB   C2B27538  15.703  18.561   9.685 -0.0827 -0.0940 -0.6874
 1148BOLB   C3B27539  16.153  18.421   9.849 -0.0188 -0.1418 -0.0073
 1148BOLB   C4B27540  16.577  18.339   9.941 -0.2834 -0.2541  0.1219
 1148BOLB   NC227541  17.413  17.336  13.274  0.1898  0.0048 -0.2031
 1148BOLB   PO227542  17.326  17.467  12.947 -0.4000 -0.0049  0.1341
 1148BOLB   GL327543  17.061  17.544  12.609 -0.4567  0.1745 -0.2548
 1148BOLB   GL427544  17.269  17.618  12.378  0.1143 -0.1748 -0.1888
 1148BOLB   C1C27545  16.888  17.909  12.360  0.0995  0.0021 -0.1853
 1148BOLB   C2C27546  16.487  18.189  12.209 -0.2889  0.0760 -0.1752
 1148BOLB   C3C27547  16.001  18.243  12.132  0.1335 -0.3449  0.1682
 1148BOLB   C4C27548  15.599  18.139  11.842 -0.1331  0.1003 -0.0836
 1148BOLB   C1D27549  16.990  17.432  12.059  0.0434  0.1072 -0.2436
 1148BOLB   C2D27550  16.616  17.325  11.727  0.3335 -0.1795 -0.0990
 1148BOLB   C3D27551  16.409  17.352  11.290  0.0314 -0.0756  0.0580
 1148BOLB   C4D27552  16.383  17.796  11.132 -0.0275 -0.0989  0.2975
 1149BOLB   NC127553   2.262  27.427  11.856  0.1374 -0.1789  0.0408
 1149BOLB   PO127554   1.778  27.469  11.969  0.3932 -0.1228  0.1265
 1149BOLB   GL127555   1.390  27.612  12.153  0.0113  0.2518  0.1666
 1149BOLB   GL227556   1.120  27.346  12.222 -0.1623  0.2327  0.0294
 1149BOLB   C1A27557   1.145  27.910  12.395 -0.2550 -0.1335 -0.0622
 1149BOLB   C2A27558   0.782  28.064  12.577  0.3884  0.2222 -0.1656
 1149BOLB   C3A27559   0.455  28.377  12.768  0.0458  0.1482 -0.2128
 1149BOLB   C4A27560   0.314  28.750  12.978  0.1004 -0.0219  0.0525
 1149BOLB   C1B27561   0.722  27.425  12.379  0.2328  0.2932 -0.3513
 1149BOLB   C2B27562   0.470  27.750  12.371  0.0907 -0.0081 -0.1445
 1149BOLB   C3B27563   0.283  28.097  12.366  0.1152 -0.1148 -0.6012
 1149BOLB   C4B27564   0.071  28.522  12.451  0.1662  0.2629  0.0451
 1149BOLB   NC227565  -0.512  30.865  13.044  0.1993 -0.2369  0.3427
 1149BOLB   PO227566  -0.660  30.953  12.609 -0.0273 -0.0470  0.2198
 1149BOLB   GL327567  -0.654  30.497  12.690  0.1726 -0.2250  0.0146
 1149BOLB   GL427568  -0.638  30.279  12.280  0.1459 -0.0108 -0.1034
 1149BOLB   C1C27569  -0.539  30.074  12.748  0.1187  0.1411  0.0316
 1149BOLB   C2C27570  -0.533  29.602  12.764 -0.2878 -0.2582  0.3442
 1149BOLB   C3C27571  -0.255  29.284  12.948 -0.0550 -0.1862 -0.0276
 1149BOLB   C4C27572   0.018  28.941  13.057 -0.2500  0.0318  0.3649
 1149BOLB   C1D27573  -0.434  29.870  12.196 -0.2105 -0.3388  0.0616
 1149BOLB   C2D27574  -0.669  29.405  12.321 -0.0524 -0.0160  0.1516
 1149BOLB   C3D27575  -0.723  29.153  12.607  0.1690  0.0831  0.1840
 1149BOLB   C4D27576  -0.833  28.780  12.518 -0.0548 -0.1251 -0.0539
 1150BOLB   NC127577   8.903  28.475   8.209  0.1151  0.0629 -0.3263
 1150BOLB   PO127578   8.970  28.913   8.179  0.0685 -0.2089  0.1061
 1150BOLB   GL127579   8.974  29.281   8.251  0.0538 -0.2044 -0.1970
 1150BOLB   GL227580   9.207  29.398   8.041  0.0795 -0.1717  0.1483
 1150BOLB   C1A27581   8.847  29.731   8.386  0.2999  0.0516  0.1444
 1150BOLB   C2A27582   8.773  30.095   8.125 -0.3306 -0.1217  0.1399
 1150BOLB   C3A27583   8.562  30.460   8.293  0.0203  0.0653 -0.0383
 1150BOLB   C4A27584   8.767  30.838   8.275 -0.0848  0.0277  0.2222
 1150BOLB   C1B27585   9.161  29.767   7.911  0.1582 -0.0469 -0.2925
 1150BOLB   C2B27586   9.445  30.188   8.032  0.0670 -0.0186  0.1125
 1150BOLB   C3B27587   9.785  30.318   8.330 -0.1343 -0.0933 -0.1614
 1150BOLB   C4B27588   9.911  30.644   8.628  0.0787  0.0650  0.1233
 1150BOLB   NC227589  10.255  33.319   8.076  0.0864  0.1520  0.3099
 1150BOLB   PO227590   9.993  32.879   8.064  0.1870 -0.2210 -0.0236
 1150BOLB   GL327591   9.937  32.457   8.236  0.2694 -0.1436 -0.2413
 1150BOLB   GL427592  10.215  32.341   8.306  0.4900  0.0394  0.1443
 1150BOLB   C1C27593   9.569  32.359   8.422 -0.2083 -0.0258 -0.0790
 1150BOLB   C2C27594   9.416  31.993   8.596 -0.1721  0.1447  0.1479
 1150BOLB   C3C27595   9.190  31.628   8.383  0.2216 -0.2533 -0.0967
 1150BOLB   C4C27596   8.970  31.182   8.293  0.0088 -0.0767 -0.1244
 1150BOLB   C1D27597   9.961  32.060   8.592  0.0281  0.1550  0.1456
 1150BOLB   C2D27598   9.729  31.637   8.512 -0.3828 -0.0559 -0.1355
 1150BOLB   C3D27599   9.890  31.272   8.726  0.2138 -0.2354  0.0166
 1150BOLB   C4D27600  10.080  30.921   8.979 -0.0328  0.1314 -0.0259
 1151BOLB   NC127601   1.306  23.274  15.698  0.0902  0.0303  0.4432
 1151BOLB   PO127602   1.186  23.055  16.065 -0.2959  0.0575 -0.3679
 1151BOLB   GL127603   0.761  23.107  16.373  0.1174  0.0300 -0.1592
 1151BOLB   GL227604   0.571  22.762  16.477 -0.1253 -0.0827 -0.3029
 1151BOLB   C1A27605   0.646  23.279  16.788  0.3149  0.0698  0.1466
 1151BOLB   C2A27606   0.562  23.552  17.061  0.2966 -0.2385 -0.1117
 1151BOLB   C3A27607   0.330  23.563  17.464 -0.1932 -0.1185 -0.0312
 1151BOLB   C4A27608   0.151  23.528  17.937 -0.0962  0.1348 -0.0621
 1151BOLB   C1B27609   0.251  23.002  16.620  0.0743 -0.1381 -0.0078
 1151BOLB   C2B27610   0.106  23.374  17.002  0.0901  0.0995 -0.0200
 1151BOLB   C3B27611  -0.045  23.713  17.165  0.0779  0.1529  0.1644
 1151BOLB   C4B27612   0.238  24.050  17.361 -0.0414 -0.0723  0.1264
 1151BOLB   NC227613  -0.848  23.941  20.569 -0.3781  0.2023  0.1524
 1151BOLB   PO227614  -0.484  24.280  20.425  0.0064 -0.1907 -0.3428
 1151BOLB   GL327615  -0.129  24.074  20.128 -0.0609  0.2459 -0.1199
 1151BOLB   GL427616   0.176  23.989  20.319  0.4230 -0.1577 -0.3350
 1151BOLB   C1C27617   0.009  24.080  19.666 -0.0048 -0.2000 -0.0776
 1151BOLB   C2C27618   0.050  24.069  19.229 -0.2529  0.4411 -0.0573
 1151BOLB   C3C27619   0.071  23.756  18.862 -0.1751 -0.2581  0.2321
 1151BOLB   C4C27620   0.115  23.687  18.439 -0.3068  0.0358 -0.2627
 1151BOLB   C1D27621   0.504  24.226  19.990  0.1496  0.1120  0.1967
 1151BOLB   C2D27622   0.535  24.404  19.623 -0.2073 -0.2817  0.0704
 1151BOLB   C3D27623   0.329  24.496  19.181 -0.0256  0.2933  0.0244
 1151BOLB   C4D27624   0.098  24.597  18.819 -0.1851 -0.0253 -0.1613
 1152BOLB   NC127625  11.037  26.970  13.798  0.2184  0.1837  0.1431
 1152BOLB   PO127626  11.412  27.047  13.721 -0.0568 -0.0724  0.2379
 1152BOLB   GL127627  11.460  27.550  13.645  0.1740 -0.0870 -0.2774
 1152BOLB   GL227628  11.376  27.817  13.908 -0.0718 -0.1723 -0.0702
 1152BOLB   C1A27629  11.781  27.892  13.614  0.1880  0.0339  0.3483
 1152BOLB   C2A27630  11.968  28.184  13.756  0.1190 -0.1616 -0.1078
 1152BOLB   C3A27631  12.017  28.562  14.014  0.3567 -0.0064  0.0702
 1152BOLB   C4A27632  12.216  28.933  14.066 -0.1036 -0.2082 -0.0491
 1152BOLB   C1B27633  11.396  28.196  14.089  0.1369 -0.0678 -0.1746
 1152BOLB   C2B27634  11.623  28.579  14.316  0.1661 -0.0328 -0.3946
 1152BOLB   C3B27635  11.694  28.933  14.606 -0.1294  0.0162 -0.1320
 1152BOLB   C4B27636  12.023  29.267  14.647  0.0772  0.1498 -0.1628
 1152BOLB   NC227637  12.172  31.098  15.498 -0.0272 -0.0190 -0.3302
 1152BOLB   PO227638  11.962  31.240  15.017 -0.0765 -0.0281 -0.3022
 1152BOLB   GL327639  11.654  30.994  14.854 -0.2052  0.0027  0.1384
 1152BOLB   GL427640  11.673  30.882  14.509  0.0018 -0.1295  0.3304
 1152BOLB   C1C27641  11.676  30.512  14.801 -0.1468 -0.0300  0.0159
 1152BOLB   C2C27642  11.554  30.091  14.576 -0.1282 -0.1595 -0.0523
 1152BOLB   C3C27643  11.708  29.634  14.352  0.1135 -0.0102 -0.2892
 1152BOLB   C4C27644  12.107  29.421  14.139 -0.1494  0.1147 -0.0284
 1152BOLB   C1D27645  11.181  30.641  14.557  0.0241 -0.1991 -0.1440
 1152BOLB   C2D27646  11.142  30.246  14.768  0.1557  0.2201  0.0862
 1152BOLB   C3D27647  11.232  29.858  14.844 -0.2918 -0.1792 -0.2062
 1152BOLB   C4D27648  11.042  29.506  15.093  0.2766 -0.0362 -0.0233
 1153BOLB   NC127649   6.682  27.362  15.748 -0.1278 -0.0234  0.0774
 1153BOLB   PO127650   7.168  27.386  15.751 -0.0858  0.3306  0.0927
 1153BOLB   GL127651   7.118  27.745  15.947 -0.1172  0.3334 -0.1749
 1153BOLB   GL227652   7.208  27.692  16.199  0.0961  0.0492  0.1566
 1153BOLB   C1A27653   6.859  28.118  16.064  0.0764 -0.0841 -0.1190
 1153BOLB   C2A27654   6.796  28.458  16.228 -0.2498 -0.0782  0.0041
 1153BOLB   C3A27655   7.158  28.887  16.430 -0.0241  0.3398  0.0682
 1153BOLB   C4A27656   7.484  29.228  16.539  0.2136 -0.0175 -0.1909
 1153BOLB   C1B27657   7.159  27.913  16.486 -0.2760  0.1515  0.0169
 1153BOLB   C2B27658   7.079  27.961  16.850  0.3033 -0.0937 -0.1389
 1153BOLB   C3B27659   6.977  27.978  17.225  0.1408 -0.2687 -0.0172
 1153BOLB   C4B27660   7.002  27.731  17.625  0.1433 -0.1378  0.0029
 1153BOLB   NC227661   8.003  30.905  17.693  0.3018  0.2681  0.2889
 1153BOLB   PO227662   8.207  31.177  17.338 -0.2258  0.3716  0.0208
 1153BOLB   GL327663   8.175  30.714  17.169 -0.1647  0.0420 -0.0689
 1153BOLB   GL427664   7.995  30.456  17.347  0.1016 -0.0345  0.2276
 1153BOLB   C1C27665   8.007  30.475  16.851  0.3039 -0.0496  0.7267
 1153BOLB   C2C27666   7.825  30.435  16.504 -0.3180 -0.0737 -0.2461
 1153BOLB   C3C27667   7.645  30.047  16.274 -0.0059  0.3506 -0.2174
 1153BOLB   C4C27668   7.527  29.667  16.507  0.0299  0.2868  0.0030
 1153BOLB   C1D27669   7.695  30.264  17.165 -0.0718  0.0918 -0.1989
 1153BOLB   C2D27670   7.693  30.075  16.827  0.4142  0.1032  0.3185
 1153BOLB   C3D27671   8.072  30.022  16.594 -0.1427  0.0157 -0.0689
 1153BOLB   C4D27672   8.391  29.889  16.501 -0.1572  0.1475 -0.3535
 1154BOLB   NC127673   5.445  20.559  18.574 -0.1904 -0.1539  0.1337
 1154BOLB   PO127674   5.528  20.108  18.327 -0.0359 -0.1679 -0.1951
 1154BOLB   GL127675   5.493  20.012  18.755 -0.0749 -0.1280 -0.2573
 1154BOLB   GL227676   5.658  19.753  18.881 -0.0343 -0.2243  0.0941
 1154BOLB   C1A27677   5.357  19.969  19.193  0.2868 -0.2502  0.1437
 1154BOLB   C2A27678   5.253  19.902  19.568 -0.1525 -0.1414 -0.0383
 1154BOLB   C3A27679   5.200  19.777  19.972  0.1560 -0.0157  0.3672
 1154BOLB   C4A27680   5.407  19.884  20.438 -0.1456  0.2852  0.0049
 1154BOLB   C1B27681   5.877  19.627  19.260 -0.1184  0.0466 -0.0689
 1154BOLB   C2B27682   6.068  19.524  19.693  0.1531 -0.2096 -0.2918
 1154BOLB   C3B27683   6.330  19.495  20.083  0.0064  0.0035 -0.1484
 1154BOLB   C4B27684   6.217  19.420  20.470  0.2085  0.2510  0.0272
 1154BOLB   NC227685   5.613  20.277  22.947  0.4284  0.1547  0.2631
 1154BOLB   PO227686   5.204  20.194  22.607  0.1314 -0.1437 -0.1661
 1154BOLB   GL327687   5.237  20.341  22.258 -0.0815 -0.0173  0.0753
 1154BOLB   GL427688   5.100  19.964  22.183 -0.1322  0.0392 -0.4313
 1154BOLB   C1C27689   5.399  20.187  21.845 -0.2205 -0.0909  0.1259
 1154BOLB   C2C27690   5.300  20.131  21.462  0.0732  0.0880  0.1744
 1154BOLB   C3C27691   5.077  19.815  21.223  0.0386  0.1796 -0.0446
 1154BOLB   C4C27692   5.156  19.725  20.753 -0.3349 -0.1247  0.0067
 1154BOLB   C1D27693   5.123  19.739  21.809  0.0974 -0.2328  0.2108
 1154BOLB   C2D27694   5.254  19.443  21.500 -0.1314  0.4586 -0.0395
 1154BOLB   C3D27695   4.968  19.137  21.247  0.1919 -0.1468  0.4343
 1154BOLB   C4D27696   4.753  18.953  20.929 -0.1957 -0.1881  0.2361
 1155BOLB   NC127697  11.557  23.991  16.627  0.1771 -0.1278  0.1168
 1155BOLB   PO127698  11.184  23.951  16.788  0.0443  0.0162  0.0310
 1155BOLB   GL127699  11.396  24.167  17.062 -0.0883  0.1025  0.3336
 1155BOLB   GL227700  11.503  23.838  17.254 -0.0100  0.0938  0.1099
 1155BOLB   C1A27701  11.656  24.252  17.416  0.0659  0.1602 -0.0190
 1155BOLB   C2A27702  11.916  24.209  17.685 -0.2151  0.2468  0.2454
 1155BOLB   C3A27703  12.109  24.220  18.035  0.4261 -0.2570 -0.0107
 1155BOLB   C4A27704  12.127  24.204  18.471 -0.1379 -0.1790 -0.1832
 1155BOLB   C1B27705  11.595  23.820  17.711  0.2747  0.1439 -0.1582
 1155BOLB   C2B27706  11.947  23.778  17.949  0.1205 -0.4361  0.1705
 1155BOLB   C3B27707  12.013  23.787  18.303  0.3763  0.0795 -0.1792
 1155BOLB   C4B27708  12.196  23.707  18.717 -0.2037  0.0742  0.0897
 1155BOLB   NC227709  12.110  24.589  21.301 -0.0993 -0.3147  0.2321
 1155BOLB   PO227710  12.313  24.376  20.980  0.1904  0.0317 -0.1979
 1155BOLB   GL327711  12.210  24.305  20.565  0.2154  0.2130  0.0989
 1155BOLB   GL427712  12.027  23.998  20.598 -0.0584 -0.3341 -0.0270
 1155BOLB   C1C27713  12.251  24.108  20.142  0.2660  0.0471  0.0596
 1155BOLB   C2C27714  12.374  24.273  19.684  0.3902 -0.2587  0.1529
 1155BOLB   C3C27715  12.506  24.401  19.185  0.3057  0.3947  0.3096
 1155BOLB   C4C27716  12.405  24.486  18.706 -0.0323  0.3395  0.2369
 1155BOLB   C1D27717  11.794  24.264  20.306  0.0678  0.0041 -0.0044
 1155BOLB   C2D27718  11.661  24.518  20.153  0.0320 -0.0761 -0.2327
 1155BOLB   C3D27719  11.662  24.904  20.195 -0.2407  0.0136 -0.0827
 1155BOLB   C4D27720  11.663  25.250  20.030  0.1581 -0.1084  0.0323
 1156BOLB   NC127721  11.587  26.760   8.487 -0.1663  0.3672  0.0791
 1156BOLB   PO127722  11.577  26.994   8.074  0.0852  0.0329 -0.1320
 1156BOLB   GL127723  11.742  27.337   8.212  0.2993 -0.1889  0.0123
 1156BOLB   GL227724  11.609  27.631   8.324 -0.1617  0.1134  0.0733
 1156BOLB   C1A27725  12.097  27.705   8.222 -0.0615 -0.0826 -0.3105
 1156BOLB   C2A27726  11.914  28.083   8.207  0.1703 -0.0844  0.0376
 1156BOLB   C3A27727  11.892  28.494   8.286 -0.2232  0.0727  0.2414
 1156BOLB   C4A27728  12.056  28.853   8.533  0.0801  0.0045  0.3081
 1156BOLB   C1B27729  11.406  28.026   8.279  0.6073 -0.1161  0.2163
 1156BOLB   C2B27730  11.168  28.386   8.191 -0.0139 -0.2889  0.2366
 1156BOLB   C3B27731  11.320  28.798   8.261  0.2072 -0.1036  0.0320
 1156BOLB   C4B27732  11.600  29.065   8.212 -0.0501 -0.0742  0.1318
 1156BOLB   NC227733  13.280  30.847   7.969  0.1307 -0.1229  0.0105
 1156BOLB   PO227734  13.651  30.599   8.100  0.1739  0.0401  0.3142
 1156BOLB   GL327735  13.373  30.329   8.275 -0.0923 -0.0143  0.0272
 1156BOLB   GL427736  13.508  30.326   8.578  0.0725  0.2345  0.2574
 1156BOLB   C1C27737  13.106  30.021   8.488  0.3057 -0.0791 -0.0399
 1156BOLB   C2C27738  12.698  29.727   8.603 -0.0169 -0.0840  0.1390
 1156BOLB   C3C27739  12.447  29.481   8.566  0.0160  0.0380  0.0631
 1156BOLB   C4C27740  12.085  29.241   8.597  0.2533 -0.0622 -0.0659
 1156BOLB   C1D27741  13.187  30.441   8.821 -0.0005  0.2405  0.0447
 1156BOLB   C2D27742  12.852  30.653   9.083  0.0325  0.1478 -0.1203
 1156BOLB   C3D27743  12.510  30.421   9.357 -0.0412 -0.0523  0.2695
 1156BOLB   C4D27744  12.355  30.044   9.416 -0.1380  0.3732 -0.0926
 1157BOLB   NC127745   0.307  24.917  13.996 -0.2395 -0.0023  0.1680
 1157BOLB   PO127746   0.204  24.598  14.329  0.3906 -0.0929  0.2077
 1157BOLB   GL127747   0.051  25.146  14.377 -0.1137 -0.1670  0.0998
 1157BOLB   GL227748   0.062  25.342  14.068  0.3766  0.1570 -0.1031
 1157BOLB   C1A27749  -0.305  25.435  14.461  0.1048  0.2728  0.2306
 1157BOLB   C2A27750  -0.550  25.811  14.428  0.0640 -0.0228 -0.0254
 1157BOLB   C3A27751  -0.558  26.044  14.593  0.0284 -0.1077  0.0521
 1157BOLB   C4A27752  -0.952  26.169  14.702 -0.3364 -0.4015 -0.2040
 1157BOLB   C1B27753  -0.142  25.783  14.018 -0.3092  0.0803 -0.2627
 1157BOLB   C2B27754  -0.375  26.104  14.009 -0.0723 -0.2890 -0.0184
 1157BOLB   C3B27755  -0.772  26.145  14.202  0.0162  0.0064  0.1713
 1157BOLB   C4B27756  -1.085  26.538  14.277 -0.0085  0.0189  0.1683
 1157BOLB   NC227757  -1.458  28.030  16.033 -0.2010 -0.0529  0.0125
 1157BOLB   PO227758  -1.501  27.944  15.777 -0.3022 -0.1838  0.0243
 1157BOLB   GL327759  -1.326  27.604  15.661  0.1574  0.2064  0.2135
 1157BOLB   GL427760  -1.043  27.742  15.587 -0.0451 -0.3461 -0.4938
 1157BOLB   C1C27761  -1.295  27.200  15.764 -0.1357  0.0491  0.0753
 1157BOLB   C2C27762  -1.327  26.867  15.588  0.0917 -0.2120 -0.1489
 1157BOLB   C3C27763  -1.320  26.609  15.282  0.1580  0.1108 -0.0450
 1157BOLB   C4C27764  -1.163  26.360  15.020  0.1072 -0.1344  0.0741
 1157BOLB   C1D27765  -1.291  27.784  15.157  0.0447 -0.1446 -0.4487
 1157BOLB   C2D27766  -1.601  27.585  14.846  0.5553 -0.0942  0.0850
 1157BOLB   C3D27767  -1.626  27.141  14.729  0.1907 -0.0049  0.0764
 1157BOLB   C4D27768  -1.424  26.859  14.788 -0.1639 -0.1418  0.1564
 1158BOLB   NC127769  37.693  23.090  13.867 -0.1988 -0.0328 -0.0495
 1158BOLB   PO127770  37.349  23.139  13.610  0.0772  0.0154 -0.1513
 1158BOLB   GL127771  37.042  23.310  13.827  0.4373  0.0853 -0.2089
 1158BOLB   GL227772  37.259  23.333  14.087  0.0661  0.0801 -0.0225
 1158BOLB   C1A27773  36.695  23.555  13.995 -0.0436  0.0013  0.0323
 1158BOLB   C2A27774  36.485  23.655  14.349  0.0587 -0.1008  0.0691
 1158BOLB   C3A27775  36.102  23.957  14.329  0.1482  0.3851 -0.1931
 1158BOLB   C4A27776  35.879  24.310  14.516  0.1820  0.2328 -0.2701
 1158BOLB   C1B27777  37.029  23.506  14.449  0.1027 -0.1887  0.0844
 1158BOLB   C2B27778  36.955  23.843  14.586  0.1899 -0.1568 -0.3870
 1158BOLB   C3B27779  36.861  24.140  14.893  0.2649 -0.1046  0.1757
 1158BOLB   C4B27780  36.599  24.515  14.962 -0.2700 -0.0116 -0.2805
 1158BOLB   NC227781  34.082  24.855  15.913 -0.0832 -0.2154 -0.0167
 1158BOLB   PO227782  34.046  24.463  16.287 -0.0400 -0.2668 -0.0754
 1158BOLB   GL327783  34.272  24.443  15.850 -0.2813  0.1110  0.3338
 1158BOLB   GL427784  34.488  24.316  15.905 -0.2087 -0.1167 -0.0313
 1158BOLB   C1C27785  34.453  24.615  15.440  0.2663  0.3387  0.1902
 1158BOLB   C2C27786  34.816  24.713  15.092 -0.1596 -0.2160  0.0648
 1158BOLB   C3C27787  35.152  24.582  14.871 -0.1126 -0.1593 -0.3225
 1158BOLB   C4C27788  35.510  24.400  14.619  0.1936  0.2845  0.0516
 1158BOLB   C1D27789  34.813  23.953  15.916  0.0330  0.1102  0.2306
 1158BOLB   C2D27790  34.954  23.723  15.516  0.1993  0.2164 -0.1400
 1158BOLB   C3D27791  35.046  23.637  15.052 -0.0532 -0.0763  0.2044
 1158BOLB   C4D27792  35.344  23.450  14.755 -0.0691  0.1611 -0.0456
 1159BOLB   NC127793   6.089  17.621  17.977 -0.0165  0.0491  0.0172
 1159BOLB   PO127794   5.816  17.408  17.749  0.5152 -0.0846 -0.0310
 1159BOLB   GL127795   5.527  17.166  18.012  0.1633 -0.1729 -0.1255
 1159BOLB   GL227796   5.611  17.074  18.298  0.0308 -0.0278  0.0902
 1159BOLB   C1A27797   5.250  16.757  18.200  0.2459 -0.0242 -0.0600
 1159BOLB   C2A27798   5.355  16.530  18.489 -0.0631  0.1377 -0.0401
 1159BOLB   C3A27799   5.301  16.373  18.871  0.4338 -0.0568 -0.3649
 1159BOLB   C4A27800   5.229  16.167  19.206  0.4375 -0.2014  0.1536
 1159BOLB   C1B27801   5.555  17.445  18.604  0.2591 -0.2742  0.0631
 1159BOLB   C2B27802   5.470  17.569  19.058 -0.2759  0.0430 -0.1201
 1159BOLB   C3B27803   5.647  17.405  19.489 -0.1074 -0.2332 -0.0219
 1159BOLB   C4B27804   5.574  17.368  19.931 -0.1402  0.1122 -0.0230
 1159BOLB   NC227805   4.638  15.551  21.647  0.0148  0.0723 -0.1699
 1159BOLB   PO227806   4.454  15.757  21.413  0.0944  0.1621  0.0342
 1159BOLB   GL327807   4.723  15.613  21.097 -0.0545 -0.4459 -0.3749
 1159BOLB   GL427808   4.793  15.929  20.905 -0.5383 -0.2191 -0.1336
 1159BOLB   C1C27809   4.638  15.412  20.713 -0.1744  0.4028  0.4550
 1159BOLB   C2C27810   4.805  15.595  20.329  0.0593 -0.1908  0.0085
 1159BOLB   C3C27811   4.902  15.917  19.881 -0.4391  0.2760  0.0140
 1159BOLB   C4C27812   4.992  15.984  19.456  0.1541 -0.3073 -0.1625
 1159BOLB   C1D27813   4.589  16.034  20.577  0.1108  0.0057  0.0716
 1159BOLB   C2D27814   4.238  15.870  20.374  0.1418 -0.3757 -0.0060
 1159BOLB   C3D27815   4.230  15.599  20.181 -0.0159  0.0777 -0.0281
 1159BOLB   C4D27816   4.100  15.506  19.775  0.1199 -0.2189 -0.1257
 1160BOLB   NC127817   7.843  27.178   5.960 -0.2317  0.0380  0.0419
 1160BOLB   PO127818   7.396  27.315   5.757 -0.2482  0.0705  0.1901
 1160BOLB   GL127819   7.432  27.531   5.329 -0.3709 -0.0926 -0.1782
 1160BOLB   GL227820   7.316  27.839   5.257  0.1152 -0.1205 -0.3297
 1160BOLB   C1A27821   7.674  27.708   4.967  0.3575 -0.0862 -0.0147
 1160BOLB   C2A27822   7.855  27.960   4.683  0.1899 -0.1420  0.1633
 1160BOLB   C3A27823   7.726  28.224   4.421  0.0351  0.1335  0.1029
 1160BOLB   C4A27824   7.787  28.613   4.201  0.0584  0.0562 -0.0073
 1160BOLB   C1B27825   7.442  28.173   5.162 -0.5208  0.1107 -0.0813
 1160BOLB   C2B27826   7.376  28.695   5.105 -0.1461 -0.3691 -0.2807
 1160BOLB   C3B27827   7.408  29.079   5.238 -0.0240  0.0795  0.3238
 1160BOLB   C4B27828   7.783  29.385   5.358 -0.1490 -0.2853  0.0736
 1160BOLB   NC227829   7.912  29.609   2.192 -0.1377  0.0595  0.2003
 1160BOLB   PO227830   7.811  30.064   2.362  0.4324 -0.2669  0.0019
 1160BOLB   GL327831   7.596  29.813   2.528 -0.1311  0.0095  0.1351
 1160BOLB   GL427832   7.437  29.506   2.444  0.1327 -0.1753 -0.2244
 1160BOLB   C1C27833   7.449  29.695   2.959  0.2198  0.1391  0.1295
 1160BOLB   C2C27834   7.534  29.509   3.325  0.1410  0.0297 -0.2217
 1160BOLB   C3C27835   7.702  29.160   3.549  0.2390 -0.3777 -0.1006
 1160BOLB   C4C27836   7.836  29.008   3.954 -0.0947  0.1534  0.2776
 1160BOLB   C1D27837   7.590  29.249   2.688  0.1575  0.0770  0.2178
 1160BOLB   C2D27838   7.513  29.072   3.064 -0.0265 -0.0593  0.0931
 1160BOLB   C3D27839   7.437  28.723   3.426  0.2534  0.0154 -0.2258
 1160BOLB   C4D27840   7.167  28.454   3.669 -0.0130 -0.0687  0.1337
 1161BOLB   NC127841   1.796  26.852  13.122 -0.2120  0.1336  0.1544
 1161BOLB   PO127842   1.442  26.743  13.370 -0.3225  0.0946 -0.1523
 1161BOLB   GL127843   1.297  27.181  13.518 -0.1191 -0.0525  0.3937
 1161BOLB   GL227844   1.005  27.104  13.682 -0.0975 -0.1047  0.1132
 1161BOLB   C1A27845   1.043  27.496  13.406  0.1772  0.2064  0.1652
 1161BOLB   C2A27846   0.801  27.907  13.505  0.1770 -0.2239  0.2018
 1161BOLB   C3A27847   0.982  28.412  13.608 -0.0506  0.3359  0.1915
 1161BOLB   C4A27848   0.672  28.681  13.327  0.4064  0.2841 -0.0477
 1161BOLB   C1B27849   0.900  27.507  13.885 -0.1532  0.0421 -0.1862
 1161BOLB   C2B27850   0.454  27.659  13.836  0.1785  0.2478 -0.1309
 1161BOLB   C3B27851   0.059  27.877  13.720  0.0192 -0.1955 -0.1670
 1161BOLB   C4B27852  -0.272  28.120  13.941 -0.0527  0.1356  0.1112
 1161BOLB   NC227853  -1.242  29.916  13.776  0.0520 -0.2364 -0.0753
 1161BOLB   PO227854  -1.126  30.299  13.605  0.0348  0.1125  0.1685
 1161BOLB   GL327855  -0.726  30.107  13.472 -0.0556 -0.0554  0.0609
 1161BOLB   GL427856  -0.597  30.379  13.250  0.1887 -0.3988  0.3813
 1161BOLB   C1C27857  -0.633  29.882  13.218  0.0442  0.1417 -0.0924
 1161BOLB   C2C27858  -0.136  29.718  13.148 -0.3665  0.0361 -0.1712
 1161BOLB   C3C27859   0.259  29.411  13.093  0.0286 -0.0511 -0.1140
 1161BOLB   C4C27860   0.411  29.071  13.325  0.0724 -0.0333 -0.0087
 1161BOLB   C1D27861  -0.176  30.333  12.974 -0.0729 -0.1122 -0.1141
 1161BOLB   C2D27862   0.177  29.998  12.841  0.1296 -0.1354 -0.0800
 1161BOLB   C3D27863   0.151  29.632  12.672 -0.1118  0.4011  0.0724
 1161BOLB   C4D27864  -0.202  29.413  12.436  0.1476  0.2515 -0.2097
 1162BOLB   NC127865  11.107  26.585  15.509  0.0227 -0.3163 -0.1817
 1162BOLB   PO127866  11.427  26.291  15.516 -0.2599 -0.2483  0.1758
 1162BOLB   GL127867  11.717  26.546  15.599 -0.0105 -0.0563  0.0875
 1162BOLB   GL227868  11.546  26.832  15.528 -0.0784  0.3192  0.1586
 1162BOLB   C1A27869  11.987  26.767  15.693 -0.0760 -0.1752  0.2231
 1162BOLB   C2A27870  12.173  26.844  16.097  0.1863  0.0497  0.1206
 1162BOLB   C3A27871  11.880  26.978  16.465 -0.1730  0.2274 -0.1291
 1162BOLB   C4A27872  11.909  27.167  16.892  0.0207  0.0622  0.4040
 1162BOLB   C1B27873  11.629  27.206  15.345  0.0485  0.0129 -0.2254
 1162BOLB   C2B27874  11.941  27.527  15.204  0.1577  0.1150  0.0014
 1162BOLB   C3B27875  12.049  27.993  15.284 -0.2181 -0.1309  0.0092
 1162BOLB   C4B27876  12.037  28.323  14.868 -0.1078  0.0344  0.0754
 1162BOLB   NC227877  13.479  27.838  19.436  0.2528  0.1960 -0.2847
 1162BOLB   PO227878  13.310  27.769  19.056  0.1081  0.0770  0.2809
 1162BOLB   GL327879  13.124  27.578  18.770  0.0722 -0.1804 -0.0401
 1162BOLB   GL427880  13.087  27.318  18.677  0.3665  0.0974  0.2360
 1162BOLB   C1C27881  12.928  27.548  18.261  0.1619 -0.2212  0.1677
 1162BOLB   C2C27882  12.523  27.389  18.015  0.1597 -0.0438 -0.0037
 1162BOLB   C3C27883  12.181  27.220  17.866 -0.0900  0.1579 -0.1270
 1162BOLB   C4C27884  12.064  27.181  17.373  0.0560  0.0640 -0.5571
 1162BOLB   C1D27885  12.720  27.059  18.510  0.4737  0.1042 -0.3676
 1162BOLB   C2D27886  12.540  26.742  18.350  0.0552 -0.1318 -0.1420
 1162BOLB   C3D27887  12.446  26.512  18.159 -0.0930  0.0435  0.2274
 1162BOLB   C4D27888  12.386  26.167  17.878  0.1358  0.0678  0.1647
 1163BOLB   NC127889  12.049  24.475  15.821 -0.0857 -0.0271 -0.5687
 1163BOLB   PO127890  11.796  24.783  15.832 -0.0891 -0.0197  0.1077
 1163BOLB   GL127891  11.928  25.205  15.972  0.2775 -0.1988  0.3876
 1163BOLB   GL227892  12.181  25.359  15.822  0.2859 -0.0031  0.0414
 1163BOLB   C1A27893  11.892  25.508  16.263 -0.1152 -0.1170 -0.1793
 1163BOLB   C2A27894  12.197  25.652  16.476  0.1275 -0.4555 -0.1692
 1163BOLB   C3A27895  12.439  25.886  16.901 -0.1434 -0.2240 -0.0555
 1163BOLB   C4A27896  12.695  26.014  17.090  0.1396  0.3045  0.5634
 1163BOLB   C1B27897  12.451  25.371  16.104 -0.2637 -0.0572  0.2257
 1163BOLB   C2B27898  12.762  25.574  16.305  0.2620  0.0288 -0.0001
 1163BOLB   C3B27899  12.969  25.809  16.590  0.0796  0.1035  0.1983
 1163BOLB   C4B27900  13.087  26.068  16.838  0.0225 -0.1637 -0.0678
 1163BOLB   NC227901  13.917  26.332  19.163 -0.0730  0.1020  0.5047
 1163BOLB   PO227902  14.226  26.125  18.964 -0.1877 -0.3736 -0.2136
 1163BOLB   GL327903  14.120  26.107  18.589 -0.0085  0.0524  0.4180
 1163BOLB   GL427904  14.173  26.456  18.411  0.0727 -0.1061  0.0110
 1163BOLB   C1C27905  13.760  26.070  18.262  0.1740 -0.0968  0.0857
 1163BOLB   C2C27906  13.688  26.042  17.910  0.2649 -0.0926 -0.0292
 1163BOLB   C3C27907  13.278  25.864  17.673 -0.0467  0.0982 -0.2632
 1163BOLB   C4C27908  12.982  26.094  17.360 -0.2100 -0.0979 -0.0951
 1163BOLB   C1D27909  14.075  26.383  17.985  0.1770 -0.3079 -0.1795
 1163BOLB   C2D27910  13.928  26.346  17.562  0.0867 -0.1467 -0.1554
 1163BOLB   C3D27911  13.627  26.436  17.352  0.2115 -0.0348  0.1480
 1163BOLB   C4D27912  13.593  26.221  16.957  0.1483  0.0565 -0.2055
 1164BOLB   NC127913   8.215  28.924  11.520 -0.1298 -0.0025  0.1261
 1164BOLB   PO127914   8.132  29.149  11.721  0.2500 -0.0691 -0.2401
 1164BOLB   GL127915   8.237  29.473  11.888  0.3896 -0.0026 -0.1967
 1164BOLB   GL227916   8.376  29.462  12.172 -0.3507 -0.2686 -0.1872
 1164BOLB   C1A27917   7.995  29.740  12.111  0.0600  0.2289 -0.4790
 1164BOLB   C2A27918   7.881  30.090  12.108 -0.1938  0.0364 -0.0441
 1164BOLB   C3A27919   7.732  30.463  12.213 -0.5134  0.1363  0.0698
 1164BOLB   C4A27920   7.540  30.854  12.428  0.0605  0.1954 -0.2381
 1164BOLB   C1B27921   8.448  29.999  12.350 -0.0628 -0.1880  0.1791
 1164BOLB   C2B27922   8.514  30.323  12.069  0.0314  0.1337  0.1869
 1164BOLB   C3B27923   8.735  30.630  11.910 -0.0987  0.1302 -0.1231
 1164BOLB   C4B27924   8.549  30.852  11.639 -0.0319  0.1286  0.0725
 1164BOLB   NC227925   7.611  33.169  13.001  0.0314  0.2144  0.4761
 1164BOLB   PO227926   7.304  33.052  13.317 -0.2408  0.0044 -0.0492
 1164BOLB   GL327927   7.461  32.700  13.001 -0.1187 -0.0354 -0.0302
 1164BOLB   GL427928   7.423  32.557  12.772 -0.1470 -0.0732 -0.3708
 1164BOLB   C1C27929   7.222  32.298  13.129  0.0991 -0.0052  0.1046
 1164BOLB   C2C27930   7.191  31.851  12.838  0.1382  0.1201  0.1983
 1164BOLB   C3C27931   7.327  31.650  12.600 -0.0993 -0.1123 -0.1892
 1164BOLB   C4C27932   7.325  31.163  12.532  0.0621 -0.0550 -0.0763
 1164BOLB   C1D27933   7.540  32.151  12.679 -0.2264 -0.1296 -0.0497
 1164BOLB   C2D27934   7.848  31.877  12.563  0.2359 -0.5247 -0.1174
 1164BOLB   C3D27935   8.082  31.466  12.710  0.1856  0.2229 -0.1969
 1164BOLB   C4D27936   8.293  31.200  12.539 -0.0318 -0.1456 -0.2793
 1165BOLB   NC127937   3.424  24.908  21.958  0.0107  0.1288 -0.0735
 1165BOLB   PO127938   3.271  25.236  22.013 -0.1343  0.0347  0.1868
 1165BOLB   GL127939   3.186  25.186  21.536  0.0378 -0.1159  0.3616
 1165BOLB   GL227940   3.448  24.964  21.450  0.1372 -0.1552 -0.2567
 1165BOLB   C1A27941   3.169  25.129  21.038 -0.2862  0.0604 -0.0477
 1165BOLB   C2A27942   3.424  25.342  20.690  0.0574  0.0481  0.0434
 1165BOLB   C3A27943   3.467  25.168  20.280 -0.2463 -0.2427 -0.0926
 1165BOLB   C4A27944   3.459  25.103  19.831 -0.0289  0.2627 -0.1602
 1165BOLB   C1B27945   3.259  24.690  21.300  0.0336  0.4898  0.1934
 1165BOLB   C2B27946   2.979  24.242  21.149 -0.0644  0.3785  0.1391
 1165BOLB   C3B27947   3.056  23.977  20.859 -0.0559  0.0345 -0.0263
 1165BOLB   C4B27948   3.407  23.625  20.670 -0.1287 -0.0132 -0.0356
 1165BOLB   NC227949   3.468  24.571  17.401 -0.0270  0.0843  0.0831
 1165BOLB   PO227950   3.467  24.172  17.524  0.3123  0.1080  0.0260
 1165BOLB   GL327951   3.336  24.397  17.854  0.0953 -0.2168 -0.1049
 1165BOLB   GL427952   3.024  24.380  17.748 -0.1393 -0.1912  0.0666
 1165BOLB   C1C27953   3.400  24.455  18.374 -0.2754  0.4151  0.0031
 1165BOLB   C2C27954   3.248  24.487  18.834 -0.2767 -0.0616  0.0784
 1165BOLB   C3C27955   3.179  24.704  19.195  0.0106 -0.0729 -0.2232
 1165BOLB   C4C27956   3.270  24.721  19.613  0.1651  0.1697  0.0163
 1165BOLB   C1D27957   2.705  24.524  18.088 -0.0114  0.1871 -0.0150
 1165BOLB   C2D27958   2.347  24.671  18.140  0.0403  0.0529  0.0431
 1165BOLB   C3D27959   1.984  24.903  18.338  0.1898  0.0756  0.0362
 1165BOLB   C4D27960   1.689  25.178  18.504  0.0062 -0.1160  0.1175
 1166BOLB   NC127961   3.011  27.613   8.390  0.1708  0.1573  0.1891
 1166BOLB   PO127962   3.027  28.021   8.380  0.3482  0.2046 -0.0819
 1166BOLB   GL127963   3.019  28.437   8.246 -0.0155  0.2413  0.2854
 1166BOLB   GL227964   3.281  28.577   7.962 -0.2573 -0.0047 -0.2958
 1166BOLB   C1A27965   2.845  28.749   8.097 -0.0526  0.2504 -0.2616
 1166BOLB   C2A27966   2.770  29.177   7.971 -0.0390  0.0362  0.1331
 1166BOLB   C3A27967   2.653  29.510   7.812  0.2075  0.0202  0.0629
 1166BOLB   C4A27968   2.614  29.963   7.834 -0.4953  0.4631  0.0747
 1166BOLB   C1B27969   3.228  29.010   7.814  0.2112  0.1680 -0.1630
 1166BOLB   C2B27970   3.063  29.229   7.551  0.1597  0.3977  0.1914
 1166BOLB   C3B27971   2.945  29.229   7.128 -0.1361 -0.0804  0.2892
 1166BOLB   C4B27972   2.871  29.355   6.667 -0.0272 -0.2164 -0.2593
 1166BOLB   NC227973   0.928  31.377   7.515  0.2837 -0.2692  0.0288
 1166BOLB   PO227974   0.983  31.445   6.999  0.1826 -0.2461  0.2302
 1166BOLB   GL327975   1.257  31.111   7.144  0.3069  0.2017 -0.5113
 1166BOLB   GL427976   1.121  30.845   7.161 -0.0534  0.1025 -0.1447
 1166BOLB   C1C27977   1.595  30.948   7.279  0.0646  0.0777 -0.1039
 1166BOLB   C2C27978   1.947  30.845   7.457 -0.2460  0.0698  0.0404
 1166BOLB   C3C27979   2.246  30.734   7.831  0.2370 -0.2882 -0.1976
 1166BOLB   C4C27980   2.336  30.321   7.872 -0.0494 -0.2800  0.0942
 1166BOLB   C1D27981   1.177  30.572   7.230  0.1020 -0.1969 -0.1304
 1166BOLB   C2D27982   1.510  30.372   7.094 -0.0545 -0.0152  0.3665
 1166BOLB   C3D27983   1.886  30.596   7.001 -0.2367 -0.0457 -0.2815
 1166BOLB   C4D27984   2.224  30.765   6.991  0.1826  0.0265 -0.1394
 1167BOLB   NC127985  15.136  19.004  19.019 -0.0184 -0.1145 -0.1615
 1167BOLB   PO127986  14.710  18.886  19.203  0.2754  0.2053 -0.0820
 1167BOLB   GL127987  14.249  18.759  18.935 -0.0707 -0.0610 -0.0026
 1167BOLB   GL227988  13.998  18.533  19.006 -0.3259  0.2452  0.2301
 1167BOLB   C1A27989  14.168  18.995  18.470  0.0817  0.0396  0.0800
 1167BOLB   C2A27990  14.208  18.833  18.072 -0.0577  0.0701 -0.2215
 1167BOLB   C3A27991  14.161  18.667  17.643  0.0739  0.0744  0.2196
 1167BOLB   C4A27992  14.134  18.364  17.463  0.3762  0.1378 -0.2070
 1167BOLB   C1B27993  13.596  18.679  18.986  0.2099  0.1204 -0.1888
 1167BOLB   C2B27994  13.320  19.005  18.696 -0.4307  0.2863 -0.2934
 1167BOLB   C3B27995  13.202  19.315  18.406  0.4249  0.0874  0.4215
 1167BOLB   C4B27996  13.419  19.340  18.062 -0.1028  0.0333  0.0076
 1167BOLB   NC227997  14.930  16.646  17.601 -0.1301 -0.0272 -0.1286
 1167BOLB   PO227998  14.823  16.413  17.208  0.1699  0.0382  0.0362
 1167BOLB   GL327999  14.617  16.761  17.221 -0.0044  0.2132  0.5036
 1167BOLB   GL428000  14.521  16.932  17.540  0.1201 -0.0063 -0.0435
 1167BOLB   C1C28001  14.247  16.989  17.127 -0.2138 -0.0529 -0.2737
 1167BOLB   C2C28002  14.036  17.359  17.014 -0.0476 -0.2786 -0.0493
 1167BOLB   C3C28003  14.231  17.683  17.136 -0.5241  0.0935  0.2337
 1167BOLB   C4C28004  14.302  18.036  17.471 -0.1642  0.0521 -0.1760
 1167BOLB   C1D28005  14.267  17.334  17.677 -0.2025 -0.2029  0.0954
 1167BOLB   C2D28006  13.898  17.447  17.508  0.0655 -0.1022  0.4981
 1167BOLB   C3D28007  13.684  17.654  17.150  0.0972  0.0090 -0.2397
 1167BOLB   C4D28008  13.731  17.804  16.753 -0.0210 -0.2786 -0.0179
 1168BOLB   NC128009  38.237  23.959  13.185 -0.1205  0.0887 -0.0179
 1168BOLB   PO128010  37.877  24.221  13.281  0.1974  0.1570 -0.1601
 1168BOLB   GL128011  37.567  24.306  13.465 -0.0538 -0.1224 -0.0910
 1168BOLB   GL228012  37.299  24.202  13.664  0.1379  0.5217 -0.0960
 1168BOLB   C1A28013  37.274  24.616  13.424 -0.0092 -0.0772 -0.1102
 1168BOLB   C2A28014  37.035  24.955  13.632 -0.2627 -0.0718  0.1936
 1168BOLB   C3A28015  36.800  25.289  13.558  0.1222  0.2600  0.0554
 1168BOLB   C4A28016  36.399  25.628  13.580  0.1074 -0.0932  0.1273
 1168BOLB   C1B28017  36.916  24.375  13.732 -0.2501  0.4241 -0.0032
 1168BOLB   C2B28018  36.899  24.664  14.030  0.2273  0.2578 -0.1832
 1168BOLB   C3B28019  36.769  25.238  14.075  0.1931 -0.2533 -0.0244
 1168BOLB   C4B28020  36.442  25.494  14.087 -0.1679  0.2247  0.4901
 1168BOLB   NC228021  34.748  27.467  13.510  0.3291  0.5546  0.2737
 1168BOLB   PO228022  34.624  27.065  13.486  0.0625 -0.0333  0.1839
 1168BOLB   GL328023  34.816  26.640  13.287 -0.1321  0.1880 -0.1602
 1168BOLB   GL428024  34.582  26.459  13.348 -0.1816  0.2547  0.4388
 1168BOLB   C1C28025  35.050  26.321  13.070 -0.1459 -0.4925 -0.1843
 1168BOLB   C2C28026  35.450  26.156  13.073 -0.0395  0.1267  0.3298
 1168BOLB   C3C28027  35.605  25.950  13.444  0.0363 -0.1733  0.2499
 1168BOLB   C4C28028  35.963  25.807  13.634 -0.2453  0.2416  0.0591
 1168BOLB   C1D28029  34.594  26.102  13.041  0.1617 -0.0420  0.5134
 1168BOLB   C2D28030  34.890  25.831  12.804 -0.1206  0.1257  0.2372
 1168BOLB   C3D28031  34.998  25.436  12.920 -0.3772 -0.0009  0.2333
 1168BOLB   C4D28032  34.857  25.017  12.908 -0.1774  0.2921  0.3270
 1169BOLB   NC128033   8.107  24.473   4.241  0.0888 -0.1443 -0.1621
 1169BOLB   PO128034   8.087  24.687   3.856 -0.2858 -0.0185  0.2748
 1169BOLB   GL128035   8.251  24.835   3.538 -0.0844 -0.1117 -0.1593
 1169BOLB   GL228036   7.898  24.994   3.443 -0.0281 -0.0866 -0.1297
 1169BOLB   C1A28037   8.512  25.127   3.335 -0.1547  0.0188  0.0942
 1169BOLB   C2A28038   8.710  25.003   2.988  0.2349 -0.2032  0.1158
 1169BOLB   C3A28039   8.761  25.075   2.482 -0.2159  0.0968  0.2959
 1169BOLB   C4A28040   8.782  25.143   2.037 -0.2187  0.1238  0.3291
 1169BOLB   C1B28041   8.087  25.307   3.152  0.1405 -0.0881  0.0301
 1169BOLB   C2B28042   8.356  25.309   2.817 -0.3706  0.0576 -0.0390
 1169BOLB   C3B28043   8.701  25.517   2.699 -0.2246  0.1479 -0.3001
 1169BOLB   C4B28044   8.776  25.942   2.760 -0.0147  0.1278 -0.0340
 1169BOLB   NC228045   8.453  26.341  -0.212 -0.2144 -0.1137 -0.1053
 1169BOLB   PO228046   8.599  25.934  -0.107  0.2782 -0.1081 -0.0723
 1169BOLB   GL328047   8.550  25.573   0.087 -0.4617  0.1455 -0.0785
 1169BOLB   GL428048   8.230  25.426   0.086 -0.2177  0.1474  0.3906
 1169BOLB   C1C28049   8.520  25.432   0.470  0.0665 -0.4295  0.1390
 1169BOLB   C2C28050   8.498  25.069   0.807  0.0670  0.2261  0.0011
 1169BOLB   C3C28051   8.457  24.984   1.225  0.2879 -0.1938 -0.1086
 1169BOLB   C4C28052   8.712  24.976   1.632 -0.0547  0.1004 -0.1140
 1169BOLB   C1D28053   8.157  25.123   0.397  0.0465 -0.1193 -0.0649
 1169BOLB   C2D28054   8.296  24.752   0.500 -0.1534 -0.0592  0.1911
 1169BOLB   C3D28055   8.407  24.529   0.842  0.0500 -0.1044 -0.0461
 1169BOLB   C4D28056   8.830  24.714   1.035  0.3984 -0.0368 -0.1688
 1170BOLB   NC128057   5.413  13.569  12.705  0.2993 -0.1335 -0.2180
 1170BOLB   PO128058   5.384  13.410  12.374 -0.1692  0.1795  0.2974
 1170BOLB   GL128059   5.211  13.076  12.181 -0.1249 -0.1363  0.0835
 1170BOLB   GL228060   4.848  13.098  12.048 -0.2141 -0.0020  0.0927
 1170BOLB   C1A28061   5.209  12.590  12.181 -0.1088  0.0203  0.1163
 1170BOLB   C2A28062   5.037  12.124  12.206  0.0920  0.2369  0.1456
 1170BOLB   C3A28063   4.832  11.781  12.322  0.2950 -0.0262  0.0234
 1170BOLB   C4A28064   4.951  11.407  12.597  0.0497  0.1467  0.2529
 1170BOLB   C1B28065   4.808  12.715  11.910  0.3003  0.0200  0.0808
 1170BOLB   C2B28066   4.614  12.233  11.951  0.1077  0.0074  0.3705
 1170BOLB   C3B28067   4.443  12.118  12.305 -0.1807 -0.0889 -0.1620
 1170BOLB   C4B28068   4.336  12.093  12.698  0.0054 -0.1633 -0.4075
 1170BOLB   NC228069   6.535   9.191  12.387 -0.2567  0.2086  0.2500
 1170BOLB   PO228070   6.708   9.538  12.425  0.0584  0.1762 -0.0192
 1170BOLB   GL328071   6.329   9.693  12.572 -0.0613 -0.0827 -0.0115
 1170BOLB   GL428072   6.489   9.837  12.815  0.1651  0.2699 -0.2066
 1170BOLB   C1C28073   5.848   9.891  12.693  0.1585 -0.1870  0.1743
 1170BOLB   C2C28074   5.571  10.269  12.687  0.0252  0.1338  0.0846
 1170BOLB   C3C28075   5.334  10.558  12.680 -0.0207 -0.0008 -0.1788
 1170BOLB   C4C28076   5.103  10.995  12.590 -0.1098  0.2619  0.0237
 1170BOLB   C1D28077   6.190  10.207  12.914  0.1656 -0.0608  0.2486
 1170BOLB   C2D28078   5.990  10.521  12.714 -0.1861  0.0178  0.2240
 1170BOLB   C3D28079   5.723  10.693  12.394  0.5418  0.1992 -0.1150
 1170BOLB   C4D28080   5.618  11.065  12.203 -0.0169  0.2104 -0.2942
 1171BOLB   NC128081  14.492  24.472   8.644  0.0298 -0.2776  0.0790
 1171BOLB   PO128082  14.642  24.004   8.563 -0.1510  0.0502  0.5200
 1171BOLB   GL128083  15.017  24.280   8.657  0.1171  0.0999 -0.0275
 1171BOLB   GL228084  15.171  24.147   8.981 -0.1763 -0.2876 -0.2267
 1171BOLB   C1A28085  15.503  24.357   8.648  0.0384 -0.0586  0.1302
 1171BOLB   C2A28086  15.866  24.507   8.852  0.0344  0.0124  0.2325
 1171BOLB   C3A28087  16.295  24.486   8.955 -0.2751 -0.1042 -0.3188
 1171BOLB   C4A28088  16.644  24.408   8.657  0.0259 -0.1594  0.1020
 1171BOLB   C1B28089  15.559  24.099   9.094 -0.0652  0.0506  0.2341
 1171BOLB   C2B28090  15.978  24.276   9.355  0.1534 -0.2915  0.2081
 1171BOLB   C3B28091  16.269  24.693   9.388 -0.3588  0.0481 -0.0898
 1171BOLB   C4B28092  16.754  24.851   9.354  0.3155  0.5300  0.0593
 1171BOLB   NC228093  19.425  24.172   8.930 -0.0510  0.0566  0.2176
 1171BOLB   PO228094  18.959  23.970   8.736  0.0083 -0.4129  0.2395
 1171BOLB   GL328095  18.527  23.974   8.735  0.1226  0.0849  0.1004
 1171BOLB   GL428096  18.411  23.817   9.101  0.2126  0.0735 -0.0500
 1171BOLB   C1C28097  18.066  23.890   8.620 -0.0252 -0.0137 -0.1862
 1171BOLB   C2C28098  17.781  23.902   8.484  0.1775  0.2245 -0.1870
 1171BOLB   C3C28099  17.333  24.031   8.549 -0.2815 -0.1051  0.4725
 1171BOLB   C4C28100  16.913  24.185   8.592 -0.4232  0.4904  0.0830
 1171BOLB   C1D28101  18.289  23.506   8.871 -0.0560 -0.0195 -0.0479
 1171BOLB   C2D28102  17.917  23.427   8.663  0.0780  0.0307  0.3639
 1171BOLB   C3D28103  17.537  23.104   8.585  0.0224  0.2514  0.0154
 1171BOLB   C4D28104  17.311  22.982   8.997 -0.0009  0.1607  0.0455
 1172BOLB   NC128105   0.618  24.478  15.122  0.0477 -0.0759  0.1145
 1172BOLB   PO128106   0.714  24.749  14.717 -0.1017 -0.0923  0.1353
 1172BOLB   GL128107   0.210  24.845  14.756  0.0774 -0.0934  0.1498
 1172BOLB   GL228108   0.128  24.622  14.989  0.0491 -0.1260 -0.0470
 1172BOLB   C1A28109  -0.249  24.991  14.729 -0.1375 -0.0304  0.3304
 1172BOLB   C2A28110  -0.507  25.065  15.025 -0.0513  0.0364 -0.0546
 1172BOLB   C3A28111  -0.470  25.256  15.310 -0.0555  0.0733  0.0637
 1172BOLB   C4A28112  -0.504  25.676  15.615  0.0613 -0.3835  0.1869
 1172BOLB   C1B28113   0.058  24.928  15.265 -0.0466 -0.1751  0.1181
 1172BOLB   C2B28114   0.015  25.349  15.475 -0.1320 -0.2872  0.1586
 1172BOLB   C3B28115   0.003  25.779  15.350 -0.1255  0.0136 -0.0130
 1172BOLB   C4B28116  -0.294  26.122  15.397 -0.0300  0.2546 -0.0072
 1172BOLB   NC228117  -1.748  26.729  17.695 -0.0466  0.0048  0.0943
 1172BOLB   PO228118  -1.664  26.469  17.395 -0.0653 -0.0257  0.1160
 1172BOLB   GL328119  -1.530  26.286  16.991  0.0448 -0.2803  0.0486
 1172BOLB   GL428120  -1.527  25.980  16.889  0.0919 -0.0655 -0.0181
 1172BOLB   C1C28121  -1.166  26.473  16.821 -0.2440  0.2823  0.1556
 1172BOLB   C2C28122  -1.032  26.427  16.351  0.0653  0.1081 -0.2255
 1172BOLB   C3C28123  -0.809  26.335  16.079  0.1959 -0.0039  0.0541
 1172BOLB   C4C28124  -0.644  26.118  15.743 -0.1276  0.0078 -0.0820
 1172BOLB   C1D28125  -1.119  26.018  16.605  0.2237 -0.1122  0.1010
 1172BOLB   C2D28126  -0.796  25.940  16.460 -0.0509  0.0883 -0.1467
 1172BOLB   C3D28127  -0.443  26.120  16.288  0.0325  0.2002 -0.3482
 1172BOLB   C4D28128  -0.185  26.161  15.940  0.0506  0.0652  0.2941
 1173BOLB   NC128129   5.256  27.730   6.505 -0.0064  0.0068 -0.0649
 1173BOLB   PO128130   4.980  27.572   6.274 -0.0905 -0.1295  0.0267
 1173BOLB   GL128131   4.804  27.919   6.153 -0.0371  0.2522  0.1403
 1173BOLB   GL228132   4.996  27.929   5.871  0.3558  0.1464 -0.1138
 1173BOLB   C1A28133   4.799  28.378   6.095  0.0405 -0.2665 -0.1731
 1173BOLB   C2A28134   4.581  28.759   6.083 -0.1349  0.1143 -0.2108
 1173BOLB   C3A28135   4.445  29.153   6.331  0.0709  0.1556  0.1638
 1173BOLB   C4A28136   4.183  29.471   6.153  0.1597 -0.1521 -0.0996
 1173BOLB   C1B28137   5.057  28.312   5.664 -0.0760  0.2389  0.1958
 1173BOLB   C2B28138   4.816  28.709   5.493  0.1238  0.0007 -0.0852
 1173BOLB   C3B28139   4.594  28.637   5.088 -0.2538 -0.0535  0.0914
 1173BOLB   C4B28140   4.413  28.639   4.660  0.2936 -0.0546 -0.1640
 1173BOLB   NC228141   3.847  31.657   5.230 -0.3548  0.0327  0.1229
 1173BOLB   PO228142   4.131  31.705   4.782  0.1087 -0.1188  0.0122
 1173BOLB   GL328143   4.255  31.423   5.173  0.1764  0.1157  0.4479
 1173BOLB   GL428144   4.612  31.279   5.178 -0.0743  0.1585  0.2346
 1173BOLB   C1C28145   4.310  30.957   5.301 -0.1021 -0.1879 -0.2661
 1173BOLB   C2C28146   4.248  30.653   5.652 -0.0274  0.0482 -0.1009
 1173BOLB   C3C28147   4.003  30.213   5.834 -0.1636 -0.2051  0.3474
 1173BOLB   C4C28148   4.215  29.848   6.021 -0.0031 -0.3072 -0.1075
 1173BOLB   C1D28149   4.754  30.953   5.519  0.0581 -0.0656 -0.0699
 1173BOLB   C2D28150   5.133  30.912   5.731  0.1431  0.0065 -0.1472
 1173BOLB   C3D28151   5.436  30.614   5.631  0.2341  0.0716 -0.1485
 1173BOLB   C4D28152   5.538  30.101   5.685  0.0189  0.0424  0.2484
 1174BOLB   NC128153  15.279  20.495   6.289  0.0503  0.0649  0.2726
 1174BOLB   PO128154  14.989  20.210   6.312 -0.0165  0.0091  0.0207
 1174BOLB   GL128155  15.430  20.045   6.198 -0.0287 -0.0468 -0.0757
 1174BOLB   GL228156  15.497  19.873   6.358  0.0583 -0.0274 -0.0353
 1174BOLB   C1A28157  15.822  20.088   5.948 -0.2699  0.0054  0.1534
 1174BOLB   C2A28158  16.253  20.210   5.899 -0.2179  0.1816 -0.1281
 1174BOLB   C3A28159  16.519  20.476   5.759 -0.0752  0.0466 -0.0679
 1174BOLB   C4A28160  16.754  20.858   5.664 -0.2399 -0.0044 -0.1162
 1174BOLB   C1B28161  15.897  19.770   6.501 -0.0489 -0.2264  0.1381
 1174BOLB   C2B28162  16.276  19.825   6.511 -0.1865 -0.4709  0.0310
 1174BOLB   C3B28163  16.482  19.801   6.822 -0.0461  0.0872  0.0249
 1174BOLB   C4B28164  16.360  19.777   7.300  0.2354 -0.1589 -0.0636
 1174BOLB   NC228165  18.674  21.023   3.202  0.0520  0.0797  0.2509
 1174BOLB   PO228166  18.462  21.222   3.626  0.0487 -0.2125  0.1241
 1174BOLB   GL328167  18.180  20.994   3.935  0.0841 -0.0508 -0.4354
 1174BOLB   GL428168  17.911  20.851   3.848  0.1279  0.3268 -0.0666
 1174BOLB   C1C28169  18.021  21.122   4.335 -0.0352  0.0559 -0.3929
 1174BOLB   C2C28170  17.696  20.885   4.596  0.3613 -0.3188  0.3115
 1174BOLB   C3C28171  17.194  20.836   4.853 -0.0596  0.3941  0.0065
 1174BOLB   C4C28172  17.011  20.993   5.281  0.2498  0.0381 -0.0375
 1174BOLB   C1D28173  17.566  20.761   4.056 -0.2218  0.2912  0.2668
 1174BOLB   C2D28174  17.293  20.965   4.327  0.0258 -0.2581 -0.1975
 1174BOLB   C3D28175  16.930  20.889   4.367  0.0054 -0.0773  0.1838
 1174BOLB   C4D28176  16.551  20.815   4.283 -0.0189 -0.0800  0.1351
 1175BOLB   NC128177  13.454  17.025   8.535 -0.3014  0.2853 -0.1577
 1175BOLB   PO128178  13.707  16.662   8.539  0.0231 -0.0060  0.4388
 1175BOLB   GL128179  14.148  16.550   8.484  0.3643  0.0121 -0.1583
 1175BOLB   GL228180  14.215  16.593   8.255 -0.2469 -0.1530 -0.0117
 1175BOLB   C1A28181  14.454  16.328   8.860  0.1320 -0.1291 -0.1477
 1175BOLB   C2A28182  14.748  16.074   8.937 -0.1060  0.0614 -0.0111
 1175BOLB   C3A28183  14.594  15.687   9.056 -0.1152  0.3438 -0.0296
 1175BOLB   C4A28184  14.618  15.339   9.296  0.0727  0.0304  0.1408
 1175BOLB   C1B28185  14.630  16.421   8.234  0.0484 -0.1347 -0.2055
 1175BOLB   C2B28186  14.648  15.951   8.141 -0.3023  0.0297 -0.0504
 1175BOLB   C3B28187  14.803  15.595   8.323  0.2515 -0.0004 -0.1297
 1175BOLB   C4B28188  15.108  15.362   8.567  0.1875 -0.0383 -0.3464
 1175BOLB   NC228189  15.663  13.188   9.612  0.0188 -0.2324 -0.2663
 1175BOLB   PO228190  15.516  13.023   9.220 -0.2904 -0.1718 -0.0633
 1175BOLB   GL328191  15.250  13.427   9.315  0.0537 -0.2810  0.1448
 1175BOLB   GL428192  15.514  13.578   9.405  0.0011  0.1688  0.0361
 1175BOLB   C1C28193  15.058  13.904   9.396 -0.0963  0.3419  0.1686
 1175BOLB   C2C28194  14.955  14.215   9.528  0.0483  0.0111  0.0038
 1175BOLB   C3C28195  14.597  14.483   9.480 -0.0260  0.0043  0.2012
 1175BOLB   C4C28196  14.495  14.984   9.450 -0.1062  0.2254 -0.0051
 1175BOLB   C1D28197  15.526  13.983   9.230  0.1091  0.3149  0.2318
 1175BOLB   C2D28198  15.447  14.349   8.953 -0.0096  0.0101 -0.0530
 1175BOLB   C3D28199  15.109  14.575   8.845 -0.3915 -0.1847 -0.0688
 1175BOLB   C4D28200  14.967  14.841   8.503  0.3514  0.0078 -0.2014
 1176BOLB   NC128201   8.431  28.527  10.134 -0.2034 -0.2386  0.4735
 1176BOLB   PO128202   8.742  28.731  10.515  0.1347 -0.1541  0.0021
 1176BOLB   GL128203   9.090  29.037  10.511 -0.0238  0.1880 -0.2747
 1176BOLB   GL228204   9.170  29.080  10.875 -0.2810 -0.0711 -0.2089
 1176BOLB   C1A28205   9.413  29.225  10.281  0.1829 -0.0272  0.1128
 1176BOLB   C2A28206   9.479  29.575   9.999 -0.1710  0.0356 -0.1446
 1176BOLB   C3A28207   9.564  29.948   9.788 -0.2127 -0.2116 -0.1269
 1176BOLB   C4A28208   9.662  30.360   9.758  0.3363  0.2341 -0.0469
 1176BOLB   C1B28209   9.561  29.417  10.889 -0.1693 -0.1066 -0.2109
 1176BOLB   C2B28210   9.852  29.632  10.712  0.1421  0.3395  0.0769
 1176BOLB   C3B28211  10.207  29.855  10.874  0.1435 -0.1327  0.2517
 1176BOLB   C4B28212  10.314  30.077  11.265  0.4266  0.0197  0.0108
 1176BOLB   NC228213  10.428  32.825  10.981  0.0168 -0.2540  0.2105
 1176BOLB   PO228214   9.939  32.709  10.827 -0.1431 -0.2797 -0.0050
 1176BOLB   GL328215   9.896  32.226  10.734  0.2221 -0.4918 -0.1731
 1176BOLB   GL428216  10.253  32.280  10.601  0.2120  0.1754  0.0270
 1176BOLB   C1C28217   9.854  31.830  10.493 -0.0034  0.2111 -0.0453
 1176BOLB   C2C28218   9.759  31.430  10.242  0.0777 -0.0867  0.1555
 1176BOLB   C3C28219   9.770  31.096   9.997 -0.3516 -0.2606  0.1849
 1176BOLB   C4C28220   9.575  30.678   9.930 -0.3251  0.1311 -0.5761
 1176BOLB   C1D28221  10.429  31.978  10.369 -0.0593 -0.0942  0.0730
 1176BOLB   C2D28222  10.793  31.626  10.423  0.2088 -0.1876  0.4018
 1176BOLB   C3D28223  10.684  31.435  10.803 -0.4019 -0.0162  0.2299
 1176BOLB   C4D28224  10.377  31.262  10.952  0.1732 -0.0150  0.0619
 1177BOLB   NC128225  18.635  17.457   8.234  0.0420  0.2721  0.0559
 1177BOLB   PO128226  18.365  17.409   7.896  0.0292 -0.0715 -0.2560
 1177BOLB   GL128227  17.942  17.342   8.020  0.0144 -0.0777  0.3035
 1177BOLB   GL228228  17.831  17.026   7.929 -0.0794  0.3693 -0.1235
 1177BOLB   C1A28229  17.772  17.623   7.822  0.5432  0.1831  0.2422
 1177BOLB   C2A28230  17.906  18.016   7.556 -0.4161 -0.2875 -0.2077
 1177BOLB   C3A28231  17.800  18.238   7.202 -0.2283  0.4953 -0.0733
 1177BOLB   C4A28232  17.348  18.186   7.117 -0.2135  0.0220  0.2448
 1177BOLB   C1B28233  17.447  17.200   7.815 -0.0641 -0.1269 -0.1201
 1177BOLB   C2B28234  16.970  17.189   7.907  0.1819  0.0268  0.1166
 1177BOLB   C3B28235  16.657  17.509   7.912 -0.0880 -0.0009 -0.3749
 1177BOLB   C4B28236  16.430  17.679   8.244 -0.1967  0.3825 -0.1408
 1177BOLB   NC228237  17.786  16.256   7.797 -0.1327  0.1599  0.3390
 1177BOLB   PO228238  17.866  16.595   7.604  0.4249 -0.0425 -0.1199
 1177BOLB   GL328239  17.497  16.681   7.746  0.1020  0.0819  0.0133
 1177BOLB   GL428240  17.318  16.476   7.621  0.0863 -0.1156  0.2350
 1177BOLB   C1C28241  17.126  16.944   7.515 -0.0879  0.2577  0.0424
 1177BOLB   C2C28242  16.875  17.286   7.411  0.4420 -0.1115  0.0027
 1177BOLB   C3C28243  16.692  17.752   7.376 -0.1908  0.1487 -0.0206
 1177BOLB   C4C28244  16.994  18.048   7.303 -0.1638  0.1221  0.1680
 1177BOLB   C1D28245  17.008  16.124   7.664  0.1015 -0.2800  0.2163
 1177BOLB   C2D28246  16.666  15.931   7.653 -0.1404  0.0787  0.1426
 1177BOLB   C3D28247  16.368  16.280   7.343  0.3103 -0.5020  0.0219
 1177BOLB   C4D28248  16.059  16.512   7.353  0.2365  0.3055  0.0191
 1178BOLB   NC128249  11.004  18.749  17.129  0.2112 -0.1955 -0.0819
 1178BOLB   PO128250  11.134  18.597  16.744 -0.2705 -0.1003  0.0611
 1178BOLB   GL128251  11.370  18.439  17.110 -0.1430 -0.1744  0.1875
 1178BOLB   GL228252  11.318  18.655  17.477  0.2667  0.1085  0.0663
 1178BOLB   C1A28253  11.431  18.112  17.431 -0.0555  0.0293  0.4451
 1178BOLB   C2A28254  11.728  17.990  17.681  0.0499 -0.0047  0.0935
 1178BOLB   C3A28255  11.850  17.698  17.912 -0.0960 -0.0736 -0.1294
 1178BOLB   C4A28256  12.071  17.417  18.300  0.0935  0.1123  0.0168
 1178BOLB   C1B28257  11.622  18.503  17.743  0.0603 -0.0350  0.1986
 1178BOLB   C2B28258  11.816  18.321  18.111 -0.0383  0.1143 -0.2057
 1178BOLB   C3B28259  12.058  17.973  18.323 -0.0779 -0.0811 -0.1338
 1178BOLB   C4B28260  11.789  17.883  18.643 -0.0969  0.0623 -0.4373
 1178BOLB   NC228261  12.710  16.717  20.192 -0.2108 -0.2388  0.0059
 1178BOLB   PO228262  12.259  16.672  20.191  0.2141  0.1535  0.0608
 1178BOLB   GL328263  12.239  17.028  19.985 -0.2879 -0.0673 -0.1216
 1178BOLB   GL428264  12.020  17.254  20.137  0.1255  0.0703  0.6028
 1178BOLB   C1C28265  12.319  17.253  19.670 -0.2440  0.0100  0.4308
 1178BOLB   C2C28266  12.223  17.380  19.308  0.4414  0.2742 -0.0300
 1178BOLB   C3C28267  12.072  17.517  18.996  0.0609 -0.2213  0.1783
 1178BOLB   C4C28268  12.027  17.433  18.695 -0.0116 -0.0891 -0.1517
 1178BOLB   C1D28269  11.850  17.341  19.811 -0.1079  0.0325 -0.1637
 1178BOLB   C2D28270  11.464  17.547  19.667 -0.2026 -0.0354 -0.0093
 1178BOLB   C3D28271  11.289  17.943  19.475  0.4477 -0.2062 -0.3106
 1178BOLB   C4D28272  10.876  18.183  19.661 -0.2362 -0.2811  0.2072
 1179BOLB   NC128273   1.397  26.322  13.605 -0.1478  0.3458  0.0357
 1179BOLB   PO128274   1.291  25.982  13.875 -0.2295 -0.0811  0.1235
 1179BOLB   GL128275   1.010  26.077  14.250 -0.0140 -0.0105  0.3587
 1179BOLB   GL228276   1.152  26.319  14.460  0.2044  0.1295  0.0723
 1179BOLB   C1A28277   0.633  26.478  14.257 -0.0163  0.4039 -0.3674
 1179BOLB   C2A28278   0.461  26.842  14.290  0.0318  0.0904 -0.0088
 1179BOLB   C3A28279   0.260  27.155  14.415 -0.0773 -0.0063 -0.0427
 1179BOLB   C4A28280   0.010  27.477  14.554 -0.1092 -0.3150  0.1244
 1179BOLB   C1B28281   1.195  26.786  14.581 -0.0178  0.2927  0.1481
 1179BOLB   C2B28282   0.986  27.193  14.833 -0.1155 -0.1022  0.3574
 1179BOLB   C3B28283   0.875  27.598  14.789 -0.2566 -0.0271  0.2233
 1179BOLB   C4B28284   0.769  27.861  15.189 -0.0885  0.0501 -0.1508
 1179BOLB   NC228285  -2.152  27.464  15.600  0.2983 -0.1937 -0.0025
 1179BOLB   PO228286  -1.983  27.859  15.652 -0.0676 -0.0803 -0.1887
 1179BOLB   GL328287  -1.741  27.903  15.287 -0.0968  0.1490 -0.4219
 1179BOLB   GL428288  -1.707  27.481  15.319  0.0643  0.0316  0.0785
 1179BOLB   C1C28289  -1.410  28.225  15.100  0.1642 -0.0857 -0.2940
 1179BOLB   C2C28290  -1.014  28.117  14.886 -0.1437  0.0677 -0.0650
 1179BOLB   C3C28291  -0.742  27.806  14.796 -0.0924  0.0115 -0.0262
 1179BOLB   C4C28292  -0.355  27.631  14.745  0.1869  0.1506  0.2028
 1179BOLB   C1D28293  -1.276  27.222  15.189  0.0888 -0.1023  0.1360
 1179BOLB   C2D28294  -0.952  26.939  15.150 -0.2151  0.1373  0.1779
 1179BOLB   C3D28295  -0.527  26.879  15.356 -0.0862 -0.0043 -0.1961
 1179BOLB   C4D28296  -0.304  27.292  15.351  0.4552  0.2619 -0.1729
 1180BOLB   NC128297   3.461  28.299  10.906 -0.1579  0.2749 -0.2613
 1180BOLB   PO128298   3.762  28.412  10.651 -0.1519 -0.1574  0.0223
 1180BOLB   GL128299   3.889  28.852  10.709  0.1348 -0.0794  0.2828
 1180BOLB   GL228300   3.798  28.906  10.372  0.1137  0.1798 -0.1577
 1180BOLB   C1A28301   3.937  29.331  10.763  0.2515  0.1754 -0.1729
 1180BOLB   C2A28302   3.986  29.705  10.596 -0.2759  0.0234  0.0481
 1180BOLB   C3A28303   3.791  30.210  10.746  0.0082  0.3572  0.0282
 1180BOLB   C4A28304   3.300  30.460  10.916  0.0265  0.2523 -0.1020
 1180BOLB   C1B28305   3.740  29.369  10.283  0.2399 -0.0221  0.0173
 1180BOLB   C2B28306   3.470  29.760  10.369  0.0020  0.2873 -0.1207
 1180BOLB   C3B28307   3.262  30.130  10.426 -0.0164  0.2531  0.1301
 1180BOLB   C4B28308   3.230  30.601  10.327  0.0419  0.1252 -0.2202
 1180BOLB   NC228309   0.951  32.183  10.367  0.0264  0.0265  0.0843
 1180BOLB   PO228310   1.092  31.774  10.169  0.1177  0.1367 -0.2699
 1180BOLB   GL328311   1.428  31.430  10.332 -0.1036  0.2474  0.1276
 1180BOLB   GL428312   1.517  31.390  10.717  0.0172  0.1413  0.4373
 1180BOLB   C1C28313   1.668  31.042  10.281 -0.0034  0.0019 -0.0206
 1180BOLB   C2C28314   2.002  30.848  10.472 -0.2166  0.1040 -0.0608
 1180BOLB   C3C28315   2.368  30.722  10.671 -0.5102 -0.1082 -0.0584
 1180BOLB   C4C28316   2.822  30.508  10.768 -0.2166 -0.2873 -0.0188
 1180BOLB   C1D28317   1.517  30.879  10.827 -0.1220 -0.1359  0.0492
 1180BOLB   C2D28318   1.700  30.462  10.697 -0.0231 -0.2259 -0.0255
 1180BOLB   C3D28319   1.935  30.079  10.504  0.4783  0.2037  0.3438
 1180BOLB   C4D28320   2.223  29.786  10.544 -0.0769 -0.1623  0.1155
 1181BOLB   NC128321  13.257  16.503  10.667  0.3334  0.1725 -0.0752
 1181BOLB   PO128322  13.044  16.673  11.001 -0.0208 -0.2256  0.0372
 1181BOLB   GL128323  13.190  16.251  11.109  0.1135  0.1103 -0.0315
 1181BOLB   GL228324  12.984  16.076  11.014 -0.2960  0.2003 -0.0642
 1181BOLB   C1A28325  13.621  16.004  11.356  0.3725 -0.1946  0.0199
 1181BOLB   C2A28326  13.910  15.678  11.496 -0.4226 -0.1348 -0.2766
 1181BOLB   C3A28327  14.293  15.413  11.364  0.0340  0.0559  0.1853
 1181BOLB   C4A28328  14.665  15.351  11.416  0.1197 -0.2119 -0.4282
 1181BOLB   C1B28329  13.201  15.794  11.451 -0.1759  0.1652 -0.1931
 1181BOLB   C2B28330  13.493  15.460  11.549  0.0987 -0.0408  0.1481
 1181BOLB   C3B28331  13.707  15.311  11.778  0.0688  0.1919 -0.0862
 1181BOLB   C4B28332  13.746  14.902  12.033 -0.0268  0.0331 -0.3125
 1181BOLB   NC228333  16.125  14.066  11.570  0.0379  0.0030 -0.5360
 1181BOLB   PO228334  16.177  14.246  11.966  0.2076  0.0660 -0.2128
 1181BOLB   GL328335  15.826  14.484  11.923  0.1744 -0.0626  0.2114
 1181BOLB   GL428336  15.484  14.384  11.865 -0.1720 -0.3985 -0.0665
 1181BOLB   C1C28337  15.721  14.885  11.829  0.0512 -0.2995 -0.2073
 1181BOLB   C2C28338  15.625  15.101  11.452 -0.1783  0.4386 -0.1490
 1181BOLB   C3C28339  15.364  15.277  11.259 -0.0504 -0.0651  0.1702
 1181BOLB   C4C28340  15.000  15.231  11.198 -0.2207 -0.1154 -0.3093
 1181BOLB   C1D28341  15.610  14.483  11.463 -0.3943  0.0558 -0.0278
 1181BOLB   C2D28342  15.828  14.357  11.129 -0.2547 -0.2779 -0.3260
 1181BOLB   C3D28343  15.637  14.202  10.800  0.2670  0.3279  0.0084
 1181BOLB   C4D28344  15.387  13.722  10.656  0.6042  0.1697  0.0552
 1182BOLB   NC128345  18.105  20.778  16.261 -0.4113 -0.1636 -0.2328
 1182BOLB   PO128346  17.735  20.951  16.007  0.0449  0.3185  0.1015
 1182BOLB   GL128347  17.235  20.894  15.863 -0.1697  0.0898  0.0610
 1182BOLB   GL228348  17.253  20.966  16.178 -0.1348 -0.0147 -0.0332
 1182BOLB   C1A28349  16.756  20.922  15.869  0.0606 -0.1749  0.3034
 1182BOLB   C2A28350  16.390  21.070  15.815  0.0416 -0.2204  0.3006
 1182BOLB   C3A28351  16.085  21.247  15.728  0.3457 -0.0788 -0.0628
 1182BOLB   C4A28352  15.874  21.628  15.603 -0.1467  0.2952 -0.2713
 1182BOLB   C1B28353  17.006  21.353  16.178  0.3090 -0.2620  0.1616
 1182BOLB   C2B28354  16.700  21.601  16.052  0.0865 -0.0288 -0.2800
 1182BOLB   C3B28355  16.421  22.004  16.080 -0.1098  0.1623 -0.4071
 1182BOLB   C4B28356  16.136  22.151  16.213  0.1052 -0.0781  0.0648
 1182BOLB   NC228357  14.281  22.427  14.166  0.2578  0.1051 -0.1476
 1182BOLB   PO228358  14.433  22.150  13.804  0.2376  0.3096  0.1310
 1182BOLB   GL328359  14.920  22.173  14.020  0.0005 -0.0145  0.1117
 1182BOLB   GL428360  15.054  22.343  13.770  0.0480  0.0630 -0.3442
 1182BOLB   C1C28361  15.225  22.288  14.296 -0.0469 -0.1610  0.0008
 1182BOLB   C2C28362  15.307  22.256  14.669 -0.1060 -0.0708 -0.0260
 1182BOLB   C3C28363  15.615  22.259  15.045 -0.2688  0.0198 -0.0541
 1182BOLB   C4C28364  15.733  22.049  15.442 -0.0066 -0.1840 -0.0218
 1182BOLB   C1D28365  15.408  22.476  13.854 -0.2440 -0.0961 -0.0929
 1182BOLB   C2D28366  15.851  22.444  13.857  0.2842 -0.3407 -0.0387
 1182BOLB   C3D28367  16.118  22.296  13.936  0.1513 -0.1316 -0.0624
 1182BOLB   C4D28368  16.303  22.028  14.258  0.0956 -0.1271  0.0499
 1183BOLB   NC128369   9.591  12.335   1.399  0.0959  0.4111 -0.1772
 1183BOLB   PO128370  10.088  12.425   1.370 -0.0900  0.2505 -0.0903
 1183BOLB   GL128371   9.834  12.605   1.716  0.1902  0.0891 -0.0809
 1183BOLB   GL228372   9.858  12.409   1.992 -0.2971  0.0645  0.1848
 1183BOLB   C1A28373   9.461  12.761   2.012 -0.3701  0.2454 -0.0460
 1183BOLB   C2A28374   9.376  13.209   2.301  0.0905  0.2633  0.2032
 1183BOLB   C3A28375   9.439  13.489   2.650  0.1163  0.0762  0.0949
 1183BOLB   C4A28376   9.646  13.736   2.984 -0.0400  0.1886 -0.2959
 1183BOLB   C1B28377  10.010  12.734   2.107 -0.0051 -0.0337 -0.1027
 1183BOLB   C2B28378   9.936  13.100   2.278 -0.0237 -0.2499 -0.3225
 1183BOLB   C3B28379   9.799  13.187   2.660  0.3576  0.0900 -0.0754
 1183BOLB   C4B28380   9.567  13.212   2.995  0.5964  0.1362 -0.0720
 1183BOLB   NC228381   8.046  15.041   4.315  0.0581 -0.2756  0.2167
 1183BOLB   PO228382   8.430  15.253   4.215  0.4772 -0.1413 -0.1689
 1183BOLB   GL328383   8.341  15.058   3.791  0.2473 -0.2069 -0.1752
 1183BOLB   GL428384   8.483  15.322   3.600 -0.2885  0.0554  0.3024
 1183BOLB   C1C28385   8.640  14.792   3.561  0.1587  0.1093 -0.3341
 1183BOLB   C2C28386   9.017  14.508   3.406 -0.0880  0.0267 -0.1142
 1183BOLB   C3C28387   9.488  14.461   3.403 -0.3608  0.1556 -0.0501
 1183BOLB   C4C28388   9.651  14.153   3.261 -0.1356 -0.1910  0.1976
 1183BOLB   C1D28389   8.460  15.039   3.165  0.0980  0.1142 -0.0093
 1183BOLB   C2D28390   8.605  14.926   2.814 -0.0412 -0.1204  0.1504
 1183BOLB   C3D28391   8.892  14.709   2.532  0.4749 -0.0759 -0.0576
 1183BOLB   C4D28392   9.300  14.861   2.632 -0.0075  0.2197  0.0287
 1184BOLB   NC128393  12.653  25.475  13.984  0.1171 -0.1688  0.1967
 1184BOLB   PO128394  12.939  25.588  13.848  0.0795  0.0386  0.1514
 1184BOLB   GL128395  13.364  25.612  14.095 -0.1094  0.1764  0.3709
 1184BOLB   GL228396  13.139  25.564  14.308  0.1941 -0.0046  0.2422
 1184BOLB   C1A28397  13.687  25.762  14.176  0.0233 -0.0820 -0.0521
 1184BOLB   C2A28398  13.989  25.802  14.425 -0.1094  0.1579 -0.0693
 1184BOLB   C3A28399  14.339  25.952  14.514 -0.2355 -0.2518  0.1666
 1184BOLB   C4A28400  14.740  26.082  14.844  0.1059 -0.1912  0.1877
 1184BOLB   C1B28401  13.258  25.771  14.660 -0.1487 -0.2269 -0.0617
 1184BOLB   C2B28402  13.574  26.035  14.699  0.0564 -0.1748  0.1754
 1184BOLB   C3B28403  13.967  26.275  14.638 -0.2036  0.2511  0.1393
 1184BOLB   C4B28404  14.299  26.460  14.961  0.2260 -0.1150 -0.0183
 1184BOLB   NC228405  15.382  27.782  16.092 -0.0565  0.2766  0.0469
 1184BOLB   PO228406  15.828  27.620  16.291  0.1551  0.1820  0.2847
 1184BOLB   GL328407  15.657  27.287  16.082  0.1205  0.1407  0.2278
 1184BOLB   GL428408  15.364  27.229  16.099 -0.3147 -0.1713  0.1294
 1184BOLB   C1C28409  15.558  27.067  15.706  0.0219 -0.0919  0.0723
 1184BOLB   C2C28410  15.507  26.838  15.259  0.3143  0.2637  0.0821
 1184BOLB   C3C28411  15.169  26.638  15.258 -0.1719  0.2591  0.0379
 1184BOLB   C4C28412  15.012  26.321  15.094 -0.0618  0.1266 -0.0392
 1184BOLB   C1D28413  14.934  27.053  16.069  0.1983 -0.0798 -0.1556
 1184BOLB   C2D28414  14.465  27.036  15.886 -0.1626  0.1500 -0.0168
 1184BOLB   C3D28415  14.291  26.690  15.866 -0.0927  0.1099 -0.0739
 1184BOLB   C4D28416  14.149  26.388  15.510 -0.2924  0.1037 -0.0710
 1185BOLB   NC128417   2.983  27.568   9.232  0.1340 -0.0883 -0.0966
 1185BOLB   PO128418   2.610  27.916   9.293  0.0458  0.4044 -0.2592
 1185BOLB   GL128419   2.494  28.343   9.316 -0.2613  0.0622 -0.2436
 1185BOLB   GL228420   2.659  28.622   9.191  0.1147 -0.0169  0.0898
 1185BOLB   C1A28421   2.068  28.587   9.270 -0.1204 -0.2427  0.2799
 1185BOLB   C2A28422   1.893  28.926   9.494  0.2300  0.1352 -0.3264
 1185BOLB   C3A28423   1.561  29.052   9.435 -0.0999 -0.3568 -0.1307
 1185BOLB   C4A28424   1.270  29.001   9.035 -0.0512  0.2639 -0.0945
 1185BOLB   C1B28425   2.395  28.980   9.079  0.0090 -0.2471  0.0384
 1185BOLB   C2B28426   2.301  29.373   8.904  0.0076  0.0697  0.0848
 1185BOLB   C3B28427   2.004  29.697   8.975  0.2436  0.1405 -0.1203
 1185BOLB   C4B28428   1.816  29.923   9.385 -0.2542 -0.2062 -0.0914
 1185BOLB   NC228429  -0.694  29.927   7.719 -0.0799 -0.1967  0.0331
 1185BOLB   PO228430  -0.551  30.154   8.070 -0.1918 -0.4211  0.1481
 1185BOLB   GL328431  -0.220  29.993   7.949  0.2398  0.2377 -0.3106
 1185BOLB   GL428432  -0.238  29.889   7.521 -0.5061 -0.0031 -0.2163
 1185BOLB   C1C28433   0.108  29.733   8.195  0.2270  0.1824  0.1136
 1185BOLB   C2C28434   0.486  29.703   8.290 -0.2632 -0.0790  0.2944
 1185BOLB   C3C28435   0.815  29.389   8.507 -0.1074 -0.2038  0.0351
 1185BOLB   C4C28436   0.980  29.277   8.872 -0.1437  0.2706 -0.0205
 1185BOLB   C1D28437   0.125  29.725   7.677 -0.2760 -0.2206  0.1579
 1185BOLB   C2D28438   0.447  29.555   7.793 -0.0381  0.0540  0.0741
 1185BOLB   C3D28439   0.772  29.389   8.041 -0.2409  0.2344  0.1414
 1185BOLB   C4D28440   1.026  29.134   7.760 -0.0499  0.0023  0.1099
 1186BOLB   NC128441   9.498  15.839  14.321 -0.0900 -0.0871 -0.2431
 1186BOLB   PO128442   9.587  15.394  14.468 -0.1553 -0.2374  0.1062
 1186BOLB   GL128443   9.886  15.247  14.535 -0.0423  0.1540 -0.1659
 1186BOLB   GL228444  10.043  15.466  14.763  0.0510  0.0806 -0.2029
 1186BOLB   C1A28445  10.238  14.910  14.728  0.1509  0.0556  0.1927
 1186BOLB   C2A28446  10.421  14.492  14.812 -0.1494 -0.0032  0.1788
 1186BOLB   C3A28447  10.521  14.029  14.931  0.2792 -0.1076 -0.2053
 1186BOLB   C4A28448  10.440  13.866  15.362 -0.1019 -0.0212 -0.1272
 1186BOLB   C1B28449   9.881  15.331  15.219 -0.0310  0.0885  0.0594
 1186BOLB   C2B28450   9.680  15.419  15.590  0.0290  0.0687  0.2705
 1186BOLB   C3B28451   9.857  15.310  15.959 -0.3381  0.0489  0.0835
 1186BOLB   C4B28452  10.082  15.180  16.236  0.0530 -0.1491 -0.3440
 1186BOLB   NC228453  10.388  11.516  16.735  0.0732 -0.0822 -0.1218
 1186BOLB   PO228454  10.223  11.649  16.357 -0.1478 -0.0187 -0.1059
 1186BOLB   GL328455  10.040  11.960  16.074 -0.0509  0.2106 -0.1057
 1186BOLB   GL428456  10.009  11.965  15.732  0.2702 -0.0643  0.2366
 1186BOLB   C1C28457   9.941  12.390  15.973  0.3420 -0.1675  0.0750
 1186BOLB   C2C28458  10.126  12.720  15.845 -0.2655 -0.0449 -0.0489
 1186BOLB   C3C28459  10.317  13.123  15.852  0.0328  0.0914  0.2621
 1186BOLB   C4C28460  10.444  13.477  15.622  0.0725  0.2160 -0.0444
 1186BOLB   C1D28461  10.205  12.368  15.489 -0.0294  0.0469 -0.0971
 1186BOLB   C2D28462   9.832  12.732  15.366 -0.1464 -0.0598  0.0707
 1186BOLB   C3D28463   9.699  13.099  15.572  0.1077 -0.0502  0.0937
 1186BOLB   C4D28464   9.630  13.447  15.727  0.0285  0.0905  0.1376
 1187BOLB   NC128465  14.454  20.655   5.941  0.1337 -0.0546 -0.0781
 1187BOLB   PO128466  14.481  20.981   5.628 -0.3752 -0.0875 -0.2035
 1187BOLB   GL128467  14.742  20.941   5.253  0.1908  0.0501 -0.2692
 1187BOLB   GL228468  14.699  20.749   4.922 -0.3516 -0.2077  0.0720
 1187BOLB   C1A28469  15.149  20.811   5.063 -0.0796 -0.1123  0.1890
 1187BOLB   C2A28470  15.306  20.568   4.658  0.2548  0.0155  0.0146
 1187BOLB   C3A28471  15.614  20.468   4.343  0.0551  0.0703  0.0830
 1187BOLB   C4A28472  15.923  20.289   4.344  0.1394 -0.0540  0.1361
 1187BOLB   C1B28473  14.758  20.847   4.602  0.1792  0.1192 -0.0646
 1187BOLB   C2B28474  14.645  20.711   4.188 -0.3185  0.0717  0.2070
 1187BOLB   C3B28475  14.859  20.599   3.774 -0.1758  0.1066  0.0515
 1187BOLB   C4B28476  15.080  20.807   3.437  0.0441  0.4446  0.4122
 1187BOLB   NC228477  18.136  20.190   2.950 -0.1526 -0.2458 -0.1675
 1187BOLB   PO228478  17.822  20.516   2.708  0.0750 -0.1942 -0.1076
 1187BOLB   GL328479  17.767  20.525   3.139  0.2977  0.0226  0.1998
 1187BOLB   GL428480  18.087  20.503   3.338 -0.1014 -0.1571 -0.0648
 1187BOLB   C1C28481  17.501  20.656   3.510 -0.2482  0.4520 -0.1083
 1187BOLB   C2C28482  17.149  20.508   3.824  0.0715 -0.1301 -0.0413
 1187BOLB   C3C28483  16.760  20.435   3.930 -0.2470  0.0272 -0.1942
 1187BOLB   C4C28484  16.351  20.315   4.100 -0.0563 -0.0577 -0.0645
 1187BOLB   C1D28485  17.867  20.279   3.730  0.0199  0.0671  0.1019
 1187BOLB   C2D28486  17.533  20.171   3.794  0.0997  0.0441  0.1230
 1187BOLB   C3D28487  17.189  20.004   3.984 -0.0507  0.0460  0.1152
 1187BOLB   C4D28488  17.012  19.624   3.944  0.0038  0.0869 -0.0179
 1188BOLB   NC128489  36.011  17.269  21.299  0.0935 -0.0646  0.1835
 1188BOLB   PO128490  35.631  17.183  21.177  0.2430 -0.0465  0.1701
 1188BOLB   GL128491  35.691  17.089  20.761 -0.1534 -0.4165  0.0073
 1188BOLB   GL228492  35.478  17.309  20.570  0.0166 -0.1124 -0.0729
 1188BOLB   C1A28493  35.838  16.885  20.346 -0.0212  0.1339 -0.1437
 1188BOLB   C2A28494  35.840  16.649  20.020  0.2031 -0.0874  0.1044
 1188BOLB   C3A28495  35.719  16.443  19.581 -0.2244  0.1930  0.1903
 1188BOLB   C4A28496  35.415  16.190  19.392  0.0548  0.0830  0.0773
 1188BOLB   C1B28497  35.293  16.887  20.373 -0.1854 -0.1485  0.1316
 1188BOLB   C2B28498  35.409  16.507  20.232  0.1635 -0.2451 -0.2843
 1188BOLB   C3B28499  35.631  16.165  20.153  0.1968 -0.0892 -0.0367
 1188BOLB   C4B28500  35.993  16.096  19.943  0.2133 -0.2259  0.0219
 1188BOLB   NC228501  34.277  16.990  20.867  0.1265 -0.0097  0.2016
 1188BOLB   PO228502  34.021  16.838  20.824  0.3801  0.4425 -0.1598
 1188BOLB   GL328503  34.220  16.655  20.412  0.1342 -0.2437 -0.0617
 1188BOLB   GL428504  34.359  16.864  20.269 -0.4446 -0.3291 -0.0654
 1188BOLB   C1C28505  34.181  16.518  19.975 -0.2340 -0.0287 -0.1522
 1188BOLB   C2C28506  34.123  16.514  19.607  0.1500 -0.0487 -0.0461
 1188BOLB   C3C28507  34.483  16.379  19.275  0.0668 -0.3901  0.1772
 1188BOLB   C4C28508  34.954  16.369  19.296  0.2996 -0.0399  0.0130
 1188BOLB   C1D28509  34.155  16.979  19.829 -0.2798  0.1674  0.0419
 1188BOLB   C2D28510  33.869  17.001  19.499  0.2468 -0.1379  0.1241
 1188BOLB   C3D28511  33.653  16.947  19.115 -0.0463  0.1190  0.1833
 1188BOLB   C4D28512  33.329  16.662  19.131  0.1898 -0.1354  0.1485
 1189BOLB   NC128513   5.179  28.793  12.854 -0.3074  0.1160 -0.0520
 1189BOLB   PO128514   5.024  28.442  12.534 -0.0368  0.1842  0.2557
 1189BOLB   GL128515   4.850  28.898  12.464  0.0746 -0.1925  0.0342
 1189BOLB   GL228516   4.741  29.097  12.706 -0.0447 -0.3494 -0.0904
 1189BOLB   C1A28517   4.603  29.298  12.294  0.0888 -0.2794 -0.2330
 1189BOLB   C2A28518   4.436  29.626  12.492 -0.2035 -0.0223  0.1728
 1189BOLB   C3A28519   3.976  29.630  12.723 -0.0145 -0.0851 -0.2405
 1189BOLB   C4A28520   3.825  30.070  12.759  0.0467  0.3200  0.0645
 1189BOLB   C1B28521   4.768  29.516  12.855 -0.0846 -0.0032 -0.0111
 1189BOLB   C2B28522   4.430  29.856  12.918  0.0332 -0.1400  0.3860
 1189BOLB   C3B28523   4.209  30.138  13.080 -0.0725  0.2353  0.0884
 1189BOLB   C4B28524   4.115  30.610  13.050  0.1254 -0.0228 -0.0559
 1189BOLB   NC228525   2.516  31.756  13.289 -0.1581 -0.0312  0.3926
 1189BOLB   PO228526   2.208  31.568  13.641 -0.0531  0.0091  0.0875
 1189BOLB   GL328527   2.594  31.383  13.543  0.0914  0.1063  0.4195
 1189BOLB   GL428528   2.887  31.335  13.779 -0.0855 -0.1844  0.2294
 1189BOLB   C1C28529   2.705  31.134  13.322  0.3528  0.3107  0.4657
 1189BOLB   C2C28530   3.103  31.044  13.061 -0.2351  0.1081 -0.0669
 1189BOLB   C3C28531   3.428  30.759  12.866  0.2039  0.2346 -0.2966
 1189BOLB   C4C28532   3.739  30.389  12.842  0.2815  0.0797  0.0974
 1189BOLB   C1D28533   2.844  30.995  13.905 -0.0239  0.2787  0.2872
 1189BOLB   C2D28534   2.854  30.629  13.833  0.0938  0.1640  0.0819
 1189BOLB   C3D28535   2.956  30.299  14.077 -0.4155 -0.3155  0.2859
 1189BOLB   C4D28536   2.725  29.958  14.347 -0.0941 -0.2959  0.2422
 1190BOLB   NC128537  38.297  24.628   7.201 -0.1147  0.1098  0.0676
 1190BOLB   PO128538  38.499  24.351   6.866  0.3008 -0.1626  0.2918
 1190BOLB   GL128539  38.214  24.638   6.605 -0.3363  0.3437  0.1498
 1190BOLB   GL228540  38.301  24.694   6.260 -0.0562  0.1593  0.1172
 1190BOLB   C1A28541  37.876  24.890   6.446 -0.1961  0.2477 -0.1678
 1190BOLB   C2A28542  37.577  25.009   6.185 -0.3149  0.0474  0.1834
 1190BOLB   C3A28543  37.147  25.187   5.963  0.1762 -0.3745  0.1902
 1190BOLB   C4A28544  36.716  25.176   5.874  0.0523 -0.2523 -0.0263
 1190BOLB   C1B28545  38.089  24.918   5.989 -0.0875 -0.0083 -0.1151
 1190BOLB   C2B28546  37.735  24.983   5.691  0.2485 -0.2511  0.2122
 1190BOLB   C3B28547  37.421  25.308   5.614 -0.0079  0.0810 -0.1720
 1190BOLB   C4B28548  37.312  25.507   5.270 -0.0021  0.1062 -0.0429
 1190BOLB   NC228549  34.378  26.719   6.287  0.0616 -0.2070 -0.2790
 1190BOLB   PO228550  34.823  26.908   6.144  0.0949  0.0832  0.2730
 1190BOLB   GL328551  35.207  26.679   6.079 -0.4442 -0.0456 -0.1165
 1190BOLB   GL428552  35.366  26.954   6.302  0.0955 -0.0634  0.3241
 1190BOLB   C1C28553  35.420  26.331   6.151 -0.2792  0.0754  0.0609
 1190BOLB   C2C28554  35.773  25.981   6.038 -0.1715 -0.0512 -0.0210
 1190BOLB   C3C28555  36.052  25.567   6.056  0.0173 -0.1102 -0.0712
 1190BOLB   C4C28556  36.427  25.569   5.844  0.2940 -0.0174  0.0093
 1190BOLB   C1D28557  35.643  26.646   6.481  0.2524 -0.0399 -0.0402
 1190BOLB   C2D28558  36.078  26.372   6.777  0.0472  0.0129  0.2501
 1190BOLB   C3D28559  36.496  26.211   6.887 -0.1036 -0.1510  0.0921
 1190BOLB   C4D28560  36.949  26.036   7.081  0.3692 -0.2271 -0.3019
 1191BOLB   NC128561   8.400  27.926  13.747 -0.0384 -0.0318 -0.1429
 1191BOLB   PO128562   8.753  28.172  13.877  0.0675  0.3318 -0.0328
 1191BOLB   GL128563   8.589  28.505  14.091 -0.0623  0.2254 -0.0068
 1191BOLB   GL228564   8.237  28.572  14.300 -0.0369 -0.0476  0.1970
 1191BOLB   C1A28565   8.562  28.977  14.357  0.0454  0.0641 -0.2410
 1191BOLB   C2A28566   8.392  29.389  14.581 -0.1092 -0.0054  0.0295
 1191BOLB   C3A28567   8.229  29.814  14.713 -0.0817  0.2397 -0.2253
 1191BOLB   C4A28568   8.508  30.232  14.436  0.4099 -0.0613  0.0455
 1191BOLB   C1B28569   8.279  28.892  13.841 -0.2212  0.2758  0.2181
 1191BOLB   C2B28570   8.625  29.135  13.790  0.3776 -0.0299  0.1306
 1191BOLB   C3B28571   8.725  29.391  14.175  0.2555 -0.0045  0.0692
 1191BOLB   C4B28572   8.542  29.737  14.283 -0.0117 -0.1459 -0.3380
 1191BOLB   NC228573   9.257  32.499  15.191  0.0607 -0.1025 -0.0765
 1191BOLB   PO228574   9.470  32.334  14.776  0.1379  0.0252 -0.0969
 1191BOLB   GL328575   9.488  31.936  14.630 -0.0896 -0.0509  0.1476
 1191BOLB   GL428576   9.737  31.777  14.523  0.1336  0.1946  0.1264
 1191BOLB   C1C28577   9.323  31.607  14.342 -0.0892  0.2229 -0.1814
 1191BOLB   C2C28578   9.140  31.286  14.142 -0.5106  0.2970 -0.0576
 1191BOLB   C3C28579   8.993  30.810  14.007  0.2538  0.1159 -0.1519
 1191BOLB   C4C28580   8.840  30.514  14.241  0.3182  0.1829  0.2585
 1191BOLB   C1D28581   9.647  31.430  14.672 -0.2089  0.0718  0.1810
 1191BOLB   C2D28582   9.438  31.058  14.498  0.3823 -0.1725 -0.1286
 1191BOLB   C3D28583   9.365  30.784  14.316  0.2817  0.1534 -0.1932
 1191BOLB   C4D28584   9.674  30.539  14.178  0.2319  0.3507  0.1261
 1192BOLB   NC128585   4.018  16.877  17.087  0.2046 -0.0706  0.0954
 1192BOLB   PO128586   4.387  16.675  17.279 -0.3796 -0.0137  0.0851
 1192BOLB   GL128587   4.037  16.596  17.515 -0.1541  0.2511 -0.1199
 1192BOLB   GL228588   3.957  16.997  17.564  0.0276  0.1991  0.2211
 1192BOLB   C1A28589   3.700  16.288  17.667  0.0258 -0.1520 -0.3579
 1192BOLB   C2A28590   3.632  15.871  17.803  0.0673  0.2171  0.1194
 1192BOLB   C3A28591   3.718  15.661  18.184  0.0698  0.3038  0.0104
 1192BOLB   C4A28592   3.432  15.510  18.491 -0.1284 -0.1528 -0.3183
 1192BOLB   C1B28593   3.849  16.741  17.902 -0.1982 -0.0591 -0.2819
 1192BOLB   C2B28594   3.971  16.517  18.229  0.1973 -0.2164 -0.0776
 1192BOLB   C3B28595   4.064  16.339  18.620  0.1205 -0.0761  0.1986
 1192BOLB   C4B28596   4.255  15.912  18.825  0.0354 -0.1088  0.2641
 1192BOLB   NC228597   4.170  14.847  20.437  0.0791 -0.0704  0.0157
 1192BOLB   PO228598   3.916  14.487  20.416  0.1523 -0.2028 -0.0782
 1192BOLB   GL328599   3.981  14.567  20.061  0.2532  0.0709  0.0693
 1192BOLB   GL428600   3.751  14.415  19.979 -0.0888  0.2933 -0.1638
 1192BOLB   C1C28601   3.902  14.789  19.633  0.0268  0.3808  0.1024
 1192BOLB   C2C28602   3.812  15.131  19.371 -0.0739 -0.1112  0.1040
 1192BOLB   C3C28603   3.389  15.181  19.178  0.1658 -0.0592  0.1246
 1192BOLB   C4C28604   3.226  15.419  18.833  0.0716 -0.1543 -0.2898
 1192BOLB   C1D28605   3.766  14.207  19.701  0.3126  0.0898  0.1707
 1192BOLB   C2D28606   3.880  14.233  19.214 -0.0611 -0.1785  0.2032
 1192BOLB   C3D28607   3.908  14.438  18.858 -0.1215 -0.0697 -0.1629
 1192BOLB   C4D28608   3.931  14.544  18.413  0.0875 -0.1412 -0.0182
 1193BOLB   NC128609   0.635  22.910  15.950 -0.0366  0.2849 -0.1705
 1193BOLB   PO128610   0.409  22.686  15.649  0.1228 -0.0818  0.5692
 1193BOLB   GL128611   0.057  22.804  15.840  0.4996  0.0488  0.1229
 1193BOLB   GL228612   0.108  22.663  16.154  0.5000  0.3087  0.2734
 1193BOLB   C1A28613  -0.331  22.852  15.986  0.1812  0.2515  0.1055
 1193BOLB   C2A28614  -0.659  23.019  16.218 -0.1622  0.1275 -0.1401
 1193BOLB   C3A28615  -1.144  22.829  16.336  0.1080 -0.0930  0.0073
 1193BOLB   C4A28616  -1.554  22.833  16.292 -0.1757  0.2584 -0.2475
 1193BOLB   C1B28617  -0.147  23.056  16.380 -0.2501  0.0277  0.0650
 1193BOLB   C2B28618  -0.216  23.260  16.646  0.0020  0.0680  0.1800
 1193BOLB   C3B28619  -0.487  23.385  17.002  0.0964  0.1618  0.2565
 1193BOLB   C4B28620  -0.688  23.607  17.318  0.0119  0.1994 -0.1132
 1193BOLB   NC228621  -2.766  23.673  18.490  0.1732 -0.2295 -0.0599
 1193BOLB   PO228622  -2.868  23.894  18.052  0.1014 -0.0357 -0.0945
 1193BOLB   GL328623  -2.735  23.763  17.515 -0.4420  0.1420 -0.4926
 1193BOLB   GL428624  -2.900  23.530  17.293 -0.1298 -0.2294  0.1500
 1193BOLB   C1C28625  -2.328  23.829  17.313 -0.0999  0.0203 -0.0893
 1193BOLB   C2C28626  -2.053  23.796  16.848  0.0347 -0.3157 -0.1446
 1193BOLB   C3C28627  -2.000  23.621  16.508 -0.4295  0.3726 -0.3198
 1193BOLB   C4C28628  -1.800  23.235  16.355 -0.0936 -0.1213 -0.2769
 1193BOLB   C1D28629  -2.705  23.224  17.038  0.0960  0.0388 -0.0347
 1193BOLB   C2D28630  -2.479  22.859  16.932 -0.1983 -0.1952  0.0016
 1193BOLB   C3D28631  -2.167  22.911  16.648  0.1874 -0.0223  0.0105
 1193BOLB   C4D28632  -2.094  22.934  16.142  0.2074 -0.2417 -0.0511
 1194BOLB   NC128633  14.514  21.664   5.991 -0.1348  0.0277  0.4329
 1194BOLB   PO128634  14.232  21.737   5.636 -0.2069 -0.3354 -0.0323
 1194BOLB   GL128635  14.654  21.814   5.509  0.0351 -0.1051  0.1251
 1194BOLB   GL228636  14.662  21.892   5.157  0.2274 -0.0729  0.3689
 1194BOLB   C1A28637  15.029  22.029   5.453  0.0168 -0.0425 -0.1018
 1194BOLB   C2A28638  15.396  22.195   5.105  0.2318  0.1871 -0.4242
 1194BOLB   C3A28639  15.394  22.160   4.760 -0.0795  0.1844 -0.6122
 1194BOLB   C4A28640  15.708  22.246   4.492 -0.2286 -0.1223  0.0412
 1194BOLB   C1B28641  15.127  21.767   4.995 -0.0023  0.1799 -0.0810
 1194BOLB   C2B28642  15.268  21.572   4.649  0.2019 -0.3615  0.0940
 1194BOLB   C3B28643  15.272  21.422   4.262  0.4029  0.2979  0.0309
 1194BOLB   C4B28644  15.373  21.086   3.872 -0.0939 -0.4351  0.2194
 1194BOLB   NC228645  17.089  22.718   2.242 -0.3438  0.1011 -0.0595
 1194BOLB   PO228646  16.886  23.015   2.485 -0.0646  0.0529  0.2943
 1194BOLB   GL328647  16.846  22.993   2.986 -0.0632  0.1129 -0.3060
 1194BOLB   GL428648  17.056  22.713   3.161 -0.0131 -0.1820  0.1891
 1194BOLB   C1C28649  16.612  23.013   3.317 -0.0110  0.0606 -0.0404
 1194BOLB   C2C28650  16.483  22.842   3.630 -0.0111 -0.0022  0.3807
 1194BOLB   C3C28651  16.273  22.566   3.923  0.0194  0.0151  0.1367
 1194BOLB   C4C28652  15.984  22.406   4.223 -0.0585 -0.1195 -0.1447
 1194BOLB   C1D28653  16.692  22.538   3.177 -0.2388 -0.5795  0.4270
 1194BOLB   C2D28654  16.509  22.330   3.551  0.1447  0.3121  0.3369
 1194BOLB   C3D28655  16.303  21.991   3.798 -0.0171  0.1346  0.0102
 1194BOLB   C4D28656  16.052  21.602   4.008 -0.0335 -0.3277 -0.0367
 1195BOLB   NC128657  13.212  24.833  12.729  0.3244 -0.1119  0.1343
 1195BOLB   PO128658  13.627  24.900  12.633 -0.0555 -0.1551 -0.0261
 1195BOLB   GL128659  13.996  25.082  12.803  0.1028 -0.3148  0.0668
 1195BOLB   GL228660  13.978  25.223  13.059  0.0642  0.0106 -0.3885
 1195BOLB   C1A28661  14.359  25.400  12.794  0.3827 -0.1057 -0.1472
 1195BOLB   C2A28662  14.559  25.834  12.851  0.1073  0.1460  0.1610
 1195BOLB   C3A28663  14.888  25.921  12.798  0.2357 -0.2907 -0.2374
 1195BOLB   C4A28664  15.168  26.154  12.829  0.0699 -0.0282  0.1668
 1195BOLB   C1B28665  14.197  25.511  13.374  0.1979 -0.1751  0.1067
 1195BOLB   C2B28666  14.477  25.956  13.454 -0.4385  0.1028 -0.0052
 1195BOLB   C3B28667  14.903  26.185  13.652 -0.1139  0.0100  0.0954
 1195BOLB   C4B28668  15.225  26.490  13.725 -0.1908 -0.2027 -0.0994
 1195BOLB   NC228669  17.166  26.501  12.261 -0.0816 -0.3432 -0.0607
 1195BOLB   PO228670  17.045  26.605  11.874  0.1470 -0.1684  0.0111
 1195BOLB   GL328671  16.559  26.639  11.918 -0.0728 -0.0813  0.2844
 1195BOLB   GL428672  16.381  26.527  12.217 -0.0183 -0.1093  0.0757
 1195BOLB   C1C28673  16.123  26.805  11.763 -0.2555 -0.0669 -0.0989
 1195BOLB   C2C28674  15.938  26.840  12.143  0.0520  0.1742 -0.3541
 1195BOLB   C3C28675  15.622  26.584  12.334  0.1288 -0.2259  0.0194
 1195BOLB   C4C28676  15.389  26.482  12.672  0.2223  0.1160 -0.1956
 1195BOLB   C1D28677  16.142  26.306  12.031  0.1588  0.0845  0.4267
 1195BOLB   C2D28678  15.675  26.190  12.020 -0.1176 -0.1418  0.1373
 1195BOLB   C3D28679  15.279  26.223  12.014  0.0309 -0.2985  0.2503
 1195BOLB   C4D28680  14.921  26.095  11.750  0.3233  0.0089 -0.0320
 1196BOLB   NC128681  10.517  27.289   9.649  0.0683  0.1580  0.0410
 1196BOLB   PO128682  10.752  27.677   9.424  0.0945 -0.1058  0.0823
 1196BOLB   GL128683  10.949  28.061   9.129 -0.0585 -0.2970  0.0734
 1196BOLB   GL228684  11.217  27.989   9.034  0.2318 -0.1427 -0.0736
 1196BOLB   C1A28685  10.940  28.514   9.205  0.0765  0.2380 -0.2099
 1196BOLB   C2A28686  11.062  28.967   9.044 -0.0531  0.1793 -0.4836
 1196BOLB   C3A28687  11.351  29.165   8.681 -0.0666 -0.1883  0.1269
 1196BOLB   C4A28688  11.599  29.544   8.565  0.0387  0.1764 -0.2182
 1196BOLB   C1B28689  11.566  28.243   9.153 -0.2121 -0.1626 -0.0823
 1196BOLB   C2B28690  11.872  28.516   9.070  0.0563 -0.0120 -0.1783
 1196BOLB   C3B28691  12.032  28.938   9.121  0.1382 -0.0921 -0.0200
 1196BOLB   C4B28692  12.143  28.965   9.562  0.0128 -0.0507 -0.1383
 1196BOLB   NC228693  12.990  30.777   6.903 -0.0069 -0.1105 -0.2373
 1196BOLB   PO228694  12.861  30.991   7.261  0.1172 -0.1494 -0.4131
 1196BOLB   GL328695  12.931  30.611   7.515  0.0455  0.2223 -0.0148
 1196BOLB   GL428696  12.790  30.740   7.868 -0.4391  0.2094  0.0646
 1196BOLB   C1C28697  12.827  30.268   7.905  0.2108  0.0159 -0.1140
 1196BOLB   C2C28698  12.554  30.041   8.228  0.1536  0.0845 -0.1961
 1196BOLB   C3C28699  12.209  29.979   8.489 -0.3722 -0.1225 -0.2774
 1196BOLB   C4C28700  11.931  29.709   8.535  0.0674  0.3444 -0.0625
 1196BOLB   C1D28701  12.399  30.511   7.908  0.1820 -0.0700  0.1329
 1196BOLB   C2D28702  12.270  30.503   8.251 -0.2248  0.1626 -0.2757
 1196BOLB   C3D28703  11.971  30.424   8.460 -0.0540  0.1149 -0.0321
 1196BOLB   C4D28704  11.646  30.177   8.457 -0.0730 -0.0566  0.2083
 1197BOLB   NC128705   5.316  26.718  16.567 -0.2511 -0.0438 -0.1657
 1197BOLB   PO128706   5.551  26.976  16.335  0.0171  0.0383 -0.0464
 1197BOLB   GL128707   5.548  27.355  16.592  0.1126 -0.0657 -0.0706
 1197BOLB   GL228708   5.491  27.686  16.417  0.2784  0.1606 -0.0285
 1197BOLB   C1A28709   5.278  27.533  16.848  0.4200  0.1344  0.0776
 1197BOLB   C2A28710   5.155  27.838  17.133 -0.1883 -0.3314  0.1335
 1197BOLB   C3A28711   5.170  28.218  17.453 -0.0649 -0.3457  0.0996
 1197BOLB   C4A28712   5.089  28.227  17.851 -0.0339  0.0624  0.1583
 1197BOLB   C1B28713   5.683  27.837  16.797  0.1592 -0.1331 -0.0050
 1197BOLB   C2B28714   5.871  27.635  17.092  0.2858  0.2273 -0.0555
 1197BOLB   C3B28715   6.197  27.700  17.450  0.1767 -0.1246 -0.2321
 1197BOLB   C4B28716   6.413  27.736  17.851 -0.1161  0.0970 -0.0507
 1197BOLB   NC228717   4.290  29.844  18.942 -0.0594  0.0241  0.1637
 1197BOLB   PO228718   3.940  29.623  18.825 -0.2218  0.0490  0.0799
 1197BOLB   GL328719   4.388  29.428  18.703 -0.0450  0.0941 -0.1850
 1197BOLB   GL428720   4.491  29.701  18.465  0.0603 -0.0014 -0.0624
 1197BOLB   C1C28721   4.673  29.055  18.704 -0.0246 -0.0438  0.0786
 1197BOLB   C2C28722   4.925  28.771  18.720  0.0767 -0.3801  0.1839
 1197BOLB   C3C28723   4.896  28.635  18.333 -0.1806 -0.0534 -0.0356
 1197BOLB   C4C28724   4.877  28.435  18.063  0.0368  0.1405 -0.0995
 1197BOLB   C1D28725   4.518  29.498  18.066 -0.1398 -0.3892  0.0349
 1197BOLB   C2D28726   4.698  29.276  17.760  0.3545  0.0357  0.3551
 1197BOLB   C3D28727   4.540  29.020  17.408 -0.2557 -0.5065  0.0036
 1197BOLB   C4D28728   4.490  29.079  16.913  0.0278 -0.1534  0.0703
 1198BOLB   NC128729  11.890  22.790  16.436 -0.2396 -0.1002  0.0748
 1198BOLB   PO128730  12.022  23.189  16.126 -0.0439  0.3139 -0.1579
 1198BOLB   GL128731  12.235  23.199  16.412  0.0732 -0.0685 -0.0456
 1198BOLB   GL228732  12.330  23.466  16.567  0.2942 -0.1263 -0.0383
 1198BOLB   C1A28733  12.299  23.065  16.885  0.0549  0.0936  0.0213
 1198BOLB   C2A28734  12.638  22.979  17.215  0.5691 -0.0480 -0.0620
 1198BOLB   C3A28735  12.875  22.963  17.657 -0.0550  0.1794  0.0111
 1198BOLB   C4A28736  13.234  22.914  17.803 -0.0342  0.0046 -0.2473
 1198BOLB   C1B28737  12.734  23.228  16.702 -0.0038  0.0646  0.1414
 1198BOLB   C2B28738  13.144  23.293  16.675 -0.1141  0.0878  0.2025
 1198BOLB   C3B28739  13.435  23.475  16.991 -0.2116  0.0905 -0.2370
 1198BOLB   C4B28740  13.862  23.554  17.176  0.1691  0.0834 -0.1568
 1198BOLB   NC228741  15.272  23.903  19.723  0.1753  0.3628  0.1776
 1198BOLB   PO228742  15.033  23.627  19.615  0.0315  0.2533 -0.0389
 1198BOLB   GL328743  14.868  23.358  19.193  0.1252 -0.1541 -0.1768
 1198BOLB   GL428744  14.680  23.136  19.297 -0.4847 -0.1623 -0.3663
 1198BOLB   C1C28745  14.341  23.430  19.055 -0.2968  0.0419 -0.0857
 1198BOLB   C2C28746  14.091  23.314  18.734 -0.2370 -0.0636  0.2215
 1198BOLB   C3C28747  13.849  23.067  18.369 -0.1411  0.0491 -0.2335
 1198BOLB   C4C28748  13.578  23.041  17.999 -0.2340  0.1203 -0.0172
 1198BOLB   C1D28749  14.965  22.796  19.137 -0.0386  0.0131  0.0034
 1198BOLB   C2D28750  14.968  22.377  19.004 -0.0677  0.0335  0.3839
 1198BOLB   C3D28751  14.857  22.113  18.719  0.1869  0.1311  0.1676
 1198BOLB   C4D28752  14.743  22.181  18.341  0.2084 -0.1195 -0.1289
 1199BOLB   NC128753   7.854  20.147  18.496  0.1417 -0.0365 -0.1096
 1199BOLB   PO128754   7.886  20.586  18.593  0.1548 -0.0711  0.5230
 1199BOLB   GL128755   8.049  20.694  18.929  0.0647 -0.1471 -0.0616
 1199BOLB   GL228756   8.414  20.986  19.030  0.1513 -0.2786  0.1261
 1199BOLB   C1A28757   7.934  20.811  19.300 -0.0265  0.3718  0.2026
 1199BOLB   C2A28758   8.028  20.851  19.809 -0.1547  0.1172  0.1263
 1199BOLB   C3A28759   7.931  20.580  20.253 -0.3639 -0.0812 -0.0642
 1199BOLB   C4A28760   7.796  20.579  20.682  0.1561  0.0614 -0.0540
 1199BOLB   C1B28761   8.382  20.730  19.393 -0.2111  0.0666  0.1487
 1199BOLB   C2B28762   8.583  20.759  19.791  0.0813 -0.0370  0.1553
 1199BOLB   C3B28763   8.788  20.698  20.136 -0.2699  0.2579 -0.0254
 1199BOLB   C4B28764   8.858  20.570  20.433  0.2832 -0.0627 -0.0568
 1199BOLB   NC228765   9.160  19.340  22.195  0.5714  0.1412 -0.1443
 1199BOLB   PO228766   8.784  19.669  22.343 -0.0608  0.3355 -0.0599
 1199BOLB   GL328767   8.595  19.471  22.134 -0.3403 -0.2031 -0.1158
 1199BOLB   GL428768   8.739  19.209  21.912  0.1174  0.0274  0.2589
 1199BOLB   C1C28769   8.370  19.485  21.587 -0.2282  0.1125 -0.0693
 1199BOLB   C2C28770   8.215  19.735  21.257  0.0842 -0.2541  0.1106
 1199BOLB   C3C28771   7.860  20.033  21.198  0.0710 -0.0821  0.3418
 1199BOLB   C4C28772   7.808  20.323  20.976  0.1563  0.0900 -0.0943
 1199BOLB   C1D28773   8.603  19.119  21.463  0.0134 -0.0140  0.2062
 1199BOLB   C2D28774   8.514  19.120  21.034 -0.0306 -0.1205 -0.1921
 1199BOLB   C3D28775   8.568  19.238  20.600  0.2670  0.0451  0.0775
 1199BOLB   C4D28776   8.433  19.561  20.291  0.0047 -0.3057 -0.1386
 1200BOLB   NC128777  12.343  23.301   4.573  0.0564  0.1533 -0.1809
 1200BOLB   PO128778  12.667  23.061   4.505  0.3933 -0.0104 -0.0863
 1200BOLB   GL128779  12.726  23.186   4.077 -0.0873  0.1113  0.0727
 1200BOLB   GL228780  12.344  23.227   4.097 -0.1730  0.3185 -0.0503
 1200BOLB   C1A28781  12.853  23.306   3.688  0.0006  0.0732 -0.1878
 1200BOLB   C2A28782  13.178  23.391   3.438 -0.1957 -0.1599  0.0739
 1200BOLB   C3A28783  13.442  23.589   3.211  0.0947 -0.0119 -0.1863
 1200BOLB   C4A28784  13.507  23.924   2.832  0.0456 -0.1581 -0.0848
 1200BOLB   C1B28785  12.288  23.297   3.649 -0.3014  0.1443  0.3988
 1200BOLB   C2B28786  12.312  23.112   3.203  0.0659  0.0817 -0.0515
 1200BOLB   C3B28787  12.552  22.703   3.021 -0.0851 -0.0940  0.0018
 1200BOLB   C4B28788  12.746  22.666   2.699 -0.2086 -0.6598 -0.0557
 1200BOLB   NC228789  13.928  25.728   1.585 -0.3729 -0.0473  0.0629
 1200BOLB   PO228790  14.194  25.456   1.524  0.0297 -0.2106  0.0944
 1200BOLB   GL328791  13.925  25.017   1.392 -0.1771 -0.3203  0.1029
 1200BOLB   GL428792  13.701  25.183   1.558 -0.1450 -0.1791 -0.0900
 1200BOLB   C1C28793  13.909  24.616   1.671  0.0647  0.2339  0.1919
 1200BOLB   C2C28794  13.847  24.273   1.982 -0.1443  0.2570  0.0363
 1200BOLB   C3C28795  14.003  24.181   2.374  0.2705  0.0534 -0.2250
 1200BOLB   C4C28796  13.929  24.143   2.802  0.1576  0.3434 -0.2534
 1200BOLB   C1D28797  13.463  24.995   2.006  0.2387  0.0197  0.0346
 1200BOLB   C2D28798  13.474  24.675   2.234  0.0217 -0.1696 -0.2418
 1200BOLB   C3D28799  13.583  24.397   2.484 -0.1384 -0.0531  0.0035
 1200BOLB   C4D28800  13.463  24.415   2.882  0.1732  0.3441 -0.4467
 1201BOLB   NC128801   0.251  23.380   6.119  0.1952  0.0022  0.1101
 1201BOLB   PO128802   0.212  23.802   6.074 -0.1254  0.1496  0.1018
 1201BOLB   GL128803  -0.003  24.111   5.938 -0.0589  0.1267  0.1420
 1201BOLB   GL228804   0.147  24.394   5.912 -0.0993 -0.0303 -0.1410
 1201BOLB   C1A28805  -0.396  24.317   5.794 -0.0636 -0.0511 -0.2054
 1201BOLB   C2A28806  -0.717  24.523   5.560  0.0483  0.0861  0.0613
 1201BOLB   C3A28807  -0.946  24.630   5.294 -0.2314  0.0165 -0.0877
 1201BOLB   C4A28808  -0.933  24.660   4.862  0.0458 -0.0082 -0.0161
 1201BOLB   C1B28809  -0.008  24.619   5.664  0.3697 -0.1066  0.0905
 1201BOLB   C2B28810  -0.286  24.700   5.327  0.0387 -0.1573  0.0846
 1201BOLB   C3B28811  -0.490  24.439   5.001 -0.0676 -0.0112 -0.2299
 1201BOLB   C4B28812  -0.487  24.042   5.017  0.0533  0.0455 -0.1290
 1201BOLB   NC228813  -2.263  24.842   2.540 -0.1562 -0.3002 -0.3266
 1201BOLB   PO228814  -1.960  25.241   2.717  0.0480  0.1859  0.0160
 1201BOLB   GL328815  -1.628  25.307   3.040  0.0295 -0.1998 -0.0009
 1201BOLB   GL428816  -1.269  25.455   3.061 -0.1301 -0.1177 -0.1613
 1201BOLB   C1C28817  -1.549  25.088   3.409  0.2788 -0.0017  0.0866
 1201BOLB   C2C28818  -1.512  24.823   3.754 -0.1838  0.2324 -0.0519
 1201BOLB   C3C28819  -1.279  24.526   4.043  0.2510  0.2728  0.0103
 1201BOLB   C4C28820  -0.992  24.645   4.412 -0.0639  0.2517  0.3204
 1201BOLB   C1D28821  -1.100  25.066   3.223 -0.0048  0.2497  0.1590
 1201BOLB   C2D28822  -1.060  24.990   3.615  0.2437 -0.1667  0.4103
 1201BOLB   C3D28823  -0.868  24.741   3.872 -0.0366 -0.2415  0.2984
 1201BOLB   C4D28824  -0.482  24.614   3.877 -0.2185  0.0156 -0.0788
 1202BOLB   NC128825  10.481  26.130   6.091  0.0956 -0.1748  0.1509
 1202BOLB   PO128826  10.469  26.333   5.646  0.1737 -0.2607  0.0751
 1202BOLB   GL128827  10.606  26.590   5.306 -0.2899 -0.0942  0.1263
 1202BOLB   GL228828  10.709  26.892   5.332 -0.0929  0.1845  0.0106
 1202BOLB   C1A28829  10.829  26.671   4.857  0.2392  0.2358  0.1169
 1202BOLB   C2A28830  11.117  26.690   4.475 -0.2036  0.1238 -0.1041
 1202BOLB   C3A28831  11.280  26.966   4.234 -0.0605 -0.1279  0.2894
 1202BOLB   C4A28832  11.437  27.295   3.995  0.0885 -0.1516 -0.3506
 1202BOLB   C1B28833  10.719  27.190   5.066 -0.3429  0.3011  0.0156
 1202BOLB   C2B28834  10.909  27.569   5.016 -0.1320  0.2329 -0.2927
 1202BOLB   C3B28835  11.371  27.583   4.899 -0.1049  0.1916 -0.1348
 1202BOLB   C4B28836  11.684  27.801   4.651 -0.0813  0.1224 -0.1453
 1202BOLB   NC228837  12.695  28.571   3.135  0.0088 -0.0702 -0.2245
 1202BOLB   PO228838  12.376  28.917   3.154 -0.0453 -0.0610  0.1620
 1202BOLB   GL328839  12.128  28.727   3.453  0.1311 -0.1536  0.1785
 1202BOLB   GL428840  12.456  28.498   3.604 -0.3607  0.0873  0.1876
 1202BOLB   C1C28841  11.937  28.702   3.827 -0.0223  0.0922 -0.1150
 1202BOLB   C2C28842  11.702  28.418   4.102  0.1262  0.1580 -0.2532
 1202BOLB   C3C28843  11.787  27.988   4.228 -0.1976  0.1199  0.1935
 1202BOLB   C4C28844  11.526  27.635   4.237  0.3021 -0.0177  0.1701
 1202BOLB   C1D28845  12.622  28.237   3.865  0.1556 -0.0210 -0.0522
 1202BOLB   C2D28846  12.637  28.215   4.327  0.0405 -0.0545  0.2374
 1202BOLB   C3D28847  12.672  28.204   4.776 -0.0826  0.1194 -0.1820
 1202BOLB   C4D28848  12.648  27.880   4.959  0.3327 -0.2197  0.2126
 1203BOLB   NC128849   4.387  24.460  17.565 -0.0390  0.1149 -0.0479
 1203BOLB   PO128850   4.537  24.896  17.485 -0.3788  0.3022 -0.2515
 1203BOLB   GL128851   4.286  24.877  17.865  0.1775 -0.2245 -0.0272
 1203BOLB   GL228852   4.359  24.561  18.127 -0.1705  0.0084  0.1295
 1203BOLB   C1A28853   4.251  25.018  18.304  0.4493 -0.1383  0.0986
 1203BOLB   C2A28854   4.148  25.012  18.777  0.0989  0.0532 -0.0802
 1203BOLB   C3A28855   3.993  25.191  19.113 -0.3338  0.2771  0.3313
 1203BOLB   C4A28856   3.894  25.372  19.559 -0.3019  0.1581  0.0202
 1203BOLB   C1B28857   4.407  24.525  18.452  0.1406  0.0997 -0.1486
 1203BOLB   C2B28858   4.201  24.549  18.875 -0.2845  0.3493 -0.0571
 1203BOLB   C3B28859   3.994  24.664  19.209 -0.0202 -0.3609 -0.0585
 1203BOLB   C4B28860   3.643  24.504  19.208 -0.1971 -0.0780 -0.2713
 1203BOLB   NC228861   3.736  27.036  20.815  0.0070  0.4062 -0.1204
 1203BOLB   PO228862   3.530  26.664  21.061 -0.2427  0.0954 -0.0012
 1203BOLB   GL328863   3.822  26.366  21.027 -0.4137 -0.1197 -0.0390
 1203BOLB   GL428864   3.919  26.417  20.755  0.2057 -0.0115  0.2752
 1203BOLB   C1C28865   4.068  26.000  21.101 -0.0986  0.0448  0.0143
 1203BOLB   C2C28866   3.909  25.605  20.826 -0.0158 -0.2607 -0.0622
 1203BOLB   C3C28867   3.914  25.376  20.431  0.1404  0.0925  0.0533
 1203BOLB   C4C28868   3.854  25.446  20.032 -0.0203 -0.5095  0.1685
 1203BOLB   C1D28869   4.415  26.471  20.755  0.0131  0.0922  0.0455
 1203BOLB   C2D28870   4.727  26.159  20.540  0.1879 -0.3394 -0.1700
 1203BOLB   C3D28871   5.134  26.196  20.422 -0.1464  0.2527 -0.0306
 1203BOLB   C4D28872   5.544  26.260  20.562 -0.1875 -0.1947 -0.1718
 1204BOLB   NC128873   8.882  27.067  14.845 -0.1683  0.0263  0.1807
 1204BOLB   PO128874   8.673  27.398  15.038  0.1557  0.2779  0.0455
 1204BOLB   GL128875   8.665  27.805  15.048 -0.2054  0.2626 -0.1248
 1204BOLB   GL228876   8.569  28.043  14.864  0.2663 -0.1795  0.0778
 1204BOLB   C1A28877   8.749  28.238  15.289  0.0831 -0.0439  0.1561
 1204BOLB   C2A28878   8.616  28.689  15.289 -0.1193 -0.0579  0.2183
 1204BOLB   C3A28879   8.297  29.001  15.355  0.0290  0.0047 -0.0348
 1204BOLB   C4A28880   8.075  29.322  15.471  0.0838  0.0156  0.2226
 1204BOLB   C1B28881   8.352  28.391  15.019 -0.0346 -0.5631  0.0611
 1204BOLB   C2B28882   8.131  28.655  14.866  0.0085  0.2735  0.2541
 1204BOLB   C3B28883   7.829  29.075  14.909  0.1535 -0.0236  0.1924
 1204BOLB   C4B28884   7.828  29.484  14.640  0.0649  0.2121  0.1328
 1204BOLB   NC228885   8.650  31.735  16.621  0.1349  0.1743 -0.0292
 1204BOLB   PO228886   8.610  31.599  16.173 -0.0867  0.2067 -0.1344
 1204BOLB   GL328887   8.392  31.257  16.079  0.0186  0.1001  0.1219
 1204BOLB   GL428888   8.564  31.107  15.868 -0.0764  0.0487  0.0747
 1204BOLB   C1C28889   8.435  30.716  16.155  0.1549  0.0479 -0.1067
 1204BOLB   C2C28890   8.231  30.359  16.225  0.1670  0.2307 -0.3104
 1204BOLB   C3C28891   8.076  30.047  16.046  0.0775  0.1541 -0.3305
 1204BOLB   C4C28892   7.966  29.680  15.758 -0.1464 -0.0694  0.4297
 1204BOLB   C1D28893   8.683  30.681  15.580  0.0444  0.2353 -0.0691
 1204BOLB   C2D28894   8.708  30.336  15.297 -0.2867  0.0116  0.2047
 1204BOLB   C3D28895   8.951  30.052  15.401 -0.0341  0.0692  0.1608
 1204BOLB   C4D28896   9.085  29.683  15.220 -0.2037  0.0851  0.0867
 1205BOLB   NC128897   7.060  13.903   5.931  0.0526 -0.1352  0.2805
 1205BOLB   PO128898   6.725  13.658   5.926 -0.1249  0.1597 -0.2329
 1205BOLB   GL128899   7.025  13.480   5.687  0.2104 -0.3337 -0.1126
 1205BOLB   GL228900   6.703  13.166   5.699 -0.0398  0.2581 -0.1276
 1205BOLB   C1A28901   7.035  13.189   5.338  0.1268 -0.3411 -0.1681
 1205BOLB   C2A28902   7.014  12.866   5.033 -0.4375 -0.4527  0.5657
 1205BOLB   C3A28903   7.213  12.542   4.757 -0.1685  0.0771 -0.0119
 1205BOLB   C4A28904   6.943  12.210   4.603 -0.4424  0.0324  0.3066
 1205BOLB   C1B28905   6.536  12.950   5.368 -0.0497  0.0000  0.2581
 1205BOLB   C2B28906   6.205  12.634   5.398 -0.1913  0.0907 -0.0669
 1205BOLB   C3B28907   6.202  12.324   5.739 -0.3924  0.1793  0.0653
 1205BOLB   C4B28908   6.636  12.282   5.995 -0.1026 -0.1226  0.0495
 1205BOLB   NC228909   6.253  10.375   4.179 -0.1928  0.0632 -0.0100
 1205BOLB   PO228910   6.581  10.478   4.052 -0.2156 -0.0460 -0.3004
 1205BOLB   GL328911   6.439  10.840   4.043 -0.0907  0.1232  0.0771
 1205BOLB   GL428912   6.367  10.858   4.340 -0.1687  0.1655  0.0575
 1205BOLB   C1C28913   6.328  11.209   3.938  0.2445 -0.1012  0.1895
 1205BOLB   C2C28914   6.394  11.454   4.244  0.2592  0.3261  0.3378
 1205BOLB   C3C28915   6.614  11.557   4.522  0.2414 -0.0618 -0.0526
 1205BOLB   C4C28916   6.807  11.841   4.660  0.4277  0.0382  0.3141
 1205BOLB   C1D28917   6.778  11.135   4.255 -0.2106 -0.2236  0.0657
 1205BOLB   C2D28918   7.072  11.498   4.312 -0.0885 -0.1390 -0.0034
 1205BOLB   C3D28919   7.270  11.929   4.318 -0.2317  0.0841 -0.1926
 1205BOLB   C4D28920   7.417  12.188   4.379  0.0894 -0.3851 -0.0558
 1206BOLB   NC128921   9.200  28.253   7.431  0.0240  0.1782 -0.1107
 1206BOLB   PO128922   9.031  27.979   7.057 -0.1023 -0.2214  0.1835
 1206BOLB   GL128923   9.111  28.387   6.959  0.1724 -0.0768 -0.0656
 1206BOLB   GL228924   8.847  28.662   6.772 -0.2720 -0.1154  0.0857
 1206BOLB   C1A28925   9.363  28.703   6.783  0.1748 -0.3343  0.2225
 1206BOLB   C2A28926   9.628  28.795   6.632  0.0803 -0.2027  0.0187
 1206BOLB   C3A28927   9.672  29.063   6.359 -0.4485  0.1367 -0.1730
 1206BOLB   C4A28928   9.600  29.354   6.014  0.0121  0.0056 -0.3222
 1206BOLB   C1B28929   8.980  28.925   6.525  0.0191  0.0915 -0.1641
 1206BOLB   C2B28930   9.151  29.261   6.560 -0.3457  0.1693 -0.2976
 1206BOLB   C3B28931   9.352  29.594   6.368  0.1364  0.0914  0.1865
 1206BOLB   C4B28932   9.233  29.943   6.394 -0.0674  0.0078  0.3036
 1206BOLB   NC228933  10.081  31.619   4.362  0.0353 -0.0631  0.1011
 1206BOLB   PO228934   9.802  31.283   4.488 -0.1725  0.1877 -0.2141
 1206BOLB   GL328935   9.590  30.893   4.736  0.1425 -0.3005 -0.0987
 1206BOLB   GL428936   9.408  30.811   4.431 -0.0741 -0.1555  0.0278
 1206BOLB   C1C28937   9.688  30.588   5.023  0.2819 -0.1149  0.3214
 1206BOLB   C2C28938   9.445  30.241   5.355 -0.0475 -0.0275  0.3129
 1206BOLB   C3C28939   9.525  29.875   5.584  0.1380  0.3434 -0.0185
 1206BOLB   C4C28940   9.425  29.600   5.776  0.1956 -0.1800  0.0028
 1206BOLB   C1D28941   9.412  30.323   4.368 -0.1355 -0.0202  0.0047
 1206BOLB   C2D28942   9.614  29.984   4.246  0.1256  0.2868  0.2370
 1206BOLB   C3D28943   9.372  29.581   4.221  0.5414 -0.1739 -0.3589
 1206BOLB   C4D28944   9.313  29.148   4.227  0.0057 -0.0215 -0.0783
 1207BOLB   NC128945   8.528  25.426   4.437  0.0077  0.3232 -0.0425
 1207BOLB   PO128946   8.278  25.009   4.355 -0.0823 -0.0157 -0.0235
 1207BOLB   GL128947   8.461  25.104   3.905 -0.0887  0.1894  0.2600
 1207BOLB   GL228948   8.701  24.888   3.703 -0.1094  0.2800  0.2748
 1207BOLB   C1A28949   8.785  25.412   3.608 -0.0453 -0.2769  0.1460
 1207BOLB   C2A28950   8.956  25.558   3.177 -0.4753 -0.3049 -0.0336
 1207BOLB   C3A28951   9.199  25.772   2.772 -0.0908 -0.0835  0.2839
 1207BOLB   C4A28952   9.511  26.024   2.680  0.0120  0.0447  0.1405
 1207BOLB   C1B28953   9.045  25.080   3.335 -0.1984  0.3780 -0.1085
 1207BOLB   C2B28954   9.170  25.263   2.822  0.0150  0.2299  0.1002
 1207BOLB   C3B28955   9.241  25.330   2.420  0.0795 -0.1365 -0.1683
 1207BOLB   C4B28956   8.902  25.715   2.242 -0.1486 -0.3080  0.1674
 1207BOLB   NC228957  10.194  27.641   0.401 -0.0782 -0.0180  0.4027
 1207BOLB   PO228958  10.070  27.324   0.793  0.2314 -0.1297  0.1087
 1207BOLB   GL328959  10.205  27.126   1.137  0.0428 -0.1442 -0.0876
 1207BOLB   GL428960  10.469  27.168   1.014 -0.3092  0.3518 -0.2694
 1207BOLB   C1C28961  10.121  26.939   1.532  0.0098 -0.0714 -0.1634
 1207BOLB   C2C28962  10.033  26.774   1.938 -0.0619  0.2552 -0.1727
 1207BOLB   C3C28963  10.005  26.478   2.187  0.2965 -0.0140  0.2944
 1207BOLB   C4C28964   9.678  26.368   2.516  0.1349  0.0371  0.0900
 1207BOLB   C1D28965  10.593  26.901   1.226 -0.3190  0.0597 -0.1955
 1207BOLB   C2D28966  10.942  26.836   1.484 -0.1860 -0.3290 -0.0650
 1207BOLB   C3D28967  11.006  26.799   1.884  0.2967 -0.1552  0.0946
 1207BOLB   C4D28968  11.133  26.599   2.264  0.1560  0.1704  0.2876
 1208BOLB   NC128969   9.708  18.557  17.607  0.0605 -0.3469 -0.0824
 1208BOLB   PO128970   9.797  18.926  17.892 -0.1442  0.2259  0.2611
 1208BOLB   GL128971   9.693  18.597  18.181 -0.2658 -0.0497  0.3076
 1208BOLB   GL228972   9.703  18.266  18.035 -0.1143  0.2907 -0.1166
 1208BOLB   C1A28973   9.577  18.247  18.567  0.0708  0.1554 -0.3110
 1208BOLB   C2A28974   9.326  18.083  18.837 -0.0493 -0.0326 -0.1638
 1208BOLB   C3A28975   9.417  17.952  19.234 -0.3536 -0.2580 -0.4452
 1208BOLB   C4A28976   9.545  18.064  19.665  0.1375  0.1641 -0.2870
 1208BOLB   C1B28977   9.905  17.890  18.272 -0.0187  0.0315 -0.0259
 1208BOLB   C2B28978   9.933  17.553  18.404  0.1522 -0.1510  0.2502
 1208BOLB   C3B28979   9.683  17.258  18.560  0.1185  0.0485  0.0871
 1208BOLB   C4B28980   9.897  16.892  18.727 -0.0480 -0.0136 -0.2699
 1208BOLB   NC228981   9.900  17.566  21.582 -0.5111 -0.0128  0.2587
 1208BOLB   PO228982   9.744  17.950  21.619  0.0253 -0.1687  0.0335
 1208BOLB   GL328983   9.520  18.160  21.217 -0.1508  0.0711  0.5971
 1208BOLB   GL428984   9.207  18.352  21.297 -0.3168 -0.1912 -0.1445
 1208BOLB   C1C28985   9.688  18.418  20.920 -0.2873 -0.1235 -0.2444
 1208BOLB   C2C28986   9.867  18.209  20.561  0.0614 -0.3154  0.3461
 1208BOLB   C3C28987   9.933  18.022  20.202 -0.1274 -0.2561 -0.0949
 1208BOLB   C4C28988   9.969  18.169  19.852  0.3616 -0.0698  0.1224
 1208BOLB   C1D28989   9.146  18.544  20.886  0.1895  0.0083 -0.2017
 1208BOLB   C2D28990   9.421  18.543  20.526 -0.1987  0.0126  0.1199
 1208BOLB   C3D28991   9.536  18.942  20.261  0.0235  0.0380 -0.0691
 1208BOLB   C4D28992   9.281  19.384  20.048 -0.2818 -0.0958  0.0703
 1209BOLB   NC128993  12.257  16.586  12.427  0.1111 -0.1643  0.0855
 1209BOLB   PO128994  12.483  16.829  12.160  0.3636  0.0893  0.0536
 1209BOLB   GL128995  12.700  16.453  12.207 -0.1070 -0.1067 -0.0307
 1209BOLB   GL228996  12.515  16.194  12.287  0.2341  0.2460 -0.3353
 1209BOLB   C1A28997  13.015  16.118  12.198  0.3043 -0.1129 -0.0698
 1209BOLB   C2A28998  13.407  16.181  12.304 -0.1127 -0.0742  0.2268
 1209BOLB   C3A28999  13.760  15.994  12.531 -0.3310 -0.1800  0.2347
 1209BOLB   C4A29000  14.082  15.617  12.669 -0.2594  0.0837 -0.2957
 1209BOLB   C1B29001  12.625  15.771  12.354  0.0084  0.0938 -0.1872
 1209BOLB   C2B29002  12.802  15.437  12.504 -0.1318  0.1771  0.2514
 1209BOLB   C3B29003  13.128  15.199  12.771  0.4718 -0.0141  0.1821
 1209BOLB   C4B29004  13.190  14.880  13.144  0.0197 -0.3005  0.1761
 1209BOLB   NC229005  15.146  13.599  13.252  0.2255 -0.0783  0.1732
 1209BOLB   PO229006  14.660  13.361  13.190 -0.0029  0.1457 -0.1439
 1209BOLB   GL329007  14.718  13.828  13.145  0.2117 -0.0674  0.2824
 1209BOLB   GL429008  14.962  14.125  13.216 -0.1225 -0.5766  0.1842
 1209BOLB   C1C29009  14.492  14.149  13.091  0.0830 -0.1046 -0.1857
 1209BOLB   C2C29010  14.333  14.574  13.086 -0.0392 -0.3562 -0.1855
 1209BOLB   C3C29011  14.422  14.841  12.845 -0.0014 -0.0339  0.0845
 1209BOLB   C4C29012  14.215  15.256  12.827  0.1030  0.0425  0.0035
 1209BOLB   C1D29013  14.857  14.583  13.176 -0.2512 -0.0604 -0.2592
 1209BOLB   C2D29014  14.819  15.035  13.083  0.0349 -0.1955 -0.1655
 1209BOLB   C3D29015  14.683  15.478  12.796  0.0938  0.1863  0.3119
 1209BOLB   C4D29016  15.003  15.733  12.602  0.0431  0.2431  0.1123
 1210BOLB   NC129017   9.141  21.826  18.274 -0.1522 -0.0608  0.1973
 1210BOLB   PO129018   8.751  21.713  18.270 -0.0673 -0.1827 -0.0030
 1210BOLB   GL129019   8.702  21.542  18.614  0.1527 -0.3228  0.0790
 1210BOLB   GL229020   8.369  21.477  18.711  0.3777 -0.2908 -0.0030
 1210BOLB   C1A29021   8.796  21.291  19.017  0.0330 -0.1428 -0.0181
 1210BOLB   C2A29022   8.735  21.187  19.466 -0.1475  0.0039  0.2285
 1210BOLB   C3A29023   8.837  21.389  19.832  0.0997  0.2808  0.0082
 1210BOLB   C4A29024   9.146  21.587  20.175  0.2280  0.0204  0.1462
 1210BOLB   C1B29025   8.463  21.712  19.080 -0.1300 -0.0093  0.0037
 1210BOLB   C2B29026   8.499  21.692  19.475  0.0036 -0.1649 -0.1215
 1210BOLB   C3B29027   8.433  21.664  19.951  0.2709 -0.1439  0.3408
 1210BOLB   C4B29028   8.395  21.440  20.299 -0.3934 -0.1532  0.0406
 1210BOLB   NC229029   8.516  22.007  22.532 -0.1036  0.1345 -0.0486
 1210BOLB   PO229030   8.897  22.099  22.370  0.1992 -0.2631  0.1232
 1210BOLB   GL329031   8.937  22.098  22.011 -0.1843  0.1910  0.2403
 1210BOLB   GL429032   8.846  22.311  21.933  0.0103 -0.0853 -0.1018
 1210BOLB   C1C29033   8.692  21.995  21.548 -0.0029 -0.1167  0.1362
 1210BOLB   C2C29034   8.820  22.162  21.071 -0.1321  0.1444 -0.1054
 1210BOLB   C3C29035   8.995  22.258  20.661  0.2359 -0.1501 -0.0269
 1210BOLB   C4C29036   9.086  21.944  20.321 -0.3063 -0.3357 -0.1334
 1210BOLB   C1D29037   9.020  22.394  21.549  0.1602  0.3284  0.0924
 1210BOLB   C2D29038   9.346  22.348  21.197 -0.3934 -0.3478 -0.0813
 1210BOLB   C3D29039   9.441  22.408  20.733 -0.0954  0.1216 -0.2480
 1210BOLB   C4D29040   9.258  22.679  20.419 -0.1176  0.2260  0.0127
 1211BOLB   NC129041  11.488  26.377  13.150 -0.0274 -0.3099 -0.1600
 1211BOLB   PO129042  11.904  26.246  13.350 -0.1366 -0.0970  0.5834
 1211BOLB   GL129043  12.214  26.471  13.513  0.4645  0.0089 -0.2833
 1211BOLB   GL229044  12.541  26.581  13.408  0.2341  0.2132 -0.0036
 1211BOLB   C1A29045  12.256  26.854  13.797 -0.3950  0.2065 -0.0039
 1211BOLB   C2A29046  12.555  27.183  13.932  0.3222  0.2377  0.1069
 1211BOLB   C3A29047  12.840  27.532  13.971 -0.0367  0.2499  0.0665
 1211BOLB   C4A29048  13.059  27.787  14.266 -0.1157  0.0541  0.0479
 1211BOLB   C1B29049  12.746  26.768  13.759  0.0718  0.0676 -0.0149
 1211BOLB   C2B29050  13.149  26.993  13.938  0.2308 -0.0200 -0.2911
 1211BOLB   C3B29051  13.318  27.298  14.280 -0.1638 -0.2888 -0.0290
 1211BOLB   C4B29052  13.352  27.486  14.675 -0.1127 -0.0795 -0.0066
 1211BOLB   NC229053  14.490  28.505  16.340  0.2613 -0.0363 -0.0371
 1211BOLB   PO229054  14.428  28.650  15.980 -0.3412  0.1362  0.1239
 1211BOLB   GL329055  14.071  28.423  16.039 -0.0233 -0.0776 -0.1072
 1211BOLB   GL429056  13.613  28.431  16.217  0.1618  0.2465 -0.0090
 1211BOLB   C1C29057  13.779  28.330  15.789  0.0640 -0.0327 -0.0925
 1211BOLB   C2C29058  13.484  28.291  15.479 -0.0335  0.0564 -0.2191
 1211BOLB   C3C29059  13.394  28.204  15.080  0.3434 -0.0153 -0.1450
 1211BOLB   C4C29060  13.139  27.951  14.663  0.0904 -0.0212 -0.1654
 1211BOLB   C1D29061  13.210  28.477  16.090 -0.3611  0.0388 -0.0697
 1211BOLB   C2D29062  12.897  28.849  15.999 -0.1737 -0.1551  0.0874
 1211BOLB   C3D29063  12.402  29.101  16.006 -0.2805  0.6519 -0.2128
 1211BOLB   C4D29064  12.148  29.417  16.186  0.0493  0.1112  0.3210
 1212BOLB   NC129065   5.562  28.180  14.542  0.1439 -0.0933  0.0521
 1212BOLB   PO129066   5.890  28.206  14.265  0.1507  0.3551  0.3023
 1212BOLB   GL129067   5.885  28.581  14.573  0.0591 -0.0025 -0.0666
 1212BOLB   GL229068   5.568  28.650  14.705 -0.1729  0.2588  0.1501
 1212BOLB   C1A29069   6.220  28.814  14.915  0.3465 -0.1862  0.2020
 1212BOLB   C2A29070   6.224  29.209  15.197  0.0478  0.1679 -0.0488
 1212BOLB   C3A29071   6.418  29.509  15.472  0.0209  0.0271  0.2506
 1212BOLB   C4A29072   6.639  29.778  15.748  0.1090  0.0385  0.0174
 1212BOLB   C1B29073   5.404  29.100  14.669  0.0190  0.6448 -0.3478
 1212BOLB   C2B29074   5.346  29.470  14.841 -0.0568  0.0167 -0.0827
 1212BOLB   C3B29075   5.083  29.750  14.931 -0.0866  0.0388  0.1395
 1212BOLB   C4B29076   4.782  29.878  15.229  0.1364 -0.0555 -0.1038
 1212BOLB   NC229077   7.670  32.335  15.664 -0.0640  0.0982  0.0867
 1212BOLB   PO229078   7.506  31.961  15.945  0.3637  0.2213 -0.1575
 1212BOLB   GL329079   7.406  31.559  15.809 -0.1799 -0.4367  0.0995
 1212BOLB   GL429080   7.480  31.523  15.554 -0.1069 -0.2247 -0.1585
 1212BOLB   C1C29081   6.994  31.316  15.897 -0.1595  0.1706 -0.0916
 1212BOLB   C2C29082   6.927  30.888  15.900  0.1248 -0.0475  0.2183
 1212BOLB   C3C29083   6.975  30.544  15.963  0.1282  0.0587  0.1102
 1212BOLB   C4C29084   6.760  30.147  15.991 -0.0397  0.3643  0.0875
 1212BOLB   C1D29085   7.236  31.502  15.164  0.1793  0.1081 -0.3042
 1212BOLB   C2D29086   7.353  31.155  14.779  0.0928 -0.0983 -0.2925
 1212BOLB   C3D29087   7.480  30.872  14.318  0.2685  0.1722 -0.1645
 1212BOLB   C4D29088   7.356  30.772  13.897  0.2112 -0.0658 -0.1492
 1213BOLB   NC129089   4.002  19.334   2.359  0.2210 -0.1709  0.0019
 1213BOLB   PO129090   3.703  19.256   2.665  0.1268  0.4239 -0.1348
 1213BOLB   GL129091   3.459  19.163   2.333 -0.0258  0.3810 -0.2975
 1213BOLB   GL229092   3.564  19.315   2.073 -0.0062 -0.1393 -0.1530
 1213BOLB   C1A29093   3.172  18.897   1.971 -0.1458  0.1091 -0.5065
 1213BOLB   C2A29094   2.803  18.578   1.840 -0.3043 -0.1241  0.0627
 1213BOLB   C3A29095   2.530  18.530   1.557  0.1737  0.0304 -0.2264
 1213BOLB   C4A29096   2.413  18.195   1.343  0.0633 -0.1630 -0.2098
 1213BOLB   C1B29097   3.482  19.206   1.704 -0.1691 -0.3307 -0.1907
 1213BOLB   C2B29098   3.488  19.397   1.313 -0.0431  0.0912 -0.2251
 1213BOLB   C3B29099   3.388  19.631   0.895 -0.0936 -0.0222  0.0976
 1213BOLB   C4B29100   3.181  19.820   0.468 -0.0003  0.0325 -0.0318
 1213BOLB   NC229101   1.703  17.487  -0.777  0.1273  0.0186 -0.0181
 1213BOLB   PO229102   1.300  17.282  -0.673 -0.0689  0.0996  0.0364
 1213BOLB   GL329103   1.465  17.502  -0.258  0.3678 -0.1531 -0.0384
 1213BOLB   GL429104   1.261  17.570   0.019  0.1116  0.2297 -0.1391
 1213BOLB   C1C29105   1.831  17.489   0.044 -0.1049 -0.0792  0.1487
 1213BOLB   C2C29106   1.998  17.382   0.396  0.1959  0.2477  0.3126
 1213BOLB   C3C29107   2.106  17.537   0.893  0.3819 -0.1554  0.1134
 1213BOLB   C4C29108   2.276  17.756   1.292  0.1054 -0.2085 -0.0100
 1213BOLB   C1D29109   1.468  17.462   0.423 -0.0061 -0.1319  0.0631
 1213BOLB   C2D29110   1.602  17.577   0.888  0.0167  0.3753 -0.2606
 1213BOLB   C3D29111   1.633  17.687   1.333 -0.0920  0.0530  0.1786
 1213BOLB   C4D29112   1.928  17.951   1.592 -0.2642 -0.1610  0.2733
 1214BOLB   NC129113   3.055  20.962   3.787 -0.1325  0.3062  0.1358
 1214BOLB   PO129114   2.810  21.014   3.319 -0.1793  0.0152 -0.2925
 1214BOLB   GL129115   2.503  20.938   2.807 -0.1704 -0.0751  0.0923
 1214BOLB   GL229116   2.335  20.738   2.923  0.0876  0.1227 -0.1721
 1214BOLB   C1A29117   2.478  21.076   2.482  0.1500  0.1785 -0.1804
 1214BOLB   C2A29118   2.152  21.404   2.307 -0.0920  0.1299 -0.0196
 1214BOLB   C3A29119   2.030  21.835   2.376  0.1736  0.0312  0.3714
 1214BOLB   C4A29120   1.772  22.134   2.276  0.0980 -0.0220  0.2721
 1214BOLB   C1B29121   2.006  20.939   2.551  0.0563 -0.1253  0.1405
 1214BOLB   C2B29122   1.755  20.969   2.216  0.1394  0.2416 -0.0626
 1214BOLB   C3B29123   1.544  21.132   1.930  0.0298  0.2298 -0.0584
 1214BOLB   C4B29124   1.631  21.467   1.628  0.0015  0.3319  0.1489
 1214BOLB   NC229125   0.863  23.842   0.003  0.0434 -0.1122 -0.0371
 1214BOLB   PO229126   0.537  23.734   0.347 -0.1887  0.2791 -0.4808
 1214BOLB   GL329127   0.564  23.401   0.641  0.0762 -0.1424 -0.0577
 1214BOLB   GL429128   0.208  23.544   0.736  0.1720 -0.0043  0.0854
 1214BOLB   C1C29129   0.631  23.207   1.161 -0.0493  0.2619 -0.0596
 1214BOLB   C2C29130   0.878  22.985   1.592  0.1234 -0.0400  0.0210
 1214BOLB   C3C29131   1.194  22.655   1.764 -0.2135 -0.1534 -0.0988
 1214BOLB   C4C29132   1.623  22.375   1.915  0.0782 -0.0284 -0.1569
 1214BOLB   C1D29133   0.080  23.412   1.166 -0.0481 -0.1455 -0.0793
 1214BOLB   C2D29134  -0.283  23.502   1.329 -0.2100  0.0039  0.2476
 1214BOLB   C3D29135  -0.652  23.551   1.488  0.1037 -0.1227  0.2372
 1214BOLB   C4D29136  -0.796  23.622   1.893  0.1136  0.2537 -0.0052
 1215BOLB   NC129137   1.128  21.676   4.511 -0.1501  0.0212  0.2114
 1215BOLB   PO129138   0.746  21.570   4.784  0.1076 -0.1931  0.4717
 1215BOLB   GL129139   0.522  21.539   4.388 -0.1977 -0.0664  0.0123
 1215BOLB   GL229140   0.806  21.643   4.130 -0.3664  0.1191  0.0509
 1215BOLB   C1A29141   0.251  21.671   4.087  0.2451 -0.3824 -0.1402
 1215BOLB   C2A29142   0.267  21.787   3.582 -0.0728  0.2526 -0.1640
 1215BOLB   C3A29143   0.325  21.965   3.157  0.2506  0.2232 -0.3426
 1215BOLB   C4A29144   0.348  22.288   2.865  0.3479 -0.0932 -0.1390
 1215BOLB   C1B29145   0.688  21.397   3.804  0.0212 -0.1412  0.0806
 1215BOLB   C2B29146   0.493  21.327   3.345 -0.0659  0.2546  0.0249
 1215BOLB   C3B29147   0.285  21.419   3.038  0.0968 -0.0430  0.1745
 1215BOLB   C4B29148   0.097  21.402   2.672  0.1236 -0.2538  0.1682
 1215BOLB   NC229149  -0.491  23.269   0.268  0.0138  0.0508  0.0361
 1215BOLB   PO229150  -0.187  23.005   0.622 -0.1044  0.0794  0.1646
 1215BOLB   GL329151  -0.196  22.738   1.018 -0.0791 -0.0821  0.0778
 1215BOLB   GL429152  -0.281  22.979   1.171  0.1743 -0.2580 -0.2147
 1215BOLB   C1C29153  -0.043  22.523   1.379 -0.0372 -0.1047  0.1009
 1215BOLB   C2C29154   0.064  22.528   1.861  0.1890  0.0455  0.2148
 1215BOLB   C3C29155  -0.013  22.454   2.263  0.2335  0.1294  0.1799
 1215BOLB   C4C29156   0.295  22.452   2.587  0.1110  0.0258  0.2001
 1215BOLB   C1D29157  -0.309  22.991   1.619 -0.0583 -0.0441  0.0728
 1215BOLB   C2D29158  -0.436  22.651   2.130  0.0964  0.1639  0.0033
 1215BOLB   C3D29159  -0.880  22.444   2.358 -0.2809 -0.0628  0.0615
 1215BOLB   C4D29160  -1.329  22.314   2.322  0.1474 -0.1544  0.0816
 1216BOLB   NC129161  19.060  22.804   6.346 -0.1172 -0.0611  0.1075
 1216BOLB   PO129162  19.132  22.841   6.022  0.0080  0.1866  0.1328
 1216BOLB   GL129163  18.716  22.604   6.020 -0.0732 -0.1788 -0.0789
 1216BOLB   GL229164  18.562  22.642   6.281 -0.2554 -0.1001 -0.1239
 1216BOLB   C1A29165  18.446  22.375   5.799  0.0259  0.2980  0.0107
 1216BOLB   C2A29166  18.053  22.306   5.652  0.1971  0.1074  0.1581
 1216BOLB   C3A29167  17.767  21.981   5.805 -0.0071 -0.1392 -0.3755
 1216BOLB   C4A29168  17.434  21.809   5.955 -0.0683  0.2966  0.1669
 1216BOLB   C1B29169  18.318  22.369   6.310 -0.0197 -0.0625  0.1321
 1216BOLB   C2B29170  17.953  22.321   6.228  0.1050  0.3223 -0.0692
 1216BOLB   C3B29171  17.527  22.379   6.270 -0.1730 -0.0894 -0.2619
 1216BOLB   C4B29172  17.188  22.388   6.058 -0.0930  0.1068  0.1113
 1216BOLB   NC229173  18.587  22.295   4.921  0.3075 -0.3241  0.1113
 1216BOLB   PO229174  18.359  22.165   4.488 -0.0958 -0.2832 -0.2833
 1216BOLB   GL329175  18.106  21.932   4.811 -0.2117 -0.1145  0.0435
 1216BOLB   GL429176  18.205  21.681   4.570 -0.0422  0.0757  0.0388
 1216BOLB   C1C29177  17.707  21.835   4.796  0.2294 -0.1922 -0.0238
 1216BOLB   C2C29178  17.348  21.881   5.220 -0.1977  0.0276 -0.1746
 1216BOLB   C3C29179  16.953  21.889   5.463 -0.1679 -0.2835  0.0210
 1216BOLB   C4C29180  17.023  21.842   5.907  0.3183  0.1863  0.1184
 1216BOLB   C1D29181  17.861  21.632   4.379  0.2202 -0.0760  0.2778
 1216BOLB   C2D29182  17.624  21.287   4.206 -0.1270 -0.2633  0.1810
 1216BOLB   C3D29183  17.615  21.238   3.717 -0.3544 -0.0065  0.2235
 1216BOLB   C4D29184  17.400  21.185   3.304 -0.2491  0.1797 -0.1262
 1217BOLB   NC129185  10.540  27.770  12.303 -0.0051 -0.2447 -0.2567
 1217BOLB   PO129186  10.774  27.707  12.674  0.0299 -0.0613 -0.0206
 1217BOLB   GL129187  11.266  27.804  12.676 -0.1947 -0.1002  0.1275
 1217BOLB   GL229188  11.303  27.914  12.872  0.1171 -0.0505 -0.4061
 1217BOLB   C1A29189  11.741  27.797  12.707  0.1980  0.0980  0.2748
 1217BOLB   C2A29190  11.938  28.181  12.789 -0.2668  0.2153  0.3059
 1217BOLB   C3A29191  12.135  28.539  12.924 -0.0849  0.0769  0.1003
 1217BOLB   C4A29192  12.283  28.936  12.890  0.2326 -0.1268  0.1681
 1217BOLB   C1B29193  11.540  28.151  13.085  0.2836  0.1106 -0.0817
 1217BOLB   C2B29194  11.855  28.498  13.346 -0.1735 -0.1324 -0.0055
 1217BOLB   C3B29195  12.244  28.735  13.402 -0.2098 -0.3188 -0.1116
 1217BOLB   C4B29196  12.653  28.801  13.680 -0.0118  0.1968  0.1372
 1217BOLB   NC229197  13.262  31.800  12.139  0.1811  0.1342 -0.0473
 1217BOLB   PO229198  13.320  31.285  12.088  0.0688  0.1556 -0.2717
 1217BOLB   GL329199  13.066  30.955  12.300 -0.3091 -0.0184 -0.0970
 1217BOLB   GL429200  13.277  30.784  12.217 -0.1890 -0.3496  0.2315
 1217BOLB   C1C29201  12.784  30.604  12.504 -0.1375  0.0631  0.0760
 1217BOLB   C2C29202  12.591  30.201  12.713 -0.1201 -0.4547 -0.1689
 1217BOLB   C3C29203  12.420  29.819  12.772 -0.1143 -0.0228 -0.1533
 1217BOLB   C4C29204  12.280  29.444  12.942  0.0170 -0.0117  0.0442
 1217BOLB   C1D29205  13.016  30.379  12.099  0.2650  0.2750  0.0087
 1217BOLB   C2D29206  12.895  30.089  12.322  0.4402  0.0642  0.0010
 1217BOLB   C3D29207  13.023  29.965  12.721  0.0751  0.0367  0.2324
 1217BOLB   C4D29208  13.268  29.961  13.097  0.0450  0.0869  0.2418
 1218BOLB   NC129209   7.218  13.811  11.993 -0.1988  0.2641 -0.0617
 1218BOLB   PO129210   7.358  13.768  12.483 -0.1657 -0.0746 -0.1934
 1218BOLB   GL129211   7.551  13.241  12.577 -0.1240  0.1729 -0.1893
 1218BOLB   GL229212   7.387  12.959  12.488  0.0490  0.2692  0.1091
 1218BOLB   C1A29213   7.891  12.898  12.644  0.1152  0.0926 -0.0967
 1218BOLB   C2A29214   7.958  12.493  12.721 -0.1755  0.1913  0.2126
 1218BOLB   C3A29215   7.984  12.174  12.995  0.3569 -0.1775 -0.0682
 1218BOLB   C4A29216   8.149  12.092  13.352  0.0273  0.0411 -0.5121
 1218BOLB   C1B29217   7.333  12.510  12.514  0.3732 -0.2748  0.0524
 1218BOLB   C2B29218   7.600  12.198  12.606 -0.0738  0.1782 -0.2269
 1218BOLB   C3B29219   7.642  11.753  12.787 -0.0263 -0.4083 -0.1349
 1218BOLB   C4B29220   7.707  11.374  13.003 -0.1211 -0.2877 -0.1719
 1218BOLB   NC229221   8.492   9.675  14.058  0.2088  0.0773 -0.1910
 1218BOLB   PO229222   8.170   9.988  13.858 -0.1898  0.0726  0.0638
 1218BOLB   GL329223   8.267  10.455  14.088  0.2532  0.2957 -0.0892
 1218BOLB   GL429224   8.004  10.702  14.014  0.2056 -0.1253 -0.1223
 1218BOLB   C1C29225   8.460  10.852  14.041  0.1411 -0.1837  0.1375
 1218BOLB   C2C29226   8.492  11.161  14.106 -0.2714  0.1174 -0.3016
 1218BOLB   C3C29227   8.419  11.562  13.921  0.0108 -0.0092  0.0597
 1218BOLB   C4C29228   8.201  11.903  13.778 -0.2409  0.4569  0.1825
 1218BOLB   C1D29229   7.720  10.994  13.832 -0.1277 -0.1912 -0.1073
 1218BOLB   C2D29230   7.518  10.993  13.468 -0.2687 -0.6400 -0.3396
 1218BOLB   C3D29231   7.138  10.839  13.360  0.1995 -0.3102  0.6662
 1218BOLB   C4D29232   6.926  10.735  12.964  0.0710 -0.0191  0.2740
 1219BOLB   NC129233  33.127  10.967   8.416 -0.0782  0.0063  0.1673
 1219BOLB   PO129234  33.449  11.306   8.710  0.3655 -0.2165  0.1908
 1219BOLB   GL129235  33.667  11.525   8.991  0.1896  0.3647 -0.2211
 1219BOLB   GL229236  33.541  11.476   9.240  0.1586  0.1478 -0.2756
 1219BOLB   C1A29237  34.145  11.502   9.013  0.1140  0.1589  0.0660
 1219BOLB   C2A29238  34.613  11.324   9.160 -0.2614  0.0683 -0.0795
 1219BOLB   C3A29239  34.907  11.209   9.367 -0.1678  0.1630  0.0245
 1219BOLB   C4A29240  35.136  10.948   9.223 -0.0545  0.0341 -0.2917
 1219BOLB   C1B29241  33.612  11.914   9.453 -0.0426 -0.2974 -0.2122
 1219BOLB   C2B29242  33.952  12.231   9.462  0.1127  0.3138 -0.1803
 1219BOLB   C3B29243  34.153  12.333   9.872 -0.2243  0.2660 -0.0845
 1219BOLB   C4B29244  34.024  12.536  10.205  0.0297 -0.1201 -0.0572
 1219BOLB   NC229245  34.028   9.610   9.892 -0.2599 -0.2540  0.1122
 1219BOLB   PO229246  34.072   9.826   9.466 -0.1058  0.4506 -0.4393
 1219BOLB   GL329247  34.235  10.087   9.709  0.2416  0.0578 -0.1867
 1219BOLB   GL429248  34.210  10.373   9.675 -0.0784 -0.2499  0.0340
 1219BOLB   C1C29249  34.558  10.126  10.077  0.0530 -0.1694 -0.1403
 1219BOLB   C2C29250  35.026  10.370  10.153  0.3598 -0.2158  0.4742
 1219BOLB   C3C29251  35.434  10.662   9.975  0.1340 -0.1042  0.1112
 1219BOLB   C4C29252  35.497  10.880   9.571 -0.1365  0.1168  0.2136
 1219BOLB   C1D29253  34.608  10.468   9.746  0.2610  0.1676  0.0828
 1219BOLB   C2D29254  34.952  10.779   9.724  0.2666  0.0424  0.4267
 1219BOLB   C3D29255  35.106  11.093   9.931 -0.0536 -0.1389  0.0779
 1219BOLB   C4D29256  35.006  11.453  10.106  0.0490  0.1377  0.3437
 1220BOLB   NC129257   8.445  13.898   9.310  0.3997 -0.0316 -0.3288
 1220BOLB   PO129258   8.492  13.410   9.257 -0.0731  0.0018  0.3785
 1220BOLB   GL129259   8.583  12.793   9.204  0.0466  0.1081 -0.2321
 1220BOLB   GL229260   8.424  12.614   9.398  0.1433  0.0458 -0.1722
 1220BOLB   C1A29261   8.711  12.347   9.109 -0.2773  0.3557 -0.2453
 1220BOLB   C2A29262   8.717  11.978   9.187 -0.0088  0.1424  0.4434
 1220BOLB   C3A29263   8.606  11.447   9.039  0.3720 -0.2190 -0.2091
 1220BOLB   C4A29264   8.444  11.195   8.838  0.1425 -0.1905 -0.1460
 1220BOLB   C1B29265   8.633  12.284   9.621 -0.0643  0.1681  0.4064
 1220BOLB   C2B29266   8.572  11.891   9.703 -0.2209 -0.2560 -0.3338
 1220BOLB   C3B29267   8.549  11.538   9.983  0.2053  0.1907 -0.1181
 1220BOLB   C4B29268   8.336  11.184  10.079  0.4596 -0.1260 -0.1928
 1220BOLB   NC229269   8.609   8.996   9.124  0.3209  0.0600 -0.2261
 1220BOLB   PO229270   8.545   8.810   8.703 -0.0181  0.1673 -0.1557
 1220BOLB   GL329271   8.606   9.177   8.554  0.1442  0.1413 -0.0957
 1220BOLB   GL429272   8.931   9.272   8.343  0.0216 -0.0391  0.0098
 1220BOLB   C1C29273   8.541   9.553   8.766 -0.1001  0.1205 -0.0452
 1220BOLB   C2C29274   8.530   9.888   8.593 -0.5089 -0.2747  0.0295
 1220BOLB   C3C29275   8.644  10.290   8.756 -0.1471 -0.2482  0.1069
 1220BOLB   C4C29276   8.483  10.761   8.744  0.0384 -0.1056 -0.0803
 1220BOLB   C1D29277   8.973   9.645   8.584 -0.2793 -0.2126 -0.1175
 1220BOLB   C2D29278   8.944   9.882   8.907  0.0948 -0.0090 -0.0180
 1220BOLB   C3D29279   9.248  10.080   8.881  0.1336  0.0502 -0.1728
 1220BOLB   C4D29280   9.592  10.395   8.786  0.1037 -0.1383  0.2629
 1221BOLB   NC129281  10.630  21.970  17.649  0.1265  0.0700  0.0133
 1221BOLB   PO129282  10.845  22.054  17.873 -0.0766  0.0163 -0.0343
 1221BOLB   GL129283  10.897  22.073  18.230  0.1444 -0.0798 -0.0751
 1221BOLB   GL229284  10.947  21.877  18.438  0.0614  0.0552  0.0694
 1221BOLB   C1A29285  10.692  22.123  18.770 -0.0218 -0.0374  0.3095
 1221BOLB   C2A29286  10.626  22.053  19.204  0.0631  0.0232 -0.1052
 1221BOLB   C3A29287  10.429  21.990  19.599 -0.0487 -0.3825 -0.1413
 1221BOLB   C4A29288  10.476  22.100  20.055 -0.0440  0.0675  0.2565
 1221BOLB   C1B29289  11.152  21.869  18.804  0.0651  0.0125  0.0694
 1221BOLB   C2B29290  11.230  21.785  19.203 -0.1217 -0.4369 -0.0395
 1221BOLB   C3B29291  11.332  21.400  19.338 -0.1932 -0.2177  0.2940
 1221BOLB   C4B29292  11.437  21.234  19.689  0.3437  0.0433 -0.0051
 1221BOLB   NC229293  10.252  22.298  22.398 -0.0229 -0.2803 -0.0137
 1221BOLB   PO229294  10.561  22.594  22.230  0.0286  0.0426  0.0304
 1221BOLB   GL329295  10.663  22.642  21.910  0.0748  0.1016  0.1197
 1221BOLB   GL429296  11.017  22.849  21.770  0.0441  0.0352 -0.1162
 1221BOLB   C1C29297  10.659  22.618  21.400  0.1705 -0.0427 -0.1038
 1221BOLB   C2C29298  10.809  22.494  21.011 -0.0169 -0.1420 -0.0639
 1221BOLB   C3C29299  10.710  22.407  20.680  0.2033  0.1326 -0.2186
 1221BOLB   C4C29300  10.664  22.223  20.372 -0.0540 -0.1836  0.2906
 1221BOLB   C1D29301  11.151  22.978  21.304 -0.0672  0.2728  0.0087
 1221BOLB   C2D29302  11.145  22.799  20.834  0.0992  0.0871 -0.0452
 1221BOLB   C3D29303  10.993  22.752  20.463 -0.2437 -0.2100  0.2111
 1221BOLB   C4D29304  10.712  22.666  20.086  0.0693  0.0667 -0.0681
 1222BOLB   NC129305   8.339  15.009   5.355 -0.0540 -0.0670 -0.1431
 1222BOLB   PO129306   8.201  14.608   5.431  0.2425  0.3161  0.0981
 1222BOLB   GL129307   8.379  14.244   5.136  0.1570 -0.0339  0.3184
 1222BOLB   GL229308   8.717  14.115   5.157  0.0675  0.0092 -0.3991
 1222BOLB   C1A29309   8.152  13.914   4.986  0.2302  0.0369  0.0423
 1222BOLB   C2A29310   8.263  13.602   4.729  0.1333  0.1376  0.0128
 1222BOLB   C3A29311   8.182  13.427   4.333  0.1294 -0.1961 -0.0870
 1222BOLB   C4A29312   8.272  13.256   4.006  0.2357  0.1871 -0.1814
 1222BOLB   C1B29313   8.735  13.706   4.942  0.1275 -0.3709 -0.2952
 1222BOLB   C2B29314   8.869  13.317   4.785  0.0180  0.2394 -0.2510
 1222BOLB   C3B29315   8.888  12.830   4.839  0.4515  0.0279 -0.3288
 1222BOLB   C4B29316   8.533  12.450   4.931 -0.1206 -0.1038  0.0820
 1222BOLB   NC229317   8.150  11.594   2.252  0.0437 -0.0992  0.3144
 1222BOLB   PO229318   8.548  11.816   2.240 -0.2373 -0.0987  0.1550
 1222BOLB   GL329319   8.424  12.015   2.482  0.2879 -0.1564 -0.1396
 1222BOLB   GL429320   7.975  12.064   2.561  0.0291 -0.1983  0.0061
 1222BOLB   C1C29321   8.424  12.276   2.776 -0.1548  0.1812 -0.1026
 1222BOLB   C2C29322   8.367  12.592   3.107  0.1570 -0.1727  0.0861
 1222BOLB   C3C29323   8.376  12.929   3.357 -0.1001  0.0454 -0.4511
 1222BOLB   C4C29324   8.340  13.102   3.699 -0.3208 -0.1439 -0.0134
 1222BOLB   C1D29325   7.953  12.355   2.914 -0.0075 -0.1328  0.0087
 1222BOLB   C2D29326   7.731  12.697   3.001  0.0362  0.0509 -0.2379
 1222BOLB   C3D29327   7.824  12.849   3.331  0.3472 -0.0909 -0.3141
 1222BOLB   C4D29328   7.916  13.242   3.506  0.0957 -0.2906 -0.1404
 1223BOLB   NC129329   0.975  25.349   6.491 -0.1175  0.0314 -0.1348
 1223BOLB   PO129330   0.586  25.211   6.370 -0.0711  0.1715 -0.1186
 1223BOLB   GL129331   0.447  25.523   6.318 -0.1311 -0.2158 -0.0036
 1223BOLB   GL229332   0.676  25.697   6.271  0.0237  0.0350 -0.1810
 1223BOLB   C1A29333   0.069  25.713   6.253  0.0134 -0.2610 -0.0282
 1223BOLB   C2A29334  -0.371  25.872   6.216  0.3956 -0.0179 -0.0068
 1223BOLB   C3A29335  -0.725  26.018   6.213  0.2230 -0.1177  0.0682
 1223BOLB   C4A29336  -0.998  26.251   6.125  0.0471  0.0276  0.1336
 1223BOLB   C1B29337   0.599  25.938   5.968  0.1041  0.0817 -0.1962
 1223BOLB   C2B29338   0.384  26.202   5.673  0.4245 -0.0557 -0.2229
 1223BOLB   C3B29339   0.149  26.079   5.238  0.1075 -0.0081 -0.1981
 1223BOLB   C4B29340  -0.162  26.043   4.926 -0.4400 -0.0432 -0.1877
 1223BOLB   NC229341  -2.594  27.044   4.097 -0.1713 -0.0360  0.0855
 1223BOLB   PO229342  -2.224  27.086   4.333  0.4521 -0.2372  0.1322
 1223BOLB   GL329343  -1.847  26.800   4.497  0.2588  0.2619  0.1300
 1223BOLB   GL429344  -1.700  26.583   4.290 -0.2120  0.0526 -0.0673
 1223BOLB   C1C29345  -1.718  26.610   4.897 -0.0862  0.0623 -0.0600
 1223BOLB   C2C29346  -1.728  26.591   5.270 -0.0525  0.0534  0.3865
 1223BOLB   C3C29347  -1.419  26.617   5.598 -0.1532 -0.1729  0.1415
 1223BOLB   C4C29348  -1.099  26.619   5.959 -0.0033 -0.1320  0.0169
 1223BOLB   C1D29349  -1.473  26.232   4.511 -0.1954  0.1226  0.0066
 1223BOLB   C2D29350  -1.248  25.885   4.746  0.1806 -0.4494 -0.2037
 1223BOLB   C3D29351  -1.473  25.554   4.978 -0.0710  0.1032  0.1621
 1223BOLB   C4D29352  -1.947  25.544   4.971  0.4773  0.0607 -0.3541
 1224BOLB   NC129353  12.642  16.381  10.144 -0.1927  0.2048 -0.2488
 1224BOLB   PO129354  12.830  16.296  10.468  0.0064  0.1196 -0.2522
 1224BOLB   GL129355  13.202  15.957  10.568 -0.2099  0.1308 -0.0824
 1224BOLB   GL229356  13.384  16.084  10.465 -0.0281 -0.0627 -0.0359
 1224BOLB   C1A29357  13.397  15.755  10.914  0.1326  0.1473  0.0853
 1224BOLB   C2A29358  13.671  15.445  11.080 -0.0002 -0.2085 -0.0269
 1224BOLB   C3A29359  13.779  14.980  11.271 -0.4138 -0.1314  0.0838
 1224BOLB   C4A29360  13.675  14.684  11.543  0.1958 -0.2879  0.2745
 1224BOLB   C1B29361  13.824  15.944  10.460 -0.0706  0.2499  0.0801
 1224BOLB   C2B29362  14.239  15.661  10.579  0.0697  0.0840 -0.0967
 1224BOLB   C3B29363  14.565  15.435  10.741 -0.4083 -0.2999  0.1305
 1224BOLB   C4B29364  14.924  15.087  10.695 -0.2741  0.1913  0.2935
 1224BOLB   NC229365  14.556  12.860  13.087  0.0014 -0.0093 -0.0056
 1224BOLB   PO229366  14.362  12.586  12.884  0.1528 -0.0845  0.1883
 1224BOLB   GL329367  14.343  12.969  12.588 -0.1635 -0.0702  0.0557
 1224BOLB   GL429368  14.514  13.166  12.701  0.3380 -0.2404 -0.2503
 1224BOLB   C1C29369  13.959  13.247  12.440  0.0058  0.2557 -0.0719
 1224BOLB   C2C29370  13.833  13.613  12.309 -0.1593 -0.1406 -0.0709
 1224BOLB   C3C29371  13.583  13.890  11.934 -0.0751 -0.1660 -0.2148
 1224BOLB   C4C29372  13.482  14.404  11.813 -0.2867  0.0054  0.0154
 1224BOLB   C1D29373  14.446  13.613  12.659  0.1959 -0.0285 -0.3431
 1224BOLB   C2D29374  14.090  13.838  12.721 -0.2312  0.1956  0.2609
 1224BOLB   C3D29375  13.824  14.195  12.829  0.1420  0.2440 -0.1954
 1224BOLB   C4D29376  13.549  14.533  12.907  0.2939  0.2692  0.0684
 1225BOLB   NC129377   5.834  28.679  11.487 -0.1406  0.1226 -0.1452
 1225BOLB   PO129378   5.519  28.960  11.512  0.1058 -0.0735 -0.3173
 1225BOLB   GL129379   5.509  29.239  11.371 -0.1730  0.1988 -0.1364
 1225BOLB   GL229380   5.861  29.294  11.330  0.0840  0.3712  0.3214
 1225BOLB   C1A29381   5.432  29.594  11.602 -0.1820  0.0638  0.2506
 1225BOLB   C2A29382   5.265  29.933  11.645 -0.0386 -0.0194  0.3057
 1225BOLB   C3A29383   5.149  30.273  11.474  0.2097  0.1297  0.0525
 1225BOLB   C4A29384   4.664  30.571  11.555  0.0779  0.2277  0.3926
 1225BOLB   C1B29385   5.915  29.574  11.729 -0.0122  0.0132  0.1573
 1225BOLB   C2B29386   5.800  29.969  11.788 -0.2420  0.0701  0.2226
 1225BOLB   C3B29387   5.552  30.327  11.850 -0.0405  0.0822  0.0582
 1225BOLB   C4B29388   5.390  30.700  11.609  0.1759 -0.1717 -0.1844
 1225BOLB   NC229389   4.255  33.483  10.566  0.0347 -0.0063 -0.2061
 1225BOLB   PO229390   4.472  33.054  10.652  0.1480 -0.0430 -0.0977
 1225BOLB   GL329391   4.637  32.614  10.612 -0.0417  0.1666  0.0908
 1225BOLB   GL429392   4.820  32.687  10.929 -0.0819  0.3254 -0.1212
 1225BOLB   C1C29393   4.599  32.278  10.839 -0.0632 -0.2558 -0.2410
 1225BOLB   C2C29394   4.669  31.856  10.999  0.2282  0.0543 -0.1997
 1225BOLB   C3C29395   4.679  31.417  11.088 -0.0233  0.0931 -0.0912
 1225BOLB   C4C29396   4.671  31.036  11.336  0.1607  0.1083  0.1419
 1225BOLB   C1D29397   4.774  32.449  11.307 -0.3058  0.0436  0.4972
 1225BOLB   C2D29398   4.667  32.076  11.459 -0.3272 -0.0538 -0.0411
 1225BOLB   C3D29399   4.518  31.669  11.651 -0.1662  0.2964  0.3549
 1225BOLB   C4D29400   4.331  31.318  11.521  0.1473 -0.2057 -0.2753
 1226BOLB   NC129401   9.607  17.358  16.958  0.1399  0.2144  0.0056
 1226BOLB   PO129402   9.314  17.415  17.089  0.0654  0.0976 -0.0929
 1226BOLB   GL129403   9.288  17.471  17.569 -0.0489  0.1918 -0.2875
 1226BOLB   GL229404   9.563  17.397  17.523  0.0420  0.3994  0.0252
 1226BOLB   C1A29405   9.280  17.042  17.764 -0.0504 -0.0960 -0.0857
 1226BOLB   C2A29406   9.172  16.527  17.674  0.0010  0.0479 -0.0068
 1226BOLB   C3A29407   9.135  16.114  17.899  0.0767 -0.1836 -0.0265
 1226BOLB   C4A29408   8.864  15.784  18.067  0.2576  0.2505  0.1223
 1226BOLB   C1B29409   9.979  17.167  17.643  0.1105  0.2583 -0.0609
 1226BOLB   C2B29410  10.262  16.919  17.876  0.1264 -0.0014 -0.2628
 1226BOLB   C3B29411  10.517  16.472  17.877 -0.2020  0.1043 -0.0599
 1226BOLB   C4B29412  10.716  16.426  18.289 -0.1828 -0.0334  0.0700
 1226BOLB   NC229413   9.990  13.411  18.734  0.3729  0.2340 -0.1269
 1226BOLB   PO229414  10.110  13.831  18.828  0.1799 -0.1291  0.1264
 1226BOLB   GL329415   9.788  14.075  18.598  0.0080  0.0668 -0.0987
 1226BOLB   GL429416  10.092  14.233  18.543 -0.0801  0.0859  0.0843
 1226BOLB   C1C29417   9.506  14.241  18.265  0.0164  0.1356 -0.0696
 1226BOLB   C2C29418   9.319  14.745  18.162 -0.4565  0.0893  0.2181
 1226BOLB   C3C29419   9.323  15.104  18.073 -0.1550 -0.1037 -0.2185
 1226BOLB   C4C29420   8.957  15.372  17.940  0.2313 -0.0878 -0.2204
 1226BOLB   C1D29421  10.416  14.532  18.264  0.1614 -0.4752  0.0152
 1226BOLB   C2D29422  10.240  14.811  17.929  0.2554  0.1895  0.1852
 1226BOLB   C3D29423  10.317  15.171  17.720 -0.2089 -0.1923  0.0863
 1226BOLB   C4D29424  10.306  15.575  17.374  0.0555  0.0216  0.0327
 1227BOLB   NC129425  37.797  22.852   6.099 -0.1969 -0.1882 -0.0479
 1227BOLB   PO129426  37.952  23.051   6.428 -0.3809  0.0263  0.1890
 1227BOLB   GL129427  37.714  23.435   6.279  0.1193  0.1899  0.0117
 1227BOLB   GL229428  37.462  23.187   6.212  0.0281 -0.3068  0.3706
 1227BOLB   C1A29429  37.314  23.659   6.131  0.0279  0.2472  0.1836
 1227BOLB   C2A29430  36.897  23.714   5.925  0.0551  0.0994 -0.2840
 1227BOLB   C3A29431  36.507  23.958   5.780 -0.1525 -0.1243 -0.1777
 1227BOLB   C4A29432  36.378  24.281   5.454 -0.1074  0.5304  0.1259
 1227BOLB   C1B29433  37.280  23.288   5.710 -0.0777  0.4381  0.0222
 1227BOLB   C2B29434  36.972  23.329   5.369  0.2451  0.2083  0.0431
 1227BOLB   C3B29435  36.532  23.441   5.151  0.1059  0.4039  0.1007
 1227BOLB   C4B29436  36.320  23.856   5.138 -0.1848  0.0471  0.2486
 1227BOLB   NC229437  35.212  25.239   3.449 -0.0442 -0.2206  0.0203
 1227BOLB   PO229438  34.977  25.325   3.886 -0.1641  0.1933 -0.0593
 1227BOLB   GL329439  35.173  24.844   3.988 -0.1202  0.3144 -0.0061
 1227BOLB   GL429440  35.247  24.711   3.731 -0.1846  0.2068 -0.4320
 1227BOLB   C1C29441  35.538  24.602   4.172  0.0431 -0.2448 -0.0981
 1227BOLB   C2C29442  35.717  24.522   4.574 -0.2667 -0.0183 -0.1167
 1227BOLB   C3C29443  35.987  24.710   4.852  0.0541 -0.1384 -0.0281
 1227BOLB   C4C29444  36.220  24.577   5.172 -0.3808  0.0475 -0.0649
 1227BOLB   C1D29445  35.458  24.268   3.804  0.2789 -0.2615  0.2079
 1227BOLB   C2D29446  35.575  24.067   4.213 -0.2920 -0.2041 -0.0117
 1227BOLB   C3D29447  35.662  23.774   4.523 -0.0709 -0.1627  0.1141
 1227BOLB   C4D29448  35.579  23.397   4.657  0.1555 -0.1126 -0.2765
 1228BOLB   NC129449   8.113  15.493   3.901 -0.0994 -0.2583 -0.0339
 1228BOLB   PO129450   7.982  15.382   3.520  0.3089  0.1457  0.2997
 1228BOLB   GL129451   7.874  15.158   3.214  0.1434  0.2709  0.1689
 1228BOLB   GL229452   7.851  15.154   2.880 -0.0101 -0.4078  0.0139
 1228BOLB   C1A29453   7.621  14.676   3.110 -0.0011 -0.4175 -0.2034
 1228BOLB   C2A29454   7.513  14.282   3.092  0.1271  0.0898  0.0700
 1228BOLB   C3A29455   7.585  13.976   2.927  0.0097 -0.2583  0.0158
 1228BOLB   C4A29456   7.477  13.611   2.972 -0.0403  0.0785 -0.0656
 1228BOLB   C1B29457   8.044  14.734   2.908  0.1679  0.0246  0.0183
 1228BOLB   C2B29458   8.353  14.529   2.660 -0.0157  0.2337  0.1178
 1228BOLB   C3B29459   8.196  14.492   2.216  0.1576 -0.1597  0.1241
 1228BOLB   C4B29460   8.212  14.522   1.835 -0.2578 -0.1056 -0.0332
 1228BOLB   NC229461   7.724  12.056   1.419 -0.0550 -0.1549  0.2041
 1228BOLB   PO229462   8.064  12.274   1.742  0.1411 -0.2918 -0.0209
 1228BOLB   GL329463   8.085  12.197   2.102 -0.2153  0.0992 -0.1637
 1228BOLB   GL429464   7.805  11.917   2.137 -0.4059 -0.0701 -0.1497
 1228BOLB   C1C29465   8.136  12.442   2.397 -0.1216 -0.0961 -0.3076
 1228BOLB   C2C29466   8.122  12.779   2.676  0.0349  0.3275  0.1627
 1228BOLB   C3C29467   8.106  13.070   2.974 -0.0721  0.3880  0.0746
 1228BOLB   C4C29468   7.763  13.362   3.031  0.1980 -0.0502 -0.3920
 1228BOLB   C1D29469   7.649  12.282   2.264  0.1826  0.1760 -0.0837
 1228BOLB   C2D29470   7.671  12.644   2.507 -0.0734  0.0622 -0.0807
 1228BOLB   C3D29471   7.613  13.061   2.568 -0.2659  0.0518 -0.0970
 1228BOLB   C4D29472   7.512  13.549   2.474 -0.1477  0.3392 -0.0436
 1229BOLB   NC129473  10.805  22.524   3.225 -0.3418  0.2765 -0.2531
 1229BOLB   PO129474  10.793  22.152   2.892  0.0499 -0.2097 -0.1084
 1229BOLB   GL129475  10.807  22.148   2.386  0.1005 -0.2102  0.0809
 1229BOLB   GL229476  10.654  21.927   2.223 -0.1442  0.0173 -0.0704
 1229BOLB   C1A29477  11.054  22.233   1.966  0.0764  0.1106 -0.0743
 1229BOLB   C2A29478  11.295  22.412   1.658  0.1550 -0.1409  0.2903
 1229BOLB   C3A29479  11.371  22.665   1.298  0.1302  0.1523  0.3537
 1229BOLB   C4A29480  11.203  22.934   1.076 -0.1491 -0.2016  0.0993
 1229BOLB   C1B29481  10.829  21.810   1.797  0.0266 -0.1615  0.1059
 1229BOLB   C2B29482  11.094  22.030   1.440  0.0856  0.0141 -0.0814
 1229BOLB   C3B29483  11.554  22.175   1.264  0.1593  0.0173 -0.0978
 1229BOLB   C4B29484  11.769  22.497   1.027  0.1865  0.3498 -0.3151
 1229BOLB   NC229485  10.720  23.467  -1.142  0.2010 -0.1712 -0.1654
 1229BOLB   PO229486  10.956  23.098  -1.095 -0.2953  0.0734  0.0125
 1229BOLB   GL329487  10.780  22.701  -0.827 -0.1572 -0.2316  0.2308
 1229BOLB   GL429488  10.539  22.532  -0.972  0.0187 -0.2248 -0.1667
 1229BOLB   C1C29489  10.928  22.520  -0.351  0.4732 -0.4158  0.1634
 1229BOLB   C2C29490  11.171  22.458  -0.022 -0.1117  0.2922 -0.2646
 1229BOLB   C3C29491  11.014  22.596   0.363 -0.1322 -0.1340 -0.1351
 1229BOLB   C4C29492  11.117  22.928   0.699  0.0840 -0.1117 -0.1810
 1229BOLB   C1D29493  10.093  22.575  -0.897 -0.3319 -0.1187  0.0084
 1229BOLB   C2D29494   9.704  22.470  -0.821 -0.0510 -0.2735 -0.1082
 1229BOLB   C3D29495   9.346  22.436  -0.508  0.0728 -0.3706 -0.0872
 1229BOLB   C4D29496   9.076  22.703  -0.364  0.0643  0.3429 -0.0130
 1230BOLB   NC129497  14.073  17.575   9.668  0.1238 -0.1309 -0.1478
 1230BOLB   PO129498  13.981  17.148   9.813  0.0212 -0.0362  0.0564
 1230BOLB   GL129499  14.309  17.153  10.211  0.3243  0.1852  0.1303
 1230BOLB   GL229500  14.494  17.287  10.054 -0.3307 -0.1916  0.1162
 1230BOLB   C1A29501  14.501  16.845  10.488 -0.2269  0.1675  0.0330
 1230BOLB   C2A29502  14.510  16.573  10.837 -0.0590 -0.0770  0.0183
 1230BOLB   C3A29503  14.669  16.309  11.115  0.0492  0.1410 -0.1015
 1230BOLB   C4A29504  15.000  16.228  11.574  0.6835  0.3906  0.1713
 1230BOLB   C1B29505  14.660  16.853   9.932  0.0323 -0.1670 -0.0261
 1230BOLB   C2B29506  15.042  16.582   9.979 -0.0302 -0.1568 -0.2343
 1230BOLB   C3B29507  15.400  16.539  10.171  0.2102  0.1935  0.0162
 1230BOLB   C4B29508  15.414  16.614  10.575  0.1825  0.3190  0.0516
 1230BOLB   NC229509  17.161  15.358  12.083 -0.2603  0.1111  0.1745
 1230BOLB   PO229510  17.000  14.991  11.896 -0.0849  0.1608 -0.0032
 1230BOLB   GL329511  16.710  15.286  11.544  0.1687  0.0439 -0.5115
 1230BOLB   GL429512  16.565  15.050  11.279  0.1136  0.3820 -0.1312
 1230BOLB   C1C29513  16.537  15.659  11.569  0.3651  0.1023 -0.0581
 1230BOLB   C2C29514  16.145  15.814  11.675 -0.0094  0.0248 -0.1122
 1230BOLB   C3C29515  15.776  15.923  11.749 -0.0065 -0.0630 -0.0501
 1230BOLB   C4C29516  15.323  15.900  11.780  0.1584  0.1695 -0.0653
 1230BOLB   C1D29517  16.214  15.404  11.314 -0.0757 -0.2809  0.2869
 1230BOLB   C2D29518  15.806  15.663  11.334 -0.2563 -0.2174  0.0512
 1230BOLB   C3D29519  15.518  15.916  11.110  0.0602  0.1845 -0.0530
 1230BOLB   C4D29520  15.240  16.281  11.148  0.0471  0.0913  0.1654
 1231BOLB   NC129521   7.363  25.080  17.316 -0.1791  0.1055  0.2398
 1231BOLB   PO129522   6.995  25.297  17.547 -0.1670 -0.1321  0.1558
 1231BOLB   GL129523   6.866  25.419  18.002  0.1269  0.1499 -0.1559
 1231BOLB   GL229524   6.893  25.175  18.262  0.0845 -0.0629  0.3316
 1231BOLB   C1A29525   6.712  25.618  18.339 -0.3014 -0.4349 -0.3117
 1231BOLB   C2A29526   6.820  25.805  18.734 -0.0456  0.1272 -0.0199
 1231BOLB   C3A29527   6.927  25.851  19.211  0.0544  0.1365  0.1300
 1231BOLB   C4A29528   7.008  25.641  19.551 -0.2881 -0.0110  0.0617
 1231BOLB   C1B29529   6.991  25.348  18.637  0.2577 -0.0947 -0.2697
 1231BOLB   C2B29530   7.181  25.457  19.014 -0.0182 -0.1271  0.1205
 1231BOLB   C3B29531   7.612  25.595  19.192  0.1590  0.1060 -0.0998
 1231BOLB   C4B29532   7.907  25.345  18.873  0.0912  0.0704  0.1901
 1231BOLB   NC229533   6.561  26.603  21.842 -0.2777  0.4617  0.1795
 1231BOLB   PO229534   6.361  26.183  21.947 -0.0848 -0.1180  0.2275
 1231BOLB   GL329535   6.564  25.965  21.496 -0.4273 -0.2863 -0.1830
 1231BOLB   GL429536   6.915  25.791  21.480  0.1737 -0.1663  0.1119
 1231BOLB   C1C29537   6.623  25.990  21.075  0.1889  0.1493  0.0449
 1231BOLB   C2C29538   6.864  26.115  20.719  0.0990  0.0022 -0.0901
 1231BOLB   C3C29539   6.918  26.051  20.272 -0.0578  0.1942 -0.2239
 1231BOLB   C4C29540   6.873  25.683  19.967 -0.3210 -0.0668 -0.0618
 1231BOLB   C1D29541   7.038  25.651  21.047 -0.1555 -0.0316 -0.1768
 1231BOLB   C2D29542   6.792  25.590  20.677 -0.5746  0.0086  0.1386
 1231BOLB   C3D29543   6.461  25.263  20.620 -0.0474 -0.0443 -0.3735
 1231BOLB   C4D29544   6.255  25.067  20.992  0.2264  0.4293 -0.2851
 1232BOLB   NC129545   3.624  19.089   3.148 -0.0725 -0.1598  0.1791
 1232BOLB   PO129546   3.437  18.768   2.762  0.0648  0.0924 -0.1981
 1232BOLB   GL129547   2.992  18.841   2.453 -0.1436 -0.1229 -0.0434
 1232BOLB   GL229548   2.878  19.184   2.338  0.0815  0.1913 -0.0030
 1232BOLB   C1A29549   2.572  18.713   2.226  0.1461  0.2316  0.1236
 1232BOLB   C2A29550   2.160  18.743   2.025  0.3025 -0.1308  0.1350
 1232BOLB   C3A29551   2.012  18.712   1.649  0.4361 -0.1831 -0.3103
 1232BOLB   C4A29552   1.971  18.407   1.252  0.2846 -0.2205 -0.0258
 1232BOLB   C1B29553   2.784  19.132   1.898  0.0774 -0.1509 -0.0156
 1232BOLB   C2B29554   2.877  19.012   1.436 -0.0254  0.1968 -0.0838
 1232BOLB   C3B29555   3.277  18.995   1.222 -0.0731 -0.1063  0.0162
 1232BOLB   C4B29556   3.674  18.796   1.299 -0.1449  0.0681 -0.0980
 1232BOLB   NC229557   1.114  17.956  -1.503  0.0897 -0.1437  0.1950
 1232BOLB   PO229558   1.523  17.876  -1.117  0.2399  0.0929 -0.0507
 1232BOLB   GL329559   1.795  17.964  -0.794  0.0379 -0.1366  0.0237
 1232BOLB   GL429560   2.009  18.268  -0.788  0.1648  0.0556  0.3103
 1232BOLB   C1C29561   2.057  17.900  -0.367 -0.0149 -0.0020 -0.3786
 1232BOLB   C2C29562   2.098  18.002   0.117  0.0244 -0.2188  0.0838
 1232BOLB   C3C29563   1.862  17.850   0.535  0.1312  0.0098 -0.4018
 1232BOLB   C4C29564   1.984  18.051   0.936 -0.1042 -0.0398  0.2045
 1232BOLB   C1D29565   2.453  18.169  -0.655 -0.0891 -0.0888 -0.0456
 1232BOLB   C2D29566   2.952  18.116  -0.567 -0.0825  0.1679 -0.1853
 1232BOLB   C3D29567   3.210  18.184  -0.310 -0.1478  0.1589  0.1738
 1232BOLB   C4D29568   3.092  17.949   0.020 -0.0290 -0.0062  0.0908
 1233BOLB   NC129569   7.536  24.072  18.438 -0.1646 -0.1293 -0.1451
 1233BOLB   PO129570   7.255  23.806  18.475 -0.2630  0.2745  0.3138
 1233BOLB   GL129571   7.439  23.726  18.807 -0.1773 -0.1687 -0.1032
 1233BOLB   GL229572   7.564  23.452  18.943  0.0637 -0.1406  0.3940
 1233BOLB   C1A29573   7.494  24.002  19.146 -0.0383  0.2564  0.3287
 1233BOLB   C2A29574   7.528  24.047  19.577 -0.0376  0.1637 -0.0876
 1233BOLB   C3A29575   7.535  23.986  20.047  0.3220 -0.1041 -0.0993
 1233BOLB   C4A29576   7.436  23.834  20.455 -0.3062 -0.1188 -0.1121
 1233BOLB   C1B29577   7.412  23.124  19.194 -0.0832 -0.1347  0.1330
 1233BOLB   C2B29578   7.418  23.167  19.641 -0.1118 -0.4045  0.0214
 1233BOLB   C3B29579   7.558  23.473  19.892  0.0596  0.3796 -0.0070
 1233BOLB   C4B29580   7.700  23.478  20.268  0.2044  0.2866  0.2417
 1233BOLB   NC229581   7.994  24.809  22.363  0.0342  0.2985  0.4357
 1233BOLB   PO229582   7.537  24.752  22.247  0.1725 -0.3662 -0.2271
 1233BOLB   GL329583   7.244  24.553  21.903  0.0259 -0.2036 -0.1885
 1233BOLB   GL429584   7.176  24.157  21.852  0.0548  0.0222 -0.3262
 1233BOLB   C1C29585   7.279  24.781  21.484  0.0413  0.0603 -0.1013
 1233BOLB   C2C29586   7.230  24.782  20.993  0.3084 -0.0675 -0.1340
 1233BOLB   C3C29587   6.972  24.464  20.759 -0.0879  0.1968 -0.3043
 1233BOLB   C4C29588   7.155  24.046  20.803 -0.1967 -0.0448  0.2480
 1233BOLB   C1D29589   6.965  24.124  21.556  0.1735 -0.1571 -0.1788
 1233BOLB   C2D29590   6.784  24.027  21.102 -0.1498 -0.1625 -0.0650
 1233BOLB   C3D29591   6.675  24.024  20.685 -0.0020  0.1463  0.0166
 1233BOLB   C4D29592   6.294  23.865  20.338  0.1884  0.1437 -0.1810
 1234BOLB   NC129593  10.064  25.667   5.145 -0.0314  0.2461  0.1782
 1234BOLB   PO129594   9.665  25.501   4.922 -0.1343  0.2092  0.3014
 1234BOLB   GL129595   9.743  25.783   4.690  0.2979  0.2270  0.2759
 1234BOLB   GL229596  10.064  26.023   4.782  0.0431  0.1856  0.0659
 1234BOLB   C1A29597   9.817  26.075   4.330  0.3440  0.1755  0.0897
 1234BOLB   C2A29598   9.865  26.345   3.909  0.1191  0.0595  0.2184
 1234BOLB   C3A29599  10.010  26.686   3.852  0.4752 -0.0901 -0.1253
 1234BOLB   C4A29600  10.298  26.996   3.713  0.0334  0.0298  0.3951
 1234BOLB   C1B29601  10.501  26.102   4.579 -0.2040 -0.1690  0.3473
 1234BOLB   C2B29602  10.797  26.355   4.322  0.1225 -0.1175 -0.1127
 1234BOLB   C3B29603  11.211  26.385   3.979  0.0852  0.0483  0.2739
 1234BOLB   C4B29604  11.637  26.127   3.718 -0.0406 -0.0334  0.0451
 1234BOLB   NC229605  11.347  27.427   1.099  0.2439 -0.2685 -0.2136
 1234BOLB   PO229606  11.635  27.487   1.440 -0.0527  0.1518  0.2348
 1234BOLB   GL329607  11.539  27.455   1.805 -0.0106 -0.1004  0.2035
 1234BOLB   GL429608  11.202  27.264   1.772 -0.0227 -0.3004 -0.1354
 1234BOLB   C1C29609  11.567  27.521   2.284  0.0382 -0.2070 -0.0531
 1234BOLB   C2C29610  11.295  27.309   2.621 -0.2879  0.2659  0.3978
 1234BOLB   C3C29611  10.914  27.110   2.948 -0.4077 -0.1619  0.0631
 1234BOLB   C4C29612  10.731  27.009   3.456 -0.0315  0.0881  0.1155
 1234BOLB   C1D29613  11.092  27.319   2.125  0.0123 -0.1424  0.1512
 1234BOLB   C2D29614  10.870  26.997   2.391  0.2820 -0.3416 -0.2633
 1234BOLB   C3D29615  10.868  26.687   2.665  0.3758 -0.1715  0.0180
 1234BOLB   C4D29616  10.753  26.192   2.761  0.1643  0.0338 -0.0033
 1235BOLB   NC129617   9.284  22.459  22.391 -0.0140 -0.0334 -0.2811
 1235BOLB   PO129618   9.490  22.807  22.468  0.2240  0.0943  0.1143
 1235BOLB   GL129619   9.622  22.877  22.098  0.0879 -0.1752  0.1445
 1235BOLB   GL229620   9.336  22.714  21.961  0.0908 -0.1426 -0.1684
 1235BOLB   C1A29621   9.671  23.026  21.650 -0.0143  0.0563 -0.0673
 1235BOLB   C2A29622   9.426  23.338  21.444 -0.2246  0.0401 -0.2524
 1235BOLB   C3A29623   9.158  23.346  21.100 -0.0706  0.3218  0.0346
 1235BOLB   C4A29624   8.918  23.532  20.943  0.0036 -0.1126  0.0983
 1235BOLB   C1B29625   9.713  22.532  21.591  0.1129  0.0345  0.0989
 1235BOLB   C2B29626   9.831  22.402  21.241 -0.1187  0.3013  0.0844
 1235BOLB   C3B29627  10.084  22.082  21.164 -0.0874  0.2652 -0.0573
 1235BOLB   C4B29628  10.451  22.064  20.918 -0.0207  0.2191 -0.0734
 1235BOLB   NC229629   8.541  25.239  22.318  0.2384  0.0070  0.0756
 1235BOLB   PO229630   8.460  24.818  22.171  0.0463  0.1934 -0.1519
 1235BOLB   GL329631   8.154  24.709  21.885 -0.0825  0.1195 -0.0486
 1235BOLB   GL429632   7.899  25.009  21.827 -0.0091  0.0659 -0.1217
 1235BOLB   C1C29633   8.093  24.298  21.683  0.0759  0.1173  0.0242
 1235BOLB   C2C29634   8.155  24.182  21.225  0.1969  0.0106  0.0183
 1235BOLB   C3C29635   8.543  24.176  20.938  0.3145  0.1078 -0.5587
 1235BOLB   C4C29636   8.866  23.895  20.858 -0.3023 -0.1300  0.3412
 1235BOLB   C1D29637   7.785  24.635  21.544  0.0855 -0.0491  0.0155
 1235BOLB   C2D29638   7.762  24.564  21.186  0.0335  0.0327  0.3245
 1235BOLB   C3D29639   7.611  24.534  20.790 -0.2795 -0.0910 -0.3517
 1235BOLB   C4D29640   7.812  24.488  20.352 -0.0391 -0.0629  0.1596
 1236BOLB   NC129641  10.289  18.690  17.090  0.1438  0.1204  0.0870
 1236BOLB   PO129642  10.191  18.592  17.520  0.2526 -0.1908 -0.1544
 1236BOLB   GL129643  10.193  18.652  17.987 -0.2456  0.2146  0.1720
 1236BOLB   GL229644  10.417  18.894  18.087 -0.1469  0.3777  0.0510
 1236BOLB   C1A29645  10.243  18.343  18.278  0.1942 -0.1889  0.1407
 1236BOLB   C2A29646  10.505  18.064  18.490  0.1618 -0.1324 -0.2396
 1236BOLB   C3A29647  10.903  18.034  18.730 -0.2585 -0.1813 -0.3038
 1236BOLB   C4A29648  11.242  17.660  18.637 -0.0369  0.1136  0.0875
 1236BOLB   C1B29649  10.576  18.682  18.463 -0.0416  0.1468 -0.0168
 1236BOLB   C2B29650  10.713  18.472  18.833 -0.1952  0.1465 -0.0065
 1236BOLB   C3B29651  10.384  18.188  19.039  0.0169 -0.1958  0.2348
 1236BOLB   C4B29652  10.253  17.772  18.833  0.0663  0.0434 -0.1289
 1236BOLB   NC229653  13.336  16.398  19.491  0.3346 -0.0222  0.2520
 1236BOLB   PO229654  12.996  16.564  19.799  0.0433 -0.1453 -0.0202
 1236BOLB   GL329655  12.702  16.927  19.695  0.0181  0.0318 -0.3184
 1236BOLB   GL429656  12.805  17.198  19.593 -0.0071  0.0468  0.1109
 1236BOLB   C1C29657  12.522  16.932  19.263 -0.0835  0.0235 -0.0644
 1236BOLB   C2C29658  12.214  16.999  18.991 -0.1809 -0.2801  0.0050
 1236BOLB   C3C29659  11.752  17.067  18.825  0.2055  0.3019  0.3662
 1236BOLB   C4C29660  11.504  17.302  18.576 -0.0956  0.0800  0.0153
 1236BOLB   C1D29661  12.713  17.474  19.174  0.2276 -0.3144 -0.1348
 1236BOLB   C2D29662  12.493  17.639  18.781  0.1551  0.3152  0.0053
 1236BOLB   C3D29663  12.527  17.980  18.550 -0.4834 -0.1541  0.0583
 1236BOLB   C4D29664  12.666  18.202  18.155 -0.0622  0.1756 -0.1278
 1237BOLB   NC129665   4.332  28.088   9.352 -0.0732 -0.0915 -0.0064
 1237BOLB   PO129666   4.061  28.262   9.759 -0.1139 -0.3809  0.0325
 1237BOLB   GL129667   3.890  28.635   9.661  0.0900  0.2930 -0.0398
 1237BOLB   GL229668   3.720  28.803   9.392 -0.2458  0.0922 -0.0559
 1237BOLB   C1A29669   3.796  29.092   9.788 -0.0608 -0.0054 -0.3002
 1237BOLB   C2A29670   3.493  29.409   9.762 -0.1649 -0.2054 -0.0640
 1237BOLB   C3A29671   3.227  29.718   9.779 -0.2075  0.2501 -0.1354
 1237BOLB   C4A29672   2.876  30.110   9.923 -0.0244  0.4157  0.1293
 1237BOLB   C1B29673   3.689  29.239   9.348 -0.0822 -0.0679  0.2509
 1237BOLB   C2B29674   3.619  29.633   9.376  0.0311  0.0485  0.1703
 1237BOLB   C3B29675   3.721  30.178   9.333 -0.3243 -0.0376 -0.0729
 1237BOLB   C4B29676   3.524  30.557   9.494  0.2439  0.0186 -0.0848
 1237BOLB   NC229677   1.794  32.307   9.424 -0.3577 -0.1391  0.1000
 1237BOLB   PO229678   1.294  32.159   9.516  0.1828  0.2258  0.0391
 1237BOLB   GL329679   1.493  31.896   9.848  0.1212  0.2074  0.0095
 1237BOLB   GL429680   1.703  31.912  10.165 -0.0840 -0.1863  0.1754
 1237BOLB   C1C29681   1.703  31.486   9.854  0.0444 -0.0038  0.0011
 1237BOLB   C2C29682   1.901  31.068   9.856 -0.4579  0.1487  0.4933
 1237BOLB   C3C29683   2.286  30.810   9.757 -0.1506 -0.2326 -0.2130
 1237BOLB   C4C29684   2.583  30.419   9.771  0.1247 -0.0282 -0.0648
 1237BOLB   C1D29685   1.861  31.596  10.426 -0.1477  0.0389  0.0203
 1237BOLB   C2D29686   2.153  31.270  10.293 -0.1137  0.1335 -0.2271
 1237BOLB   C3D29687   2.438  30.981  10.210 -0.3180  0.0602 -0.2322
 1237BOLB   C4D29688   2.864  30.939  10.429  0.0781 -0.3402 -0.3617
 1238BOLB   NC129689  32.575  14.237   2.770 -0.3835 -0.0041  0.2225
 1238BOLB   PO129690  32.690  14.141   3.119 -0.1862  0.2597 -0.2784
 1238BOLB   GL129691  32.961  14.418   3.396 -0.0151 -0.4181  0.3228
 1238BOLB   GL229692  33.308  14.597   3.313 -0.0385  0.1464  0.2227
 1238BOLB   C1A29693  32.919  14.856   3.596  0.1853 -0.1503  0.0788
 1238BOLB   C2A29694  33.008  15.011   3.954  0.2895  0.0190 -0.0994
 1238BOLB   C3A29695  33.210  15.193   4.264  0.1414  0.1083 -0.0410
 1238BOLB   C4A29696  33.135  15.435   4.534  0.0698  0.0975 -0.0172
 1238BOLB   C1B29697  33.402  14.940   3.537 -0.0829 -0.0280 -0.1191
 1238BOLB   C2B29698  33.461  15.284   3.752  0.0336 -0.2948  0.0554
 1238BOLB   C3B29699  33.580  15.707   3.780 -0.0632  0.0460  0.1497
 1238BOLB   C4B29700  33.728  16.116   3.564 -0.0964 -0.0063  0.1307
 1238BOLB   NC229701  31.114  15.004   5.204 -0.0128  0.2495  0.1392
 1238BOLB   PO229702  31.401  14.970   5.286 -0.0158  0.0557 -0.5878
 1238BOLB   GL329703  31.660  15.283   5.390  0.0553 -0.1277 -0.0324
 1238BOLB   GL429704  31.812  15.226   5.633  0.1905  0.2281  0.2128
 1238BOLB   C1C29705  31.871  15.685   5.424 -0.2340  0.0899 -0.0501
 1238BOLB   C2C29706  32.167  15.710   5.164 -0.0870  0.1190  0.0323
 1238BOLB   C3C29707  32.573  15.604   5.034  0.0491 -0.3882 -0.2074
 1238BOLB   C4C29708  32.722  15.443   4.705  0.0688 -0.0589  0.2915
 1238BOLB   C1D29709  32.210  15.325   5.485  0.2831 -0.1287 -0.0037
 1238BOLB   C2D29710  32.521  15.664   5.506 -0.1147 -0.0573 -0.1359
 1238BOLB   C3D29711  32.807  15.836   5.767 -0.0013 -0.1436 -0.1344
 1238BOLB   C4D29712  32.892  15.704   6.168 -0.0126 -0.0077 -0.0230
 1239BOLB   NC129713   4.039  18.939   2.582 -0.2663  0.4177 -0.1869
 1239BOLB   PO129714   4.436  18.793   2.570 -0.1989  0.1408  0.3386
 1239BOLB   GL129715   4.170  18.517   2.288  0.1121 -0.1539  0.2095
 1239BOLB   GL229716   4.303  18.237   2.292  0.1205 -0.3408 -0.2644
 1239BOLB   C1A29717   3.874  18.323   2.038 -0.0091  0.0867  0.0820
 1239BOLB   C2A29718   3.639  18.221   1.599  0.1113  0.2305  0.1778
 1239BOLB   C3A29719   3.550  18.108   1.155 -0.0680  0.0879 -0.2786
 1239BOLB   C4A29720   3.640  18.390   0.795 -0.0541  0.2148 -0.2648
 1239BOLB   C1B29721   4.468  18.388   1.855 -0.3735 -0.2534 -0.0964
 1239BOLB   C2B29722   4.492  18.569   1.386 -0.1500 -0.3138 -0.4353
 1239BOLB   C3B29723   4.545  18.643   0.922 -0.2715 -0.0464 -0.0550
 1239BOLB   C4B29724   4.810  18.620   0.503  0.0027 -0.3769  0.0405
 1239BOLB   NC229725   4.486  19.325  -1.739  0.0859  0.1222  0.1260
 1239BOLB   PO229726   4.560  18.934  -1.430  0.1923  0.0958 -0.0464
 1239BOLB   GL329727   4.700  18.743  -1.068 -0.2510 -0.0532  0.0573
 1239BOLB   GL429728   4.894  18.470  -1.042 -0.2981  0.0284  0.0077
 1239BOLB   C1C29729   4.662  18.495  -0.639 -0.0553 -0.1421 -0.1337
 1239BOLB   C2C29730   4.325  18.543  -0.267 -0.0204 -0.1695  0.1590
 1239BOLB   C3C29731   4.061  18.670   0.024  0.0288  0.0891 -0.1731
 1239BOLB   C4C29732   3.852  18.528   0.459 -0.0594 -0.0846  0.1637
 1239BOLB   C1D29733   5.108  18.349  -0.803 -0.0717 -0.1661  0.2080
 1239BOLB   C2D29734   5.187  18.483  -0.447 -0.0702  0.1870 -0.1731
 1239BOLB   C3D29735   5.605  18.515  -0.124 -0.1479  0.3281 -0.3244
 1239BOLB   C4D29736   5.805  18.583   0.252  0.0516  0.2196  0.2891
 1240BOLB   NC129737   5.748  21.735   2.540 -0.0987  0.3552  0.1261
 1240BOLB   PO129738   6.174  21.631   2.637 -0.0374  0.0342  0.0235
 1240BOLB   GL129739   6.265  21.425   2.123  0.0766 -0.3721  0.0810
 1240BOLB   GL229740   6.594  21.404   2.065 -0.0322 -0.0602  0.3551
 1240BOLB   C1A29741   6.133  21.632   1.718 -0.0773  0.1160 -0.0821
 1240BOLB   C2A29742   5.963  21.722   1.274 -0.1624  0.3255  0.2222
 1240BOLB   C3A29743   5.741  21.538   0.808  0.1797  0.3015  0.1199
 1240BOLB   C4A29744   5.655  21.477   0.456  0.1635  0.3045 -0.0472
 1240BOLB   C1B29745   6.698  21.507   1.606 -0.1471  0.1161 -0.5250
 1240BOLB   C2B29746   6.913  21.488   1.243 -0.1177  0.3489 -0.0161
 1240BOLB   C3B29747   7.090  21.313   0.859  0.3279 -0.1500  0.0638
 1240BOLB   C4B29748   7.371  21.581   0.659  0.3173  0.3267  0.2296
 1240BOLB   NC229749   4.951  21.153  -1.803 -0.3409  0.1079  0.0242
 1240BOLB   PO229750   4.624  21.192  -1.569 -0.0702 -0.1237 -0.1283
 1240BOLB   GL329751   4.935  21.293  -1.273  0.1172  0.1488 -0.3400
 1240BOLB   GL429752   4.847  21.591  -1.253  0.1250  0.1107 -0.2210
 1240BOLB   C1C29753   5.148  21.240  -0.916 -0.0604  0.0413  0.1760
 1240BOLB   C2C29754   5.255  21.114  -0.546  0.5385  0.0098  0.0467
 1240BOLB   C3C29755   5.496  21.213  -0.280 -0.0632  0.0853 -0.0302
 1240BOLB   C4C29756   5.626  21.481  -0.002 -0.0986  0.2518 -0.2500
 1240BOLB   C1D29757   4.588  21.714  -0.961 -0.3785 -0.2188 -0.1519
 1240BOLB   C2D29758   4.610  22.065  -0.744  0.0536  0.4414  0.1478
 1240BOLB   C3D29759   4.726  22.468  -0.656  0.0690  0.1120 -0.2199
 1240BOLB   C4D29760   5.049  22.664  -0.575  0.0496  0.1831 -0.2479
 1241BOLB   NC129761  14.121  19.627  13.026  0.3514 -0.0109 -0.2699
 1241BOLB   PO129762  14.195  20.042  13.078  0.2996  0.1224  0.0857
 1241BOLB   GL129763  14.578  19.754  13.014 -0.3436  0.0513  0.0446
 1241BOLB   GL229764  14.874  19.864  12.840 -0.3921 -0.0266  0.1005
 1241BOLB   C1A29765  14.980  19.516  13.134 -0.1710  0.3693 -0.1557
 1241BOLB   C2A29766  15.116  19.344  13.554  0.1775 -0.1794  0.0654
 1241BOLB   C3A29767  15.360  19.304  13.946 -0.2839  0.2595 -0.1591
 1241BOLB   C4A29768  15.418  19.116  14.392 -0.1188 -0.0233 -0.1962
 1241BOLB   C1B29769  15.298  19.796  12.917  0.2542 -0.0079  0.1361
 1241BOLB   C2B29770  15.488  19.427  13.171  0.0929  0.0175 -0.1505
 1241BOLB   C3B29771  15.784  19.132  13.139  0.0750  0.2552 -0.0374
 1241BOLB   C4B29772  15.708  18.737  13.036  0.3025  0.0481  0.2532
 1241BOLB   NC229773  16.457  18.876  17.044 -0.3540  0.3973  0.0131
 1241BOLB   PO229774  16.360  18.845  16.572 -0.0064 -0.0750 -0.1869
 1241BOLB   GL329775  16.007  18.802  16.390  0.3022 -0.0329 -0.3597
 1241BOLB   GL429776  15.738  18.613  16.509 -0.0005 -0.2084 -0.0720
 1241BOLB   C1C29777  15.816  18.706  16.041  0.0279 -0.0639  0.2502
 1241BOLB   C2C29778  15.692  19.020  15.641 -0.2388 -0.1296  0.1837
 1241BOLB   C3C29779  15.613  18.937  15.159 -0.2663 -0.1568  0.2651
 1241BOLB   C4C29780  15.425  18.944  14.781 -0.1830 -0.2050 -0.1272
 1241BOLB   C1D29781  15.271  18.526  16.581 -0.3103  0.1888  0.0936
 1241BOLB   C2D29782  14.883  18.449  16.398 -0.1066  0.0371 -0.2074
 1241BOLB   C3D29783  14.597  18.653  16.444  0.2226  0.1274  0.0950
 1241BOLB   C4D29784  14.249  18.967  16.430 -0.0836  0.0349  0.2455
 1242BOLB   NC129785  13.877  16.654   8.997 -0.2357 -0.1511 -0.2177
 1242BOLB   PO129786  13.890  16.891   9.387  0.0570 -0.2333  0.0157
 1242BOLB   GL129787  14.178  16.707   9.517 -0.1801  0.0407  0.0180
 1242BOLB   GL229788  14.276  16.415   9.318 -0.3390 -0.4559  0.0088
 1242BOLB   C1A29789  14.667  16.420   9.627 -0.2531  0.0207 -0.2584
 1242BOLB   C2A29790  15.136  16.329   9.539 -0.0122  0.0656  0.0925
 1242BOLB   C3A29791  15.522  15.972   9.417 -0.0420 -0.1300  0.2223
 1242BOLB   C4A29792  15.634  15.530   9.286  0.1132 -0.2664 -0.0311
 1242BOLB   C1B29793  14.527  16.050   9.339  0.1311  0.1821  0.0845
 1242BOLB   C2B29794  15.007  15.894   9.314  0.2196 -0.0614 -0.1634
 1242BOLB   C3B29795  15.253  15.733   9.704  0.0825 -0.0370  0.0709
 1242BOLB   C4B29796  15.478  15.645  10.046  0.3095  0.1424 -0.1054
 1242BOLB   NC229797  16.019  13.056   9.294 -0.2079 -0.4279 -0.1520
 1242BOLB   PO229798  16.162  13.174   9.747 -0.2720 -0.1291 -0.1044
 1242BOLB   GL329799  16.063  13.642   9.892 -0.0504 -0.1442 -0.0759
 1242BOLB   GL429800  15.713  13.689   9.923 -0.2896  0.1734 -0.1943
 1242BOLB   C1C29801  15.920  14.034   9.656  0.0380 -0.1551  0.1807
 1242BOLB   C2C29802  15.943  14.331   9.388 -0.1180  0.2250 -0.3280
 1242BOLB   C3C29803  15.729  14.659   9.218 -0.1879  0.0450  0.1973
 1242BOLB   C4C29804  15.747  15.076   9.348 -0.0168 -0.2370 -0.2848
 1242BOLB   C1D29805  15.394  14.065   9.774 -0.0581  0.0417  0.2053
 1242BOLB   C2D29806  15.183  14.501   9.866 -0.0265 -0.2631  0.2930
 1242BOLB   C3D29807  14.932  14.926   9.737 -0.1382 -0.0391 -0.0656
 1242BOLB   C4D29808  14.970  15.448   9.912  0.1595  0.4552 -0.0554
 1243BOLB   NC129809  11.514  24.685   5.211 -0.0045  0.3319  0.0385
 1243BOLB   PO129810  11.980  24.607   4.984  0.2598 -0.0860  0.0213
 1243BOLB   GL129811  12.436  24.545   4.858  0.0858 -0.0599 -0.1583
 1243BOLB   GL229812  12.567  24.374   4.639  0.2912  0.1447  0.0911
 1243BOLB   C1A29813  12.829  24.732   4.550 -0.1051 -0.1485  0.1668
 1243BOLB   C2A29814  13.027  24.829   4.115  0.1602 -0.0297  0.1017
 1243BOLB   C3A29815  13.315  25.143   3.967  0.4995 -0.0217 -0.0460
 1243BOLB   C4A29816  13.674  25.378   3.760  0.0660  0.5663  0.1018
 1243BOLB   C1B29817  12.594  24.307   4.176 -0.3542  0.4347  0.2690
 1243BOLB   C2B29818  12.614  24.128   3.835  0.0169 -0.0729 -0.2203
 1243BOLB   C3B29819  12.591  24.145   3.419 -0.3964  0.1115 -0.0923
 1243BOLB   C4B29820  12.603  23.981   3.002 -0.1797  0.1399 -0.1703
 1243BOLB   NC229821  15.075  26.339   3.159 -0.1571 -0.3884  0.1424
 1243BOLB   PO229822  15.414  26.348   3.236 -0.0561 -0.1279  0.2970
 1243BOLB   GL329823  15.302  26.048   3.597 -0.1359  0.4349  0.1423
 1243BOLB   GL429824  15.475  26.035   3.920  0.0054 -0.0200 -0.0444
 1243BOLB   C1C29825  15.052  25.787   3.583 -0.2827 -0.0594 -0.0611
 1243BOLB   C2C29826  14.644  25.787   3.699 -0.1743 -0.2190 -0.4060
 1243BOLB   C3C29827  14.313  25.598   3.451  0.0402  0.1189  0.0863
 1243BOLB   C4C29828  13.851  25.457   3.439 -0.3010  0.2936  0.1098
 1243BOLB   C1D29829  15.456  25.637   3.915 -0.3351  0.2895 -0.0191
 1243BOLB   C2D29830  15.291  25.273   3.843 -0.1568 -0.2376  0.4607
 1243BOLB   C3D29831  15.130  24.943   3.532  0.4739  0.3971  0.0316
 1243BOLB   C4D29832  14.722  24.805   3.444 -0.0671 -0.0841 -0.1860
 1244BOLB   NC129833   8.633  23.177   2.999 -0.1235 -0.1363  0.2800
 1244BOLB   PO129834   8.535  23.618   3.097  0.1980  0.0343  0.1600
 1244BOLB   GL129835   8.725  23.702   2.721 -0.1378 -0.0651 -0.2154
 1244BOLB   GL229836   8.901  23.448   2.680  0.2087  0.1224  0.0436
 1244BOLB   C1A29837   8.928  24.009   2.378 -0.2311  0.0464 -0.1136
 1244BOLB   C2A29838   9.072  24.193   2.022 -0.0007 -0.0947  0.2946
 1244BOLB   C3A29839   9.208  24.136   1.597  0.1562  0.1783  0.2435
 1244BOLB   C4A29840   9.145  24.227   1.261  0.2048 -0.2711 -0.0529
 1244BOLB   C1B29841   8.685  23.498   2.205  0.5016 -0.0490 -0.0021
 1244BOLB   C2B29842   8.833  23.822   1.847  0.0286 -0.2668 -0.2024
 1244BOLB   C3B29843   8.682  24.128   1.574 -0.0195  0.1351  0.0130
 1244BOLB   C4B29844   8.574  24.410   1.343 -0.2168 -0.0096  0.1041
 1244BOLB   NC229845   8.414  25.621  -0.445 -0.1976  0.1422 -0.0396
 1244BOLB   PO229846   8.549  25.225  -0.472 -0.3076  0.0003 -0.2277
 1244BOLB   GL329847   8.640  25.120  -0.170 -0.1429 -0.1449 -0.2058
 1244BOLB   GL429848   8.971  25.005  -0.153 -0.0607  0.0586 -0.0642
 1244BOLB   C1C29849   8.636  24.980   0.328 -0.0757 -0.0239  0.4237
 1244BOLB   C2C29850   8.820  24.702   0.505  0.0379  0.0883 -0.1280
 1244BOLB   C3C29851   8.927  24.356   0.711  0.2061  0.0987  0.2598
 1244BOLB   C4C29852   8.816  24.098   1.035  0.0813  0.0665  0.3018
 1244BOLB   C1D29853   9.035  24.724   0.054 -0.0168 -0.1204 -0.0188
 1244BOLB   C2D29854   9.284  24.637   0.331 -0.0959  0.2999  0.0169
 1244BOLB   C3D29855   9.431  24.395   0.770 -0.1264  0.0906  0.1760
 1244BOLB   C4D29856   9.876  24.229   0.932 -0.1964  0.1180 -0.0151
 1245BOLB   NC129857  12.716  22.861  15.175  0.0423  0.1345  0.1729
 1245BOLB   PO129858  13.028  23.084  15.126 -0.3998 -0.1923 -0.1767
 1245BOLB   GL129859  13.411  22.968  15.339  0.0282 -0.0981 -0.0653
 1245BOLB   GL229860  13.671  23.005  15.040 -0.1778  0.1019  0.1297
 1245BOLB   C1A29861  13.837  22.981  15.583  0.1998  0.0289  0.4164
 1245BOLB   C2A29862  14.170  22.757  15.730 -0.2891  0.0146 -0.2515
 1245BOLB   C3A29863  14.350  22.868  16.176  0.1075  0.0122  0.3293
 1245BOLB   C4A29864  14.662  22.655  16.409  0.0085 -0.1094  0.0455
 1245BOLB   C1B29865  14.090  22.963  15.139 -0.2036  0.3032 -0.0096
 1245BOLB   C2B29866  14.447  23.090  15.428 -0.2303 -0.0298 -0.0838
 1245BOLB   C3B29867  14.656  23.035  15.791 -0.3988  0.0138  0.0952
 1245BOLB   C4B29868  15.022  23.012  15.978 -0.1455  0.2560  0.0852
 1245BOLB   NC229869  16.738  21.316  17.709 -0.2179  0.0261 -0.3171
 1245BOLB   PO229870  16.642  21.712  17.860 -0.0936  0.0127  0.0268
 1245BOLB   GL329871  16.256  21.569  17.641  0.0052 -0.0858 -0.2432
 1245BOLB   GL429872  15.956  21.332  17.728 -0.2503 -0.1528  0.1414
 1245BOLB   C1C29873  15.819  21.780  17.513 -0.5461  0.0168 -0.0563
 1245BOLB   C2C29874  15.375  21.867  17.341  0.2941 -0.1652 -0.0423
 1245BOLB   C3C29875  14.983  22.213  17.123  0.1301  0.0067  0.2630
 1245BOLB   C4C29876  14.716  22.388  16.754  0.1426  0.2853  0.5204
 1245BOLB   C1D29877  15.577  21.285  17.435 -0.1455 -0.0764  0.1504
 1245BOLB   C2D29878  15.301  21.380  17.167 -0.1487 -0.1248  0.0765
 1245BOLB   C3D29879  14.953  21.613  17.133  0.1102  0.0576  0.0243
 1245BOLB   C4D29880  14.481  21.748  17.244 -0.1081 -0.0028 -0.0029
 1246BOLB   NC129881  12.822  26.730   9.980  0.2266  0.1380 -0.5892
 1246BOLB   PO129882  12.846  26.531   9.582  0.3722  0.1706  0.0049
 1246BOLB   GL129883  12.996  26.993   9.435 -0.2148  0.4887  0.0465
 1246BOLB   GL229884  13.077  26.898   9.214  0.3552  0.0467  0.0355
 1246BOLB   C1A29885  13.096  27.276   9.743 -0.0234 -0.1666 -0.1932
 1246BOLB   C2A29886  13.421  27.528   9.908 -0.0113  0.0436 -0.0220
 1246BOLB   C3A29887  13.533  27.742  10.194 -0.0924  0.3439 -0.0965
 1246BOLB   C4A29888  13.846  27.861  10.272 -0.0575 -0.1980  0.4151
 1246BOLB   C1B29889  13.465  27.146   9.151 -0.1943 -0.0638  0.0039
 1246BOLB   C2B29890  13.941  27.262   9.176 -0.1400 -0.1833 -0.0764
 1246BOLB   C3B29891  14.333  27.290   9.284  0.0194 -0.3523 -0.2002
 1246BOLB   C4B29892  14.682  27.211   9.082  0.0211 -0.1957  0.3160
 1246BOLB   NC229893  16.415  28.940  11.402  0.1608  0.0501  0.1984
 1246BOLB   PO229894  16.120  29.111  11.134 -0.2279 -0.0833 -0.0556
 1246BOLB   GL329895  15.716  28.982  10.825  0.0049 -0.2120  0.1600
 1246BOLB   GL429896  15.492  29.024  11.097  0.1702  0.0487  0.5649
 1246BOLB   C1C29897  15.401  28.680  10.646  0.1074 -0.1583 -0.1372
 1246BOLB   C2C29898  14.931  28.485  10.721  0.0513 -0.2064 -0.0285
 1246BOLB   C3C29899  14.499  28.322  10.650 -0.0730  0.2518  0.4712
 1246BOLB   C4C29900  14.268  27.949  10.569 -0.1528 -0.2129 -0.1869
 1246BOLB   C1D29901  15.167  28.736  11.090  0.1737 -0.1409  0.0626
 1246BOLB   C2D29902  14.676  28.718  11.079 -0.1388 -0.0745  0.2741
 1246BOLB   C3D29903  14.503  28.318  11.160  0.1460  0.0910 -0.1565
 1246BOLB   C4D29904  14.438  27.919  11.125  0.0121  0.0933 -0.1380
 1247BOLB   NC129905  38.099  24.813  11.184  0.0898  0.0676  0.2959
 1247BOLB   PO129906  37.592  24.998  11.272 -0.0066  0.2573  0.0669
 1247BOLB   GL129907  37.319  25.192  11.040  0.1820 -0.0225 -0.0496
 1247BOLB   GL229908  37.342  25.165  10.716  0.1318 -0.0349 -0.2080
 1247BOLB   C1A29909  37.005  25.546  10.764 -0.1305  0.1797  0.3100
 1247BOLB   C2A29910  36.772  25.601  10.284 -0.3407 -0.1548 -0.0678
 1247BOLB   C3A29911  36.738  25.991  10.072 -0.1274  0.0276  0.2536
 1247BOLB   C4A29912  36.526  26.408  10.122 -0.0777 -0.1984 -0.2423
 1247BOLB   C1B29913  36.890  25.080  10.882  0.1802 -0.1462 -0.1318
 1247BOLB   C2B29914  36.485  25.084  11.102  0.1884 -0.2199 -0.1741
 1247BOLB   C3B29915  36.087  24.959  11.352  0.2860  0.1097  0.0742
 1247BOLB   C4B29916  35.676  24.969  11.502 -0.0637  0.0384 -0.1819
 1247BOLB   NC229917  35.028  27.963  10.796 -0.3005  0.1260  0.0214
 1247BOLB   PO229918  34.960  28.016  10.388  0.0369 -0.0252  0.1274
 1247BOLB   GL329919  35.181  27.710  10.286 -0.0136  0.0027 -0.1546
 1247BOLB   GL429920  35.249  27.900   9.974 -0.0339  0.4014  0.0707
 1247BOLB   C1C29921  35.443  27.416  10.016  0.2830  0.1312 -0.0231
 1247BOLB   C2C29922  35.665  27.023   9.974 -0.2465 -0.3673  0.0267
 1247BOLB   C3C29923  36.168  26.926   9.937  0.0422 -0.0882 -0.0774
 1247BOLB   C4C29924  36.302  26.679  10.120  0.0399 -0.1945 -0.5448
 1247BOLB   C1D29925  35.462  27.718   9.524  0.2432 -0.0573  0.0848
 1247BOLB   C2D29926  35.754  27.492   9.572  0.0111 -0.0489  0.1647
 1247BOLB   C3D29927  35.968  27.406   9.219 -0.0684  0.0404 -0.0976
 1247BOLB   C4D29928  36.237  27.055   8.957 -0.6569  0.0728 -0.2898
 1248BOLB   NC129929   3.696  18.177   3.117 -0.0162  0.0154 -0.2736
 1248BOLB   PO129930   3.325  17.927   3.248  0.0071 -0.1437  0.2755
 1248BOLB   GL129931   3.097  17.931   2.911  0.0554 -0.0127 -0.1752
 1248BOLB   GL229932   3.211  18.320   2.661  0.0646 -0.4160 -0.2548
 1248BOLB   C1A29933   3.027  17.842   2.501 -0.1856  0.4115  0.2300
 1248BOLB   C2A29934   3.136  17.678   2.066 -0.0405 -0.0855 -0.3683
 1248BOLB   C3A29935   3.002  17.445   1.774  0.1910 -0.1343 -0.2105
 1248BOLB   C4A29936   2.865  17.109   1.844  0.0592  0.3367 -0.0609
 1248BOLB   C1B29937   2.905  18.349   2.324  0.0544 -0.0734 -0.0043
 1248BOLB   C2B29938   2.783  17.960   2.088  0.0906 -0.0621 -0.1954
 1248BOLB   C3B29939   2.616  17.841   1.658  0.1112  0.2602  0.0838
 1248BOLB   C4B29940   2.756  17.715   1.311  0.0516  0.1205 -0.3862
 1248BOLB   NC229941   2.895  15.712  -0.617 -0.1410  0.0268  0.1166
 1248BOLB   PO229942   2.844  15.556  -0.127  0.0071  0.4036 -0.0509
 1248BOLB   GL329943   2.757  15.780   0.277 -0.0027  0.0865 -0.1550
 1248BOLB   GL429944   2.805  15.632   0.493 -0.0313  0.0209  0.0327
 1248BOLB   C1C29945   2.544  16.102   0.411  0.3101 -0.0225  0.0382
 1248BOLB   C2C29946   2.613  16.291   0.873  0.0214 -0.3319 -0.2442
 1248BOLB   C3C29947   2.792  16.522   1.280  0.2023 -0.0875  0.0819
 1248BOLB   C4C29948   2.813  16.739   1.648 -0.0318 -0.1446 -0.2112
 1248BOLB   C1D29949   2.537  15.602   0.751  0.0014  0.3332 -0.0845
 1248BOLB   C2D29950   2.496  15.792   1.155  0.0762  0.0965  0.0621
 1248BOLB   C3D29951   2.545  15.824   1.583 -0.2904  0.2255 -0.3409
 1248BOLB   C4D29952   2.468  15.971   1.994 -0.1975  0.1738 -0.0069
 1249BOLB   NC129953  13.024  25.081  14.054 -0.1891 -0.1685  0.1868
 1249BOLB   PO129954  12.947  24.736  14.241 -0.2143 -0.1734 -0.0971
 1249BOLB   GL129955  13.237  25.045  14.512  0.2285 -0.1392  0.0195
 1249BOLB   GL229956  13.495  25.218  14.411 -0.0466  0.2661 -0.1256
 1249BOLB   C1A29957  13.541  25.081  14.897  0.0973  0.1251  0.0789
 1249BOLB   C2A29958  13.916  25.150  15.106  0.1906 -0.2829  0.1801
 1249BOLB   C3A29959  14.274  25.170  15.255 -0.1600  0.2086  0.4357
 1249BOLB   C4A29960  14.732  25.031  15.332 -0.0011  0.0982  0.1742
 1249BOLB   C1B29961  13.880  25.315  14.544 -0.2727  0.0931 -0.0465
 1249BOLB   C2B29962  14.193  25.518  14.895 -0.0998 -0.0168  0.0651
 1249BOLB   C3B29963  14.420  25.695  14.919  0.2226  0.1129  0.1609
 1249BOLB   C4B29964  14.647  25.668  15.238 -0.1072  0.0003  0.2012
 1249BOLB   NC229965  16.868  26.355  15.644  0.1595  0.0389  0.4415
 1249BOLB   PO229966  16.670  26.204  15.900  0.0386  0.1440  0.1723
 1249BOLB   GL329967  16.196  26.403  15.794  0.3065  0.1008  0.0445
 1249BOLB   GL429968  16.139  26.563  15.518  0.1118 -0.2274  0.4427
 1249BOLB   C1C29969  15.824  26.189  15.677 -0.0709 -0.1610  0.2833
 1249BOLB   C2C29970  15.537  25.829  15.525  0.3668 -0.0920  0.5329
 1249BOLB   C3C29971  15.395  25.395  15.363 -0.2606 -0.0301 -0.5688
 1249BOLB   C4C29972  15.108  25.081  15.342  0.1462 -0.0225 -0.0002
 1249BOLB   C1D29973  15.832  26.318  15.182 -0.0341  0.3457  0.2899
 1249BOLB   C2D29974  15.466  26.207  15.147 -0.0263 -0.0438  0.0095
 1249BOLB   C3D29975  15.271  25.952  14.747 -0.3652  0.0005  0.1017
 1249BOLB   C4D29976  15.286  25.514  14.587 -0.0852  0.1232  0.0776
 1250BOLB   NC129977  18.087  18.865   3.389  0.1726  0.0665  0.2738
 1250BOLB   PO129978  17.628  18.839   3.364 -0.2417  0.2088  0.0881
 1250BOLB   GL129979  17.227  18.674   3.287 -0.3187  0.3599  0.0144
 1250BOLB   GL229980  17.195  18.365   3.294 -0.1109  0.1747  0.3415
 1250BOLB   C1A29981  16.742  18.746   3.283  0.0572  0.1378 -0.0690
 1250BOLB   C2A29982  16.585  19.170   3.493  0.1626  0.0539  0.0157
 1250BOLB   C3A29983  16.585  19.360   3.882  0.1060 -0.1167  0.2849
 1250BOLB   C4A29984  16.623  19.485   4.300 -0.1364 -0.0700  0.2891
 1250BOLB   C1B29985  17.035  18.296   3.813 -0.2476  0.1664  0.1828
 1250BOLB   C2B29986  16.732  18.203   4.075 -0.1006  0.1158 -0.0137
 1250BOLB   C3B29987  16.433  18.254   4.482  0.1622 -0.0373  0.2428
 1250BOLB   C4B29988  16.647  18.289   4.804 -0.3627 -0.3566 -0.1180
 1250BOLB   NC229989  18.762  20.092   4.079  0.0694 -0.2729 -0.0723
 1250BOLB   PO229990  18.443  20.496   4.166  0.1475  0.2354  0.0801
 1250BOLB   GL329991  18.061  20.527   4.202  0.1171  0.1323  0.3674
 1250BOLB   GL429992  18.127  20.558   4.623 -0.0172  0.0338 -0.0500
 1250BOLB   C1C29993  17.716  20.414   4.343 -0.1443 -0.3048 -0.1229
 1250BOLB   C2C29994  17.284  20.477   4.321 -0.0923  0.0345  0.0970
 1250BOLB   C3C29995  16.914  20.229   4.329 -0.2262 -0.0026 -0.1564
 1250BOLB   C4C29996  16.820  19.850   4.405  0.0651 -0.0032 -0.0348
 1250BOLB   C1D29997  17.863  20.609   4.977 -0.1007 -0.2833 -0.1238
 1250BOLB   C2D29998  17.463  20.625   5.194  0.0126  0.1828 -0.1726
 1250BOLB   C3D29999  17.080  20.506   5.245 -0.1704 -0.1183  0.2296
 1250BOLB   C4D30000  16.652  20.598   5.249 -0.0852 -0.0702  0.0374
 1251BOLB   NC130001   3.021  20.681  17.648 -0.1451  0.0979 -0.0233
 1251BOLB   PO130002   2.667  20.616  17.875 -0.2476 -0.3715  0.2089
 1251BOLB   GL130003   2.630  20.732  18.262 -0.1525  0.2491 -0.0754
 1251BOLB   GL230004   2.622  20.411  18.523 -0.2476 -0.3679 -0.0064
 1251BOLB   C1A30005   2.676  20.867  18.742  0.1786  0.2057  0.0824
 1251BOLB   C2A30006   2.388  21.019  19.008  0.2445 -0.2795  0.4543
 1251BOLB   C3A30007   2.154  21.267  19.260  0.1972 -0.0001  0.1078
 1251BOLB   C4A30008   1.806  21.359  19.501 -0.0673  0.0077 -0.0625
 1251BOLB   C1B30009   2.291  20.565  18.786 -0.1285  0.0354 -0.1680
 1251BOLB   C2B30010   2.144  20.580  19.239 -0.0340  0.0081 -0.2635
 1251BOLB   C3B30011   2.063  20.473  19.642 -0.2059  0.2896 -0.0624
 1251BOLB   C4B30012   2.261  20.448  20.040  0.2361  0.3282 -0.2385
 1251BOLB   NC230013   0.951  22.553  21.367 -0.2514 -0.4718  0.2465
 1251BOLB   PO230014   0.609  22.645  21.139 -0.0684  0.0471 -0.0558
 1251BOLB   GL330015   0.776  22.408  20.871  0.2758  0.1413 -0.2230
 1251BOLB   GL430016   1.046  22.293  20.965  0.0368 -0.0630 -0.2818
 1251BOLB   C1C30017   0.849  22.264  20.476  0.0287  0.0310  0.1586
 1251BOLB   C2C30018   1.088  21.825  20.222  0.2304 -0.1596  0.1762
 1251BOLB   C3C30019   1.318  21.498  20.045  0.1921  0.3763 -0.0920
 1251BOLB   C4C30020   1.541  21.300  19.743  0.0655 -0.2993  0.0172
 1251BOLB   C1D30021   1.294  21.953  20.649  0.4160 -0.1284 -0.1658
 1251BOLB   C2D30022   1.478  21.617  20.491 -0.3085  0.1519  0.1782
 1251BOLB   C3D30023   1.763  21.301  20.171  0.1203  0.0548  0.4012
 1251BOLB   C4D30024   2.156  21.165  20.219 -0.0833  0.2115 -0.0194
 1252BOLB   NC130025  13.481  24.099  10.795 -0.2571 -0.1583  0.1105
 1252BOLB   PO130026  13.886  24.393  10.616  0.1871 -0.1660  0.0367
 1252BOLB   GL130027  14.264  24.400  10.943  0.1338 -0.3669  0.2468
 1252BOLB   GL230028  14.373  24.652  10.742  0.0681  0.1524 -0.1622
 1252BOLB   C1A30029  14.684  24.497  11.103  0.0277 -0.2104  0.2245
 1252BOLB   C2A30030  14.982  24.777  11.387 -0.1291 -0.0353  0.3299
 1252BOLB   C3A30031  15.290  25.034  11.425  0.0651  0.3568 -0.2544
 1252BOLB   C4A30032  15.703  25.201  11.404 -0.6325 -0.0928  0.1748
 1252BOLB   C1B30033  14.575  24.943  10.939 -0.0849  0.1003 -0.4793
 1252BOLB   C2B30034  15.034  25.128  10.919 -0.0943  0.0073  0.0343
 1252BOLB   C3B30035  15.331  25.399  11.081  0.2091 -0.0039  0.2798
 1252BOLB   C4B30036  15.654  25.526  10.944 -0.0684  0.2360 -0.1123
 1252BOLB   NC230037  17.052  27.408  11.332  0.0346 -0.1437 -0.5497
 1252BOLB   PO230038  17.257  27.111  11.153  0.0802 -0.0035 -0.2006
 1252BOLB   GL330039  16.891  26.890  11.422  0.0538  0.3054 -0.0909
 1252BOLB   GL430040  16.604  27.089  11.464  0.0552 -0.0613 -0.2036
 1252BOLB   C1C30041  16.561  26.643  11.426  0.2468  0.3969  0.1444
 1252BOLB   C2C30042  16.459  26.225  11.234  0.1780 -0.2196  0.1064
 1252BOLB   C3C30043  16.307  25.817  11.503  0.1162 -0.1864 -0.0636
 1252BOLB   C4C30044  16.103  25.470  11.500  0.0128  0.0121  0.0597
 1252BOLB   C1D30045  16.178  27.102  11.292  0.0327 -0.0562  0.1663
 1252BOLB   C2D30046  15.778  26.982  11.207  0.5430 -0.3133  0.0000
 1252BOLB   C3D30047  15.610  26.811  10.897  0.3196 -0.0465 -0.5270
 1252BOLB   C4D30048  15.416  26.524  10.622  0.2108  0.1690 -0.1706
 1253BOLB   NC130049  10.555  20.536  21.959 -0.1697 -0.1805  0.1662
 1253BOLB   PO130050  10.990  20.654  22.117 -0.3364 -0.3784  0.0533
 1253BOLB   GL130051  11.051  20.514  21.664 -0.0898  0.0742  0.1006
 1253BOLB   GL230052  10.831  20.640  21.344 -0.0295  0.2034 -0.0353
 1253BOLB   C1A30053  11.235  20.243  21.250 -0.0128  0.0830  0.1214
 1253BOLB   C2A30054  11.303  20.219  20.828 -0.1687  0.0347  0.2205
 1253BOLB   C3A30055  11.194  20.494  20.440  0.2709  0.3995 -0.2076
 1253BOLB   C4A30056  11.127  20.914  20.235  0.0778 -0.0725 -0.1937
 1253BOLB   C1B30057  11.042  20.653  21.026  0.1384 -0.0219  0.0086
 1253BOLB   C2B30058  11.201  20.989  20.803  0.0059 -0.3397  0.2349
 1253BOLB   C3B30059  11.195  21.303  20.500 -0.1840  0.0702  0.0511
 1253BOLB   C4B30060  11.292  21.466  20.146  0.1416 -0.4066  0.3095
 1253BOLB   NC230061   9.733  21.412  17.717 -0.0209 -0.0601 -0.1109
 1253BOLB   PO230062   9.494  21.465  18.142  0.0928  0.4643  0.1180
 1253BOLB   GL330063   9.736  21.581  18.569 -0.0926 -0.1679  0.1993
 1253BOLB   GL430064  10.101  21.671  18.543  0.0330 -0.0353 -0.1506
 1253BOLB   C1C30065   9.975  21.617  18.990  0.1608  0.0320  0.0345
 1253BOLB   C2C30066  10.195  21.557  19.454 -0.0258 -0.2909  0.3223
 1253BOLB   C3C30067  10.510  21.367  19.764 -0.0402 -0.1955 -0.0780
 1253BOLB   C4C30068  10.898  21.150  19.833  0.1863 -0.3447 -0.2060
 1253BOLB   C1D30069  10.432  21.718  18.819  0.0261 -0.0780  0.0926
 1253BOLB   C2D30070  10.836  21.512  18.723  0.1362  0.1647 -0.0063
 1253BOLB   C3D30071  10.972  21.286  18.954 -0.0060  0.0195 -0.2720
 1253BOLB   C4D30072  10.989  21.035  19.362 -0.0584 -0.0241  0.0001
 1254BOLB   NC130073  12.545  17.057  13.132 -0.1607 -0.2027 -0.0830
 1254BOLB   PO130074  12.507  17.462  13.363  0.1554 -0.0655  0.0821
 1254BOLB   GL130075  12.858  17.289  13.468  0.4462 -0.1144  0.0252
 1254BOLB   GL230076  13.102  17.118  13.234 -0.1533  0.0468 -0.0289
 1254BOLB   C1A30077  13.257  17.147  13.731  0.0611 -0.1207 -0.1183
 1254BOLB   C2A30078  13.318  16.974  14.065 -0.1752 -0.0298  0.0029
 1254BOLB   C3A30079  13.670  16.750  14.100  0.0095 -0.0893 -0.0458
 1254BOLB   C4A30080  13.993  16.542  13.780  0.1409  0.1310 -0.0835
 1254BOLB   C1B30081  13.062  16.731  13.467  0.0396  0.0205  0.1114
 1254BOLB   C2B30082  13.000  16.481  13.850  0.0191  0.3301 -0.1263
 1254BOLB   C3B30083  13.212  16.389  14.138 -0.0811  0.0307  0.0810
 1254BOLB   C4B30084  13.620  16.211  14.144  0.1183 -0.0598 -0.0803
 1254BOLB   NC230085  15.466  14.924  14.509  0.0061  0.2189 -0.0843
 1254BOLB   PO230086  15.860  15.210  14.320 -0.0450  0.2170  0.0477
 1254BOLB   GL330087  15.433  15.378  14.338  0.0243 -0.0017  0.0736
 1254BOLB   GL430088  15.121  15.346  14.473 -0.1538  0.1476  0.0913
 1254BOLB   C1C30089  15.047  15.456  13.982  0.0256 -0.2662  0.1301
 1254BOLB   C2C30090  14.726  15.466  13.671  0.3821 -0.1850  0.0990
 1254BOLB   C3C30091  14.487  15.870  13.621 -0.0540  0.1387 -0.4510
 1254BOLB   C4C30092  14.217  16.180  13.710 -0.0762 -0.0225  0.0372
 1254BOLB   C1D30093  15.054  15.741  14.405  0.2506 -0.2337 -0.1181
 1254BOLB   C2D30094  14.724  15.990  14.483 -0.0418  0.0750  0.0432
 1254BOLB   C3D30095  14.444  16.227  14.563 -0.0898 -0.1665  0.1850
 1254BOLB   C4D30096  13.982  16.276  14.460  0.0522 -0.2053 -0.2398
 1255BOLB   NC130097   9.400  19.900  18.304  0.1815  0.2758 -0.1796
 1255BOLB   PO130098   9.347  20.326  18.349 -0.1532 -0.4232 -0.2497
 1255BOLB   GL130099   9.506  20.432  18.646  0.3160 -0.1298 -0.0419
 1255BOLB   GL230100   9.454  20.664  18.903  0.0615 -0.1747  0.0945
 1255BOLB   C1A30101   9.567  20.163  18.903 -0.2816 -0.0423  0.1157
 1255BOLB   C2A30102   9.621  20.243  19.407  0.0162 -0.2669 -0.0673
 1255BOLB   C3A30103   9.788  20.183  19.768 -0.0379 -0.0037  0.0231
 1255BOLB   C4A30104   9.867  20.171  20.212  0.1238  0.3442 -0.1233
 1255BOLB   C1B30105   9.447  20.681  19.328  0.2202 -0.0221 -0.1862
 1255BOLB   C2B30106   9.530  20.649  19.755 -0.2869  0.2126  0.1095
 1255BOLB   C3B30107   9.845  20.700  20.087 -0.1338 -0.0724 -0.0010
 1255BOLB   C4B30108  10.177  20.609  20.265 -0.2332  0.1406  0.1300
 1255BOLB   NC230109  10.594  18.873  22.088 -0.0823 -0.0383 -0.2345
 1255BOLB   PO230110  10.515  19.189  22.347 -0.6187  0.2425  0.1691
 1255BOLB   GL330111  10.594  19.435  21.910  0.0881  0.1267  0.0188
 1255BOLB   GL430112  10.390  19.228  21.729 -0.1386 -0.1759 -0.6680
 1255BOLB   C1C30113  10.506  19.663  21.528  0.1113  0.1833  0.2072
 1255BOLB   C2C30114  10.325  19.915  21.194 -0.3122  0.2808  0.3529
 1255BOLB   C3C30115   9.982  20.105  20.966 -0.0980 -0.0204  0.0212
 1255BOLB   C4C30116   9.931  20.202  20.609 -0.0455  0.1120 -0.1911
 1255BOLB   C1D30117  10.335  19.240  21.299 -0.2238  0.1557 -0.0043
 1255BOLB   C2D30118  10.529  19.312  20.816  0.0614 -0.2244 -0.1737
 1255BOLB   C3D30119  10.303  19.386  20.473 -0.0387  0.2750  0.1787
 1255BOLB   C4D30120   9.941  19.599  20.457 -0.0161 -0.1058 -0.1139
 1256BOLB   NC130121   7.750  18.494  17.900  0.1864 -0.1795  0.2420
 1256BOLB   PO130122   7.364  18.266  18.148  0.0767 -0.0070  0.2119
 1256BOLB   GL130123   7.182  18.267  18.516  0.0541  0.1336  0.0676
 1256BOLB   GL230124   7.518  18.359  18.658 -0.1431  0.1108 -0.5323
 1256BOLB   C1A30125   7.020  18.075  18.867 -0.0156  0.1714  0.1017
 1256BOLB   C2A30126   7.120  17.743  19.147 -0.3765  0.1438 -0.1055
 1256BOLB   C3A30127   7.385  17.405  19.349  0.1094  0.3352  0.1548
 1256BOLB   C4A30128   7.485  17.201  19.766  0.0277 -0.1249  0.1958
 1256BOLB   C1B30129   7.509  18.124  19.052  0.2342 -0.4219 -0.1590
 1256BOLB   C2B30130   7.639  17.970  19.269  0.2136 -0.0542  0.1511
 1256BOLB   C3B30131   7.743  17.711  19.649 -0.2415 -0.2552 -0.0337
 1256BOLB   C4B30132   7.827  17.492  20.030 -0.0252  0.0097  0.1080
 1256BOLB   NC230133   6.014  16.268  21.842 -0.1892  0.1227  0.1448
 1256BOLB   PO230134   6.382  16.474  21.731  0.0412  0.2991 -0.1723
 1256BOLB   GL330135   6.497  16.746  21.468  0.0626 -0.1770 -0.1162
 1256BOLB   GL430136   6.430  17.091  21.472  0.2738  0.2785 -0.1939
 1256BOLB   C1C30137   6.768  16.801  21.174  0.0608 -0.1699 -0.2422
 1256BOLB   C2C30138   7.147  16.926  21.042 -0.2954  0.1283 -0.2031
 1256BOLB   C3C30139   7.315  17.026  20.588  0.0970 -0.0267 -0.0536
 1256BOLB   C4C30140   7.510  16.977  20.096  0.0595 -0.0549 -0.1072
 1256BOLB   C1D30141   6.426  17.305  21.124 -0.1162  0.0765 -0.1855
 1256BOLB   C2D30142   6.269  17.628  20.902 -0.1450 -0.1086  0.0091
 1256BOLB   C3D30143   6.026  17.707  20.559 -0.0378  0.2611  0.0539
 1256BOLB   C4D30144   6.021  17.944  20.179 -0.0377 -0.1263 -0.2971
 1257BOLB   NC130145   8.099  18.111  17.705  0.1017  0.2815  0.1273
 1257BOLB   PO130146   8.312  18.438  17.962  0.1875  0.2530 -0.1377
 1257BOLB   GL130147   8.393  18.079  18.128  0.1691 -0.0301 -0.1044
 1257BOLB   GL230148   8.776  18.066  18.165 -0.2113  0.1441  0.1847
 1257BOLB   C1A30149   8.397  17.922  18.576 -0.0185  0.0014  0.0858
 1257BOLB   C2A30150   8.441  17.488  18.768 -0.0465  0.1899  0.2578
 1257BOLB   C3A30151   8.543  17.175  19.169 -0.3621  0.1438  0.0530
 1257BOLB   C4A30152   9.006  17.105  19.237 -0.0058  0.0485 -0.1338
 1257BOLB   C1B30153   8.844  17.758  18.504  0.0593  0.3845 -0.0080
 1257BOLB   C2B30154   8.889  17.917  18.877 -0.0429  0.0420 -0.0917
 1257BOLB   C3B30155   8.936  18.074  19.288  0.0941  0.0498  0.0328
 1257BOLB   C4B30156   9.042  18.208  19.745 -0.0452  0.0965  0.1874
 1257BOLB   NC230157   9.341  17.451  21.725 -0.0125  0.1669  0.1315
 1257BOLB   PO230158   9.576  17.143  21.418  0.0667  0.1044 -0.1487
 1257BOLB   GL330159   9.582  17.105  21.042  0.0413  0.0958 -0.1538
 1257BOLB   GL430160   9.490  17.411  20.867 -0.0757 -0.1601 -0.2022
 1257BOLB   C1C30161   9.594  16.914  20.727  0.0298  0.4366 -0.2224
 1257BOLB   C2C30162   9.474  17.067  20.311  0.4448 -0.1055  0.0951
 1257BOLB   C3C30163   9.181  17.073  20.000  0.1593 -0.0886  0.0478
 1257BOLB   C4C30164   9.270  17.131  19.643  0.1566 -0.2443 -0.5526
 1257BOLB   C1D30165   9.150  17.140  20.698  0.0120  0.1224  0.0407
 1257BOLB   C2D30166   8.815  17.162  20.422 -0.2330  0.0753  0.1733
 1257BOLB   C3D30167   8.807  17.508  20.128 -0.0748 -0.2714  0.4482
 1257BOLB   C4D30168   8.858  17.938  20.111 -0.2571 -0.2089  0.1210
 1258BOLB   NC130169  10.602   9.486   8.753 -0.0385 -0.5464  0.0815
 1258BOLB   PO130170  10.916   9.585   8.436 -0.0957 -0.0610  0.0065
 1258BOLB   GL130171  10.916  10.118   8.285  0.1398  0.1738  0.0621
 1258BOLB   GL230172  10.682  10.376   8.157  0.0962 -0.1217  0.1471
 1258BOLB   C1A30173  11.038  10.469   8.475  0.2251 -0.0234 -0.1144
 1258BOLB   C2A30174  10.917  10.958   8.468 -0.1358 -0.0412  0.1255
 1258BOLB   C3A30175  10.637  11.071   8.710 -0.0180 -0.1081  0.0502
 1258BOLB   C4A30176  10.657  11.487   9.048  0.2423 -0.0110 -0.1846
 1258BOLB   C1B30177  10.455  10.760   8.294 -0.1658  0.0133 -0.1704
 1258BOLB   C2B30178  10.400  11.203   8.297 -0.0230 -0.2768 -0.0039
 1258BOLB   C3B30179  10.088  11.480   8.240  0.3317 -0.1249 -0.1061
 1258BOLB   C4B30180   9.689  11.746   8.158  0.0128  0.0728 -0.3761
 1258BOLB   NC230181   8.766  13.123   8.924  0.3038  0.0285 -0.1819
 1258BOLB   PO230182   9.055  13.084   9.224  0.0644 -0.2983  0.3270
 1258BOLB   GL330183   9.230  12.790   8.983 -0.0684  0.1122  0.1672
 1258BOLB   GL430184   8.903  12.599   8.780  0.1923 -0.0586  0.4449
 1258BOLB   C1C30185   9.440  12.496   9.140  0.1385 -0.2671  0.2175
 1258BOLB   C2C30186   9.706  12.133   9.101  0.0334  0.2680 -0.0030
 1258BOLB   C3C30187  10.010  11.877   9.067 -0.1551 -0.1109  0.1605
 1258BOLB   C4C30188  10.311  11.593   9.337  0.2416 -0.0999 -0.3367
 1258BOLB   C1D30189   9.151  12.344   8.776  0.0705 -0.2465 -0.0577
 1258BOLB   C2D30190   9.189  12.021   9.078 -0.2617  0.1545  0.0491
 1258BOLB   C3D30191   9.122  11.856   9.441 -0.1488  0.1509  0.0612
 1258BOLB   C4D30192   9.028  11.537   9.649  0.0293  0.2095 -0.1179
 1259BOLB   NC130193   8.785  25.198  17.965  0.1963 -0.0678  0.3242
 1259BOLB   PO130194   8.609  25.388  17.633  0.1601  0.0037  0.3087
 1259BOLB   GL130195   8.418  25.620  17.893 -0.1150 -0.1049  0.1906
 1259BOLB   GL230196   8.170  25.462  17.986 -0.3929  0.2777  0.1437
 1259BOLB   C1A30197   8.604  25.997  18.120 -0.0754 -0.0957  0.0881
 1259BOLB   C2A30198   8.395  26.387  18.378  0.0435  0.0131 -0.0195
 1259BOLB   C3A30199   8.530  26.824  18.414  0.1865 -0.0706  0.1007
 1259BOLB   C4A30200   8.518  27.228  18.391  0.1910  0.2081  0.0967
 1259BOLB   C1B30201   8.168  25.702  18.370  0.1261  0.2976  0.0879
 1259BOLB   C2B30202   8.384  25.958  18.588  0.0460 -0.1395  0.2575
 1259BOLB   C3B30203   8.671  26.293  18.770  0.1100  0.0105 -0.1590
 1259BOLB   C4B30204   8.668  26.719  18.874 -0.1655 -0.0060 -0.0840
 1259BOLB   NC230205   9.415  29.071  20.502  0.0164  0.0121 -0.6114
 1259BOLB   PO230206   9.393  28.847  20.128  0.2348  0.4059  0.0886
 1259BOLB   GL330207   9.339  28.579  19.834 -0.1513 -0.2635  0.0974
 1259BOLB   GL430208   9.578  28.341  19.891 -0.1125  0.2773 -0.1544
 1259BOLB   C1C30209   9.083  28.329  19.539  0.0038  0.0411  0.0419
 1259BOLB   C2C30210   8.999  28.146  19.181 -0.1803  0.1680 -0.0099
 1259BOLB   C3C30211   8.954  27.789  18.898 -0.0102 -0.1703 -0.0838
 1259BOLB   C4C30212   8.650  27.471  18.632 -0.4211  0.0423 -0.0840
 1259BOLB   C1D30213   9.575  28.328  19.462 -0.0759 -0.0922 -0.0655
 1259BOLB   C2D30214   9.599  28.374  19.010  0.2980  0.1564  0.0771
 1259BOLB   C3D30215   9.770  28.274  18.649 -0.3691  0.0224  0.0115
 1259BOLB   C4D30216   9.887  28.002  18.317 -0.3302 -0.1816  0.1139
 1260BOLB   NC130217   5.991  24.254   3.540  0.1302 -0.0514 -0.1633
 1260BOLB   PO130218   5.743  24.398   3.650  0.1869  0.0225  0.0003
 1260BOLB   GL130219   5.759  24.702   3.389  0.0742  0.0459 -0.3614
 1260BOLB   GL230220   5.837  24.963   3.433 -0.0146  0.1053  0.1872
 1260BOLB   C1A30221   5.716  24.923   2.970  0.2599 -0.0233 -0.4366
 1260BOLB   C2A30222   5.628  25.229   2.734 -0.0381 -0.1869 -0.0309
 1260BOLB   C3A30223   5.486  25.449   2.353 -0.1883  0.1136 -0.3258
 1260BOLB   C4A30224   5.715  25.572   1.971  0.0603 -0.1272  0.2027
 1260BOLB   C1B30225   6.165  25.013   3.111 -0.1077  0.0821 -0.0475
 1260BOLB   C2B30226   6.327  25.163   2.781 -0.3742 -0.0450  0.0777
 1260BOLB   C3B30227   6.462  25.481   2.889  0.2371 -0.1884  0.1248
 1260BOLB   C4B30228   6.336  25.862   2.685 -0.1336 -0.0955 -0.1879
 1260BOLB   NC230229   6.131  27.080  -0.391 -0.0326  0.1885 -0.4248
 1260BOLB   PO230230   6.282  26.975  -0.003  0.0306 -0.0005 -0.1771
 1260BOLB   GL330231   6.172  26.690   0.372  0.1514 -0.0080 -0.0465
 1260BOLB   GL430232   6.422  26.591   0.562  0.1125 -0.1464 -0.1987
 1260BOLB   C1C30233   5.902  26.507   0.657  0.1124 -0.0103  0.1093
 1260BOLB   C2C30234   5.651  26.342   1.004 -0.1848  0.2244 -0.0810
 1260BOLB   C3C30235   5.584  26.003   1.243  0.0145  0.0526  0.0327
 1260BOLB   C4C30236   5.642  25.971   1.733 -0.2040 -0.1164  0.0160
 1260BOLB   C1D30237   6.358  26.302   0.851  0.5210  0.1548 -0.2640
 1260BOLB   C2D30238   6.400  25.967   0.883 -0.1885  0.1062  0.1301
 1260BOLB   C3D30239   6.317  25.606   1.036 -0.1620  0.0849  0.2468
 1260BOLB   C4D30240   6.025  25.305   1.131  0.1279 -0.3296  0.2847
 1261BOLB   NC130241  37.428  23.554  10.830 -0.0955  0.1801  0.1118
 1261BOLB   PO130242  37.332  23.778  10.515  0.2918  0.0649  0.0157
 1261BOLB   GL130243  37.016  23.970  10.238 -0.2725 -0.2335  0.2507
 1261BOLB   GL230244  37.045  23.891   9.907 -0.0106  0.1349 -0.2332
 1261BOLB   C1A30245  36.744  24.330  10.255  0.0146 -0.2277  0.1426
 1261BOLB   C2A30246  36.335  24.488  10.241 -0.2005 -0.1750 -0.0478
 1261BOLB   C3A30247  36.026  24.807  10.208 -0.0485  0.3446  0.1765
 1261BOLB   C4A30248  35.682  25.073  10.492 -0.2107  0.0184 -0.2586
 1261BOLB   C1B30249  36.693  23.850   9.845 -0.0033 -0.0607 -0.0886
 1261BOLB   C2B30250  36.421  23.663   9.606  0.2175  0.1200  0.2218
 1261BOLB   C3B30251  36.049  23.408   9.570 -0.0929  0.0957  0.0775
 1261BOLB   C4B30252  35.681  23.254   9.872 -0.0447 -0.0917  0.1861
 1261BOLB   NC230253  33.363  27.177  10.430  0.0153 -0.0927 -0.0708
 1261BOLB   PO230254  33.668  27.012  10.691 -0.0919  0.1849 -0.3277
 1261BOLB   GL330255  34.093  26.688  10.711  0.2223 -0.0887  0.1284
 1261BOLB   GL430256  34.440  26.862  10.706  0.0384 -0.1506 -0.0423
 1261BOLB   C1C30257  34.393  26.409  10.678 -0.0269  0.2446 -0.1268
 1261BOLB   C2C30258  34.735  26.039  10.626  0.1597  0.0372  0.2519
 1261BOLB   C3C30259  35.180  25.789  10.641 -0.0291 -0.2082  0.3075
 1261BOLB   C4C30260  35.516  25.474  10.535 -0.0218  0.1358 -0.0400
 1261BOLB   C1D30261  34.817  26.672  10.538  0.0871  0.3106 -0.4992
 1261BOLB   C2D30262  35.180  26.305  10.514 -0.0929 -0.0742  0.2921
 1261BOLB   C3D30263  35.496  25.987  10.272 -0.1396  0.1322 -0.1245
 1261BOLB   C4D30264  35.821  25.785   9.954  0.0386 -0.0657  0.0086
 1262BOLB   NC130265  15.524  20.778   8.166 -0.0369  0.1850  0.0067
 1262BOLB   PO130266  15.677  20.639   8.530  0.3338  0.0862  0.0571
 1262BOLB   GL130267  15.973  20.805   8.580  0.0494 -0.2493 -0.0539
 1262BOLB   GL230268  16.006  21.193   8.749 -0.1953 -0.3008  0.1223
 1262BOLB   C1A30269  16.398  20.945   8.516  0.0517 -0.0925 -0.2341
 1262BOLB   C2A30270  16.553  21.127   8.138  0.1734  0.0707 -0.0259
 1262BOLB   C3A30271  16.869  21.357   7.913 -0.0068  0.2931  0.1224
 1262BOLB   C4A30272  17.225  21.435   8.119 -0.0147 -0.0002 -0.0532
 1262BOLB   C1B30273  16.327  21.144   8.999  0.0737 -0.1223 -0.1576
 1262BOLB   C2B30274  16.492  21.071   9.381  0.1488  0.1710 -0.1760
 1262BOLB   C3B30275  16.440  20.852   9.791  0.0195 -0.1717  0.0667
 1262BOLB   C4B30276  16.469  20.710  10.268 -0.1937 -0.0908  0.3617
 1262BOLB   NC230277  19.746  22.761   9.139  0.3446  0.1566 -0.0868
 1262BOLB   PO230278  19.462  22.320   8.992 -0.2960  0.1018  0.1586
 1262BOLB   GL330279  19.049  22.275   8.850  0.2077  0.3868 -0.1236
 1262BOLB   GL430280  18.875  22.510   8.845 -0.0240 -0.0169 -0.1821
 1262BOLB   C1C30281  18.630  21.943   8.900 -0.4392  0.3064  0.1805
 1262BOLB   C2C30282  18.294  21.790   8.702  0.2367 -0.1990  0.1699
 1262BOLB   C3C30283  18.041  21.527   8.390 -0.0743 -0.0843  0.1762
 1262BOLB   C4C30284  17.684  21.589   8.217 -0.1028 -0.0088  0.2380
 1262BOLB   C1D30285  18.562  22.752   8.988 -0.2414  0.2232  0.4041
 1262BOLB   C2D30286  18.244  22.752   9.180 -0.1736  0.2427 -0.1092
 1262BOLB   C3D30287  17.842  22.665   9.372  0.0256  0.1834  0.0074
 1262BOLB   C4D30288  17.583  22.355   9.754 -0.0276 -0.0619  0.1528
 1263BOLB   NC130289   2.428  21.711   3.153 -0.1047  0.1021 -0.1737
 1263BOLB   PO130290   2.585  22.152   3.243  0.0588 -0.3329  0.0370
 1263BOLB   GL130291   2.725  22.373   2.896  0.2120 -0.0590 -0.1361
 1263BOLB   GL230292   2.884  22.271   2.577 -0.1798  0.2903 -0.2340
 1263BOLB   C1A30293   2.532  22.653   2.627 -0.0653  0.3642 -0.1135
 1263BOLB   C2A30294   2.329  22.785   2.198  0.1210 -0.0779  0.1716
 1263BOLB   C3A30295   2.101  22.873   1.831 -0.1005  0.1845 -0.0095
 1263BOLB   C4A30296   1.776  22.794   1.620  0.0793  0.0641 -0.3296
 1263BOLB   C1B30297   2.774  22.481   2.063 -0.3260  0.2612  0.1499
 1263BOLB   C2B30298   2.621  22.717   1.779 -0.0682 -0.0360  0.1040
 1263BOLB   C3B30299   2.500  22.853   1.499 -0.0905 -0.3703 -0.0950
 1263BOLB   C4B30300   2.621  22.919   1.156 -0.0230  0.1215  0.3140
 1263BOLB   NC230301   1.046  22.003  -0.379  0.0486 -0.0308 -0.2999
 1263BOLB   PO230302   0.779  21.801  -0.154  0.0009  0.3745  0.0432
 1263BOLB   GL330303   0.952  21.664   0.192  0.0423 -0.2715  0.0467
 1263BOLB   GL430304   0.923  21.364   0.151  0.2127 -0.2257 -0.0366
 1263BOLB   C1C30305   1.040  21.818   0.629  0.0506 -0.0528 -0.2151
 1263BOLB   C2C30306   1.149  21.966   0.984  0.0094 -0.4629 -0.2361
 1263BOLB   C3C30307   1.393  22.303   1.108  0.3062  0.3255  0.2184
 1263BOLB   C4C30308   1.449  22.529   1.401 -0.2198  0.2309 -0.1910
 1263BOLB   C1D30309   1.178  21.095   0.289 -0.1215  0.1135 -0.0321
 1263BOLB   C2D30310   1.428  20.973   0.695  0.0230 -0.0138 -0.1090
 1263BOLB   C3D30311   1.773  20.833   0.820  0.1633  0.0155  0.0579
 1263BOLB   C4D30312   2.014  20.652   1.105  0.0573 -0.0741 -0.0218
 1264BOLB   NC130313  13.105  16.362   7.530  0.0142 -0.1733  0.2548
 1264BOLB   PO130314  12.975  16.497   7.979  0.6328  0.0761  0.2047
 1264BOLB   GL130315  13.307  16.130   7.933  0.1170  0.1278 -0.0244
 1264BOLB   GL230316  13.134  15.929   7.843  0.3855  0.2079 -0.1382
 1264BOLB   C1A30317  13.488  15.651   7.993  0.1350  0.0944  0.0205
 1264BOLB   C2A30318  13.592  15.279   7.937  0.0682  0.2035 -0.0603
 1264BOLB   C3A30319  13.773  15.023   7.769  0.0689 -0.0387 -0.1639
 1264BOLB   C4A30320  13.876  14.486   7.789  0.1219 -0.0140 -0.0289
 1264BOLB   C1B30321  13.428  15.761   7.460 -0.1186 -0.0802  0.1000
 1264BOLB   C2B30322  13.850  15.495   7.594  0.2348  0.0864  0.0421
 1264BOLB   C3B30323  14.195  15.156   7.694 -0.2667 -0.0990 -0.0621
 1264BOLB   C4B30324  14.577  14.858   7.672 -0.2175  0.1972  0.2418
 1264BOLB   NC230325  15.684  13.299   8.178  0.5252  0.0509  0.1190
 1264BOLB   PO230326  15.855  13.321   8.512  0.2644  0.1378 -0.1017
 1264BOLB   GL330327  15.606  13.744   8.526  0.0146  0.2187  0.1536
 1264BOLB   GL430328  15.333  13.743   8.289 -0.4370 -0.0050  0.0391
 1264BOLB   C1C30329  15.260  14.030   8.673  0.2603  0.0247 -0.0140
 1264BOLB   C2C30330  14.987  14.263   8.363 -0.2912  0.4006 -0.0836
 1264BOLB   C3C30331  14.574  14.182   8.153 -0.1093 -0.1176 -0.1253
 1264BOLB   C4C30332  14.276  14.266   7.857  0.0570  0.1395  0.0411
 1264BOLB   C1D30333  15.473  14.115   8.024  0.0141 -0.4451 -0.0481
 1264BOLB   C2D30334  15.439  14.574   7.794 -0.4173  0.0108 -0.1995
 1264BOLB   C3D30335  15.207  14.912   7.715  0.4626  0.0609 -0.0081
 1264BOLB   C4D30336  14.995  15.133   7.603 -0.0239 -0.3380  0.1816
 1265BOLB   NC130337  12.766  18.282   4.896  0.0948 -0.0266 -0.1877
 1265BOLB   PO130338  13.147  18.495   4.949 -0.0995  0.2019 -0.0823
 1265BOLB   GL130339  13.284  18.310   4.611 -0.1310 -0.1891  0.1663
 1265BOLB   GL230340  13.228  18.395   4.323 -0.0686  0.2518  0.1916
 1265BOLB   C1A30341  13.406  17.913   4.454  0.0981  0.3638 -0.0077
 1265BOLB   C2A30342  13.281  17.452   4.383 -0.1190 -0.0105 -0.1161
 1265BOLB   C3A30343  13.205  17.307   4.041 -0.0839 -0.0815 -0.0299
 1265BOLB   C4A30344  13.533  17.181   3.686  0.2374  0.2958 -0.2442
 1265BOLB   C1B30345  13.555  18.276   4.007  0.2258  0.0973  0.0454
 1265BOLB   C2B30346  13.779  18.108   3.717 -0.2633 -0.0309  0.0587
 1265BOLB   C3B30347  14.086  18.077   3.351 -0.2635  0.1320 -0.1110
 1265BOLB   C4B30348  14.073  17.850   2.923  0.1918 -0.1500  0.0554
 1265BOLB   NC230349  15.461  16.528   2.043 -0.1277  0.0738 -0.1272
 1265BOLB   PO230350  15.072  16.147   2.053  0.0576 -0.1368  0.1507
 1265BOLB   GL330351  15.022  16.311   2.407  0.0028 -0.3049  0.4660
 1265BOLB   GL430352  15.321  16.362   2.519 -0.0767 -0.1586 -0.0875
 1265BOLB   C1C30353  14.666  16.286   2.704 -0.1468  0.2194  0.2890
 1265BOLB   C2C30354  14.459  16.612   2.852  0.0764 -0.0404  0.4675
 1265BOLB   C3C30355  14.247  16.841   3.194  0.3225 -0.2425  0.6641
 1265BOLB   C4C30356  13.860  16.939   3.414 -0.1428 -0.0346 -0.0168
 1265BOLB   C1D30357  15.063  16.366   2.934  0.0508  0.1082 -0.2160
 1265BOLB   C2D30358  14.768  16.527   3.260  0.2201  0.2211  0.0316
 1265BOLB   C3D30359  14.499  16.427   3.523 -0.1370 -0.1562 -0.0457
 1265BOLB   C4D30360  14.309  16.510   3.840  0.1474  0.0647 -0.1631
 1266BOLB   NC130361   6.768  28.141  13.607 -0.0589 -0.0295  0.2256
 1266BOLB   PO130362   6.933  28.325  13.297  0.3914 -0.1184 -0.2004
 1266BOLB   GL130363   6.885  28.814  13.301 -0.2361 -0.4217 -0.1377
 1266BOLB   GL230364   6.863  28.999  13.033 -0.1524 -0.0455 -0.3606
 1266BOLB   C1A30365   6.554  29.201  13.352 -0.2065  0.1230 -0.2846
 1266BOLB   C2A30366   6.478  29.679  13.413  0.2434  0.2312  0.5168
 1266BOLB   C3A30367   6.480  29.988  13.494 -0.0760 -0.0429  0.0661
 1266BOLB   C4A30368   6.472  30.394  13.389 -0.0278 -0.1306 -0.2256
 1266BOLB   C1B30369   6.746  29.545  13.004  0.1526  0.1627  0.0035
 1266BOLB   C2B30370   6.733  30.017  13.084 -0.0004  0.2554 -0.1224
 1266BOLB   C3B30371   6.708  30.297  12.835  0.2654  0.0685 -0.0797
 1266BOLB   C4B30372   6.657  30.691  12.627  0.1428 -0.0591  0.2708
 1266BOLB   NC230373   6.820  32.924  14.378  0.1395  0.1053  0.0333
 1266BOLB   PO230374   6.728  33.013  13.906  0.5695  0.0428 -0.1114
 1266BOLB   GL330375   6.632  32.551  13.665  0.0505 -0.0053  0.0982
 1266BOLB   GL430376   6.344  32.492  13.465  0.0839 -0.2404 -0.0003
 1266BOLB   C1C30377   6.627  32.053  13.731 -0.1383  0.2761 -0.2612
 1266BOLB   C2C30378   6.742  31.595  13.542  0.1354 -0.1372  0.2577
 1266BOLB   C3C30379   6.692  31.212  13.387  0.2915  0.0338 -0.0493
 1266BOLB   C4C30380   6.750  30.750  13.295  0.0441 -0.2497 -0.0806
 1266BOLB   C1D30381   6.267  32.018  13.409 -0.1429  0.0539 -0.0221
 1266BOLB   C2D30382   6.327  31.524  13.214  0.5351  0.1667 -0.1251
 1266BOLB   C3D30383   6.154  31.132  13.114 -0.0623  0.0775 -0.1810
 1266BOLB   C4D30384   5.977  30.776  13.246 -0.0796 -0.0488 -0.0960
 1267BOLB   NC130385   5.407  13.517   5.941 -0.0359 -0.3150 -0.3951
 1267BOLB   PO130386   5.203  13.874   5.938  0.0190 -0.0532  0.0182
 1267BOLB   GL130387   4.866  13.622   5.784  0.2431 -0.1794 -0.2249
 1267BOLB   GL230388   4.678  13.790   5.970 -0.0215 -0.0701 -0.0402
 1267BOLB   C1A30389   4.916  13.211   5.564 -0.2369  0.3961  0.0125
 1267BOLB   C2A30390   5.082  13.065   5.168  0.1530 -0.0864  0.1834
 1267BOLB   C3A30391   4.960  12.626   5.144  0.5702  0.3653 -0.1135
 1267BOLB   C4A30392   4.869  12.196   4.910  0.1102 -0.0344  0.0989
 1267BOLB   C1B30393   4.321  13.557   5.780  0.1414 -0.2117 -0.2295
 1267BOLB   C2B30394   4.267  13.118   5.480  0.1432  0.1311 -0.2517
 1267BOLB   C3B30395   4.057  12.839   5.119 -0.0327 -0.2356 -0.0823
 1267BOLB   C4B30396   3.926  12.413   5.037  0.2665 -0.3107 -0.0479
 1267BOLB   NC230397   4.555   9.858   3.745  0.0542 -0.1628  0.1611
 1267BOLB   PO230398   4.584   9.796   4.250 -0.3692 -0.0824  0.1074
 1267BOLB   GL330399   4.685  10.266   4.373  0.0011 -0.0037 -0.1380
 1267BOLB   GL430400   4.680  10.427   4.120  0.1703  0.0646 -0.0778
 1267BOLB   C1C30401   5.063  10.613   4.553  0.1076  0.0513 -0.3312
 1267BOLB   C2C30402   4.975  11.095   4.626 -0.4883 -0.2249 -0.1537
 1267BOLB   C3C30403   4.779  11.322   4.874  0.0676  0.1648  0.4512
 1267BOLB   C4C30404   4.755  11.699   5.020  0.1761 -0.0235  0.0016
 1267BOLB   C1D30405   4.587  10.763   4.395  0.1266 -0.3052 -0.1635
 1267BOLB   C2D30406   4.409  10.999   4.649 -0.1946  0.1586 -0.0464
 1267BOLB   C3D30407   4.305  11.156   5.069 -0.0000 -0.0290 -0.1451
 1267BOLB   C4D30408   4.472  11.395   5.349 -0.0863 -0.2532  0.1704
 1268BOLB   NC130409   6.689  21.784   2.448 -0.0301 -0.0213 -0.2807
 1268BOLB   PO130410   6.917  22.099   2.513 -0.3081 -0.0524 -0.0169
 1268BOLB   GL130411   6.695  22.170   2.110  0.1603 -0.3393 -0.1447
 1268BOLB   GL230412   6.843  22.516   1.878  0.1402 -0.0310  0.0928
 1268BOLB   C1A30413   6.536  21.893   1.848  0.0390 -0.3349  0.1120
 1268BOLB   C2A30414   6.438  21.867   1.446 -0.2840 -0.1327  0.0923
 1268BOLB   C3A30415   6.660  21.866   1.054 -0.2023 -0.3613  0.0061
 1268BOLB   C4A30416   6.641  22.172   0.618 -0.1777 -0.0360 -0.0089
 1268BOLB   C1B30417   6.630  22.449   1.446 -0.3005 -0.1457  0.2888
 1268BOLB   C2B30418   6.328  22.714   1.173  0.0949  0.2853  0.1282
 1268BOLB   C3B30419   6.287  23.049   0.812  0.1586  0.2114  0.3741
 1268BOLB   C4B30420   6.034  22.843   0.479 -0.0432  0.0785 -0.1208
 1268BOLB   NC230421   6.890  22.199  -2.079 -0.0741 -0.0307 -0.1252
 1268BOLB   PO230422   7.035  22.325  -1.709  0.5719 -0.0805 -0.4767
 1268BOLB   GL330423   7.042  22.222  -1.320 -0.2118 -0.5338  0.1823
 1268BOLB   GL430424   7.386  22.002  -1.372  0.2497  0.1875  0.2267
 1268BOLB   C1C30425   6.960  22.244  -0.872 -0.2566 -0.1477 -0.0181
 1268BOLB   C2C30426   7.044  22.175  -0.451  0.1233  0.3153  0.1344
 1268BOLB   C3C30427   6.751  22.104  -0.060 -0.0272 -0.7047  0.2880
 1268BOLB   C4C30428   6.521  22.048   0.220  0.1350 -0.2153  0.0763
 1268BOLB   C1D30429   7.420  21.958  -0.957 -0.1172 -0.0083  0.0603
 1268BOLB   C2D30430   7.367  21.734  -0.519  0.2674 -0.1353  0.0235
 1268BOLB   C3D30431   7.345  21.447  -0.183 -0.1951  0.3143 -0.0099
 1268BOLB   C4D30432   7.312  21.367   0.180 -0.0558 -0.3521 -0.1384
 1269BOLB   NC130433   4.999  13.641  10.857  0.1305 -0.1798 -0.0762
 1269BOLB   PO130434   5.169  13.320  11.080  0.2584 -0.1330 -0.3526
 1269BOLB   GL130435   5.170  12.972  11.202 -0.0676 -0.1326 -0.0946
 1269BOLB   GL230436   5.123  12.788  10.804  0.1838 -0.3704  0.0404
 1269BOLB   C1A30437   5.036  12.499  11.246  0.3262 -0.0247  0.2524
 1269BOLB   C2A30438   5.007  12.020  11.165 -0.2741  0.1683 -0.1748
 1269BOLB   C3A30439   5.100  11.644  11.257 -0.1322 -0.0342  0.1498
 1269BOLB   C4A30440   5.311  11.201  11.262  0.3300 -0.3103 -0.0192
 1269BOLB   C1B30441   5.058  12.265  10.733 -0.2130  0.2476  0.1081
 1269BOLB   C2B30442   4.830  11.841  10.701 -0.2302 -0.1483  0.1544
 1269BOLB   C3B30443   4.854  11.413  10.895 -0.0223 -0.1026 -0.0521
 1269BOLB   C4B30444   5.001  10.992  10.976 -0.1333 -0.0293  0.0758
 1269BOLB   NC230445   6.448   9.018  10.855  0.2464  0.0569  0.2105
 1269BOLB   PO230446   6.142   9.194  10.497  0.1441  0.0391  0.4187
 1269BOLB   GL330447   5.710   9.326  10.684 -0.1592 -0.1537  0.1371
 1269BOLB   GL430448   5.377   9.264  10.510  0.0597 -0.2867  0.0484
 1269BOLB   C1C30449   5.682   9.760  10.699 -0.2508  0.0305  0.1313
 1269BOLB   C2C30450   5.469  10.008  10.993  0.1286  0.4089  0.3896
 1269BOLB   C3C30451   5.585  10.388  11.095 -0.2055 -0.0445 -0.2570
 1269BOLB   C4C30452   5.438  10.739  11.329 -0.0132 -0.1083 -0.2889
 1269BOLB   C1D30453   5.199   9.796  10.498  0.0283  0.0054 -0.2424
 1269BOLB   C2D30454   5.040  10.133  10.617 -0.0454  0.2370  0.1225
 1269BOLB   C3D30455   5.299  10.421  10.619  0.0982  0.0539  0.0169
 1269BOLB   C4D30456   5.709  10.630  10.689  0.0842 -0.0657  0.0093
 1270BOLB   NC130457   1.678  27.572   9.701 -0.2694 -0.1963 -0.0603
 1270BOLB   PO130458   2.001  27.645  10.023  0.3389  0.0196 -0.0881
 1270BOLB   GL130459   1.803  27.976  10.196  0.0739  0.0815  0.1889
 1270BOLB   GL230460   1.661  28.157   9.979  0.1934  0.0236  0.3567
 1270BOLB   C1A30461   1.548  28.260  10.561  0.1648 -0.0391 -0.1042
 1270BOLB   C2A30462   1.494  28.578  10.861 -0.1904  0.1278  0.0546
 1270BOLB   C3A30463   1.157  28.871  11.042  0.0730  0.0974 -0.1467
 1270BOLB   C4A30464   1.048  29.243  11.272 -0.2257 -0.2527  0.0115
 1270BOLB   C1B30465   1.388  28.392   9.716 -0.1675 -0.1189 -0.0941
 1270BOLB   C2B30466   0.959  28.472   9.888 -0.0273 -0.3135 -0.1992
 1270BOLB   C3B30467   0.567  28.572   9.769 -0.2000  0.0667  0.1255
 1270BOLB   C4B30468   0.603  28.954   9.776 -0.2301 -0.0038 -0.2621
 1270BOLB   NC230469  -0.601  30.636  11.800 -0.2961  0.2545  0.1028
 1270BOLB   PO230470  -0.329  30.877  11.538  0.2004  0.0949 -0.1567
 1270BOLB   GL330471  -0.412  30.456  11.344  0.1063 -0.0309  0.1304
 1270BOLB   GL430472  -0.659  30.304  11.130 -0.1904  0.0055 -0.2357
 1270BOLB   C1C30473   0.033  30.210  11.220 -0.0226 -0.0750  0.0453
 1270BOLB   C2C30474   0.297  30.007  10.977 -0.2358 -0.5043  0.1758
 1270BOLB   C3C30475   0.407  29.697  11.304 -0.0478 -0.0718 -0.4469
 1270BOLB   C4C30476   0.672  29.423  11.327 -0.0829  0.2153  0.3738
 1270BOLB   C1D30477  -0.481  30.009  11.162  0.0543  0.4897 -0.2827
 1270BOLB   C2D30478  -0.137  29.665  11.155  0.2308 -0.0454  0.0073
 1270BOLB   C3D30479  -0.209  29.341  10.953  0.0706 -0.1422  0.2976
 1270BOLB   C4D30480  -0.388  29.087  10.726 -0.2132  0.1256 -0.1444
 1271BOLB   NC130481  14.916  19.234   7.861  0.3811  0.4117  0.0073
 1271BOLB   PO130482  14.991  19.588   7.967  0.2918 -0.2005 -0.1340
 1271BOLB   GL130483  15.316  19.541   7.759  0.2756 -0.0259 -0.1020
 1271BOLB   GL230484  15.599  19.724   7.574  0.1800 -0.0191  0.0068
 1271BOLB   C1A30485  15.677  19.266   7.854 -0.0298 -0.3720 -0.4129
 1271BOLB   C2A30486  16.153  19.122   7.861 -0.0841 -0.2215  0.0033
 1271BOLB   C3A30487  16.505  18.933   7.904  0.0022  0.0922 -0.2314
 1271BOLB   C4A30488  16.794  18.649   7.773  0.2370 -0.1676  0.1994
 1271BOLB   C1B30489  15.950  19.536   7.581  0.0506 -0.0707 -0.0236
 1271BOLB   C2B30490  16.268  19.251   7.400  0.5298 -0.4298 -0.0250
 1271BOLB   C3B30491  16.676  19.254   7.503 -0.2127 -0.1277 -0.0631
 1271BOLB   C4B30492  17.029  19.267   7.206 -0.1729 -0.4717  0.1397
 1271BOLB   NC230493  18.733  16.747   6.877  0.1064  0.2926  0.1348
 1271BOLB   PO230494  18.402  17.102   6.986 -0.1185  0.0268  0.3772
 1271BOLB   GL330495  18.077  17.319   7.186  0.1741 -0.2813  0.0938
 1271BOLB   GL430496  17.946  17.180   7.492 -0.0842 -0.0019  0.0987
 1271BOLB   C1C30497  17.879  17.585   7.189  0.0678  0.3493 -0.0954
 1271BOLB   C2C30498  17.545  17.761   7.427  0.2938 -0.0843  0.0682
 1271BOLB   C3C30499  17.387  18.202   7.767 -0.0696 -0.4939 -0.1157
 1271BOLB   C4C30500  17.169  18.441   7.710 -0.5587  0.3379  0.2977
 1271BOLB   C1D30501  17.608  17.146   7.335  0.1486 -0.1979  0.0327
 1271BOLB   C2D30502  17.389  17.073   7.069 -0.3319  0.0783 -0.4460
 1271BOLB   C3D30503  17.358  17.017   6.696 -0.0566 -0.0645  0.0314
 1271BOLB   C4D30504  17.710  16.891   6.401 -0.2801 -0.1804 -0.1633
 1272BOLB   NC130505   6.568  12.835   9.825 -0.2508 -0.1293  0.0974
 1272BOLB   PO130506   6.824  12.842   9.401  0.1193 -0.3430  0.0924
 1272BOLB   GL130507   7.179  12.631   9.486 -0.2967  0.0404  0.1866
 1272BOLB   GL230508   7.518  12.572   9.351 -0.2245 -0.1605  0.0642
 1272BOLB   C1A30509   7.391  12.486   9.897  0.2006  0.3201 -0.0539
 1272BOLB   C2A30510   7.780  12.256  10.142 -0.2469 -0.3455  0.1367
 1272BOLB   C3A30511   7.999  11.860  10.344 -0.0819  0.0133  0.0682
 1272BOLB   C4A30512   8.219  11.528  10.541  0.0156  0.0436  0.4043
 1272BOLB   C1B30513   7.431  12.153   9.465 -0.0540 -0.4339 -0.0057
 1272BOLB   C2B30514   7.287  11.812   9.316 -0.2977  0.3572  0.2383
 1272BOLB   C3B30515   7.127  11.327   9.301  0.2018  0.1683  0.0943
 1272BOLB   C4B30516   6.781  11.157   9.088 -0.1434  0.1202  0.2548
 1272BOLB   NC230517   8.240   9.482  11.705 -0.2387 -0.2038  0.3618
 1272BOLB   PO230518   8.548   9.389  11.586 -0.3374 -0.0727 -0.0638
 1272BOLB   GL330519   8.534   9.848  11.450  0.1856  0.0577  0.0892
 1272BOLB   GL430520   8.330  10.129  11.568  0.0155  0.1001  0.1629
 1272BOLB   C1C30521   8.732  10.194  11.321 -0.3059  0.0146  0.0579
 1272BOLB   C2C30522   8.762  10.605  11.146  0.1749 -0.1158  0.3101
 1272BOLB   C3C30523   8.716  11.057  10.942 -0.2863  0.5189  0.0737
 1272BOLB   C4C30524   8.424  11.240  10.898 -0.1120  0.0728  0.3288
 1272BOLB   C1D30525   8.504  10.500  11.549 -0.0106 -0.0881  0.3219
 1272BOLB   C2D30526   8.283  10.781  11.247 -0.0390  0.2171 -0.0045
 1272BOLB   C3D30527   8.100  11.182  11.303  0.0662  0.0548  0.1423
 1272BOLB   C4D30528   7.803  11.490  11.355 -0.4171 -0.2299  0.1578
 1273BOLB   NC130529   2.938  26.575  14.411  0.0253 -0.1118  0.1292
 1273BOLB   PO130530   2.587  26.870  14.387 -0.3645  0.0399  0.0944
 1273BOLB   GL130531   2.434  27.201  14.721  0.4201  0.2219  0.0544
 1273BOLB   GL230532   2.615  27.319  14.949 -0.0750 -0.0624 -0.2789
 1273BOLB   C1A30533   2.056  27.570  14.758  0.1524 -0.0396  0.0096
 1273BOLB   C2A30534   1.783  27.814  15.058  0.0188  0.0525 -0.0999
 1273BOLB   C3A30535   1.553  28.166  15.046  0.0978  0.0907  0.0050
 1273BOLB   C4A30536   1.431  28.481  14.791  0.1379  0.1713  0.2864
 1273BOLB   C1B30537   2.308  27.436  15.245  0.1983  0.3621  0.3360
 1273BOLB   C2B30538   1.923  27.460  15.592  0.4291 -0.0285  0.1023
 1273BOLB   C3B30539   1.548  27.508  15.393 -0.4150  0.0741  0.0993
 1273BOLB   C4B30540   1.023  27.412  15.355 -0.1102 -0.1086  0.0006
 1273BOLB   NC230541   0.197  30.742  15.886 -0.2555 -0.0451  0.0473
 1273BOLB   PO230542   0.183  30.285  15.639  0.2456  0.0920  0.2992
 1273BOLB   GL330543   0.487  30.057  15.399 -0.0333 -0.0913 -0.0208
 1273BOLB   GL430544   0.379  29.686  15.352 -0.1587 -0.0595  0.0499
 1273BOLB   C1C30545   0.907  30.074  15.194 -0.1815  0.0144  0.2864
 1273BOLB   C2C30546   1.157  29.730  15.069  0.0685 -0.0638  0.1450
 1273BOLB   C3C30547   1.300  29.373  14.886  0.0386  0.0133  0.1932
 1273BOLB   C4C30548   1.463  28.934  14.814  0.1188 -0.1786  0.0146
 1273BOLB   C1D30549   0.410  29.270  15.276  0.0103 -0.1120  0.0422
 1273BOLB   C2D30550   0.283  29.145  14.840  0.0647 -0.0103 -0.0310
 1273BOLB   C3D30551   0.411  28.896  14.494  0.0263  0.0344  0.0001
 1273BOLB   C4D30552   0.556  28.446  14.288  0.5982  0.1264  0.2188
 1274BOLB   NC130553   9.094  21.370   2.231 -0.0016 -0.0814 -0.3385
 1274BOLB   PO130554   9.480  21.042   2.196  0.4213  0.0712  0.0780
 1274BOLB   GL130555   9.678  20.891   1.889  0.1607 -0.0389 -0.0756
 1274BOLB   GL230556   9.714  21.136   1.563  0.1083  0.0068  0.2436
 1274BOLB   C1A30557  10.049  20.654   1.809  0.0920  0.0077  0.1701
 1274BOLB   C2A30558  10.295  20.572   1.401  0.0186 -0.1025  0.4246
 1274BOLB   C3A30559  10.585  20.352   1.012 -0.1328 -0.0108 -0.3214
 1274BOLB   C4A30560  10.821  20.256   0.629  0.4235  0.1479  0.1720
 1274BOLB   C1B30561   9.766  20.790   1.418  0.1411 -0.1790 -0.1614
 1274BOLB   C2B30562   9.991  20.653   0.992  0.0332 -0.0246  0.4843
 1274BOLB   C3B30563  10.399  20.836   0.964  0.0444  0.0905  0.0797
 1274BOLB   C4B30564  10.646  21.053   1.305 -0.1010  0.2333  0.3070
 1274BOLB   NC230565  10.807  20.350  -2.122 -0.0403  0.1260 -0.0139
 1274BOLB   PO230566  10.762  20.364  -1.726  0.1960  0.2430  0.1395
 1274BOLB   GL330567  10.572  20.233  -1.281  0.0648 -0.0659 -0.3853
 1274BOLB   GL430568  10.418  20.352  -1.145  0.4042  0.0144 -0.1206
 1274BOLB   C1C30569  10.814  20.171  -0.820  0.0678  0.2543  0.1879
 1274BOLB   C2C30570  11.186  20.068  -0.487 -0.0094  0.1158  0.1959
 1274BOLB   C3C30571  11.168  20.141  -0.010  0.2256  0.0783  0.0812
 1274BOLB   C4C30572  11.194  20.261   0.418 -0.7022 -0.4628  0.1752
 1274BOLB   C1D30573  10.419  20.534  -0.754 -0.3901  0.0429  0.0015
 1274BOLB   C2D30574  10.357  20.759  -0.423 -0.2739  0.3134 -0.2901
 1274BOLB   C3D30575  10.156  20.937  -0.074  0.0762  0.0193 -0.0457
 1274BOLB   C4D30576   9.907  21.188   0.223  0.1195  0.0320  0.1179
 1275BOLB   NC130577   9.907  17.108  15.568  0.0271 -0.1823  0.1067
 1275BOLB   PO130578   9.609  16.845  15.854 -0.0404 -0.1163  0.2781
 1275BOLB   GL130579   9.652  16.685  16.218 -0.1446 -0.1432 -0.2394
 1275BOLB   GL230580   9.671  16.401  16.287 -0.2572  0.1422 -0.1750
 1275BOLB   C1A30581   9.711  16.690  16.726  0.2038 -0.1160 -0.0681
 1275BOLB   C2A30582   9.876  16.463  17.103  0.0420 -0.2025  0.0601
 1275BOLB   C3A30583  10.228  16.212  17.095  0.1454 -0.0672 -0.0653
 1275BOLB   C4A30584  10.573  16.101  17.291  0.0472  0.1308  0.1004
 1275BOLB   C1B30585   9.773  15.946  16.437 -0.2508  0.1135 -0.3235
 1275BOLB   C2B30586   9.988  15.678  16.307  0.1007 -0.0233 -0.1604
 1275BOLB   C3B30587  10.296  15.498  15.914  0.0386  0.0311 -0.0200
 1275BOLB   C4B30588  10.171  15.177  15.613 -0.2531 -0.1682  0.0942
 1275BOLB   NC230589  10.525  13.887  18.586  0.0041  0.0338 -0.0221
 1275BOLB   PO230590  10.854  13.646  18.371 -0.0948 -0.0122 -0.3110
 1275BOLB   GL330591  10.735  14.041  18.091  0.0408 -0.1168  0.2324
 1275BOLB   GL430592  10.763  13.950  17.777 -0.1791 -0.2472 -0.0371
 1275BOLB   C1C30593  10.848  14.529  17.843 -0.1647 -0.0609 -0.2898
 1275BOLB   C2C30594  10.761  14.873  17.629  0.1179 -0.0711  0.0319
 1275BOLB   C3C30595  10.856  15.329  17.721 -0.0006 -0.0790  0.0221
 1275BOLB   C4C30596  10.758  15.712  17.520  0.1591 -0.0502  0.0306
 1275BOLB   C1D30597  10.354  14.099  17.768 -0.0705  0.2573 -0.1774
 1275BOLB   C2D30598  10.023  14.285  18.003 -0.0403 -0.0977 -0.0663
 1275BOLB   C3D30599   9.682  14.493  17.934  0.2289 -0.0018 -0.0764
 1275BOLB   C4D30600   9.567  14.876  17.667 -0.0171  0.3193  0.1447
 1276BOLB   NC130601  15.109  21.129  10.587  0.0555  0.1609 -0.0850
 1276BOLB   PO130602  15.125  20.778  10.390 -0.2426  0.0996 -0.2504
 1276BOLB   GL130603  15.603  20.784  10.588  0.3422  0.0899  0.0485
 1276BOLB   GL230604  15.647  20.550  10.513 -0.2988  0.1541 -0.1323
 1276BOLB   C1A30605  16.006  20.988  10.503 -0.1406  0.3356 -0.0312
 1276BOLB   C2A30606  16.317  21.011  10.716  0.2519  0.1192 -0.1558
 1276BOLB   C3A30607  16.661  20.942  10.894  0.0947 -0.1334 -0.0872
 1276BOLB   C4A30608  16.987  21.091  11.139  0.1881 -0.0549 -0.0367
 1276BOLB   C1B30609  16.118  20.505  10.630  0.0089  0.1124  0.1189
 1276BOLB   C2B30610  16.614  20.455  10.645 -0.2118 -0.0288  0.1120
 1276BOLB   C3B30611  16.946  20.589  10.489  0.0083  0.5890 -0.0862
 1276BOLB   C4B30612  16.946  20.787  10.103  0.0842  0.1093 -0.0476
 1276BOLB   NC230613  19.499  21.529  12.631  0.2064 -0.2174 -0.0340
 1276BOLB   PO230614  19.193  21.198  12.561 -0.1503 -0.1172 -0.1183
 1276BOLB   GL330615  18.778  21.124  12.494  0.0380 -0.3392 -0.2653
 1276BOLB   GL430616  18.650  21.128  12.713 -0.2179  0.1083 -0.3220
 1276BOLB   C1C30617  18.419  21.139  12.228  0.1039 -0.1909 -0.0672
 1276BOLB   C2C30618  17.994  21.141  12.114  0.3791  0.1555  0.0906
 1276BOLB   C3C30619  17.539  21.132  11.860 -0.2139 -0.3962  0.2501
 1276BOLB   C4C30620  17.181  21.077  11.578 -0.1101 -0.2711  0.0930
 1276BOLB   C1D30621  18.175  21.210  12.819  0.0476 -0.2373  0.2400
 1276BOLB   C2D30622  17.901  21.600  13.002 -0.0237 -0.1430  0.0626
 1276BOLB   C3D30623  17.714  21.843  13.360 -0.1121  0.1465  0.0686
 1276BOLB   C4D30624  17.518  22.025  13.676 -0.0147  0.0576  0.0694
 1277BOLB   NC130625  15.107  22.574  11.611 -0.2543  0.0579  0.1128
 1277BOLB   PO130626  14.963  22.468  12.050 -0.0586 -0.0722  0.1698
 1277BOLB   GL130627  15.395  22.651  12.029 -0.1154 -0.2119 -0.3185
 1277BOLB   GL230628  15.595  22.478  11.804 -0.2287  0.0395 -0.1446
 1277BOLB   C1A30629  15.663  22.660  12.346  0.0651 -0.3141  0.2567
 1277BOLB   C2A30630  16.062  22.494  12.366 -0.2518  0.1666 -0.2242
 1277BOLB   C3A30631  16.320  22.718  12.611 -0.2041  0.0951  0.1729
 1277BOLB   C4A30632  16.638  22.715  12.921 -0.0085  0.1732  0.2912
 1277BOLB   C1B30633  16.006  22.325  11.894 -0.3500 -0.2292  0.1878
 1277BOLB   C2B30634  16.412  22.147  12.084 -0.1269 -0.1026 -0.0710
 1277BOLB   C3B30635  16.684  22.372  12.276  0.0200  0.1966  0.1458
 1277BOLB   C4B30636  17.056  22.500  12.557  0.3346  0.0763 -0.1045
 1277BOLB   NC230637  18.900  22.317  13.348 -0.1188 -0.2259 -0.0359
 1277BOLB   PO230638  18.945  21.974  13.039 -0.1406 -0.2050  0.2759
 1277BOLB   GL330639  18.558  22.213  12.984 -0.0121  0.0140 -0.0741
 1277BOLB   GL430640  18.451  22.590  13.202  0.2017 -0.1211  0.0357
 1277BOLB   C1C30641  18.149  22.077  12.918  0.0290  0.2377 -0.1435
 1277BOLB   C2C30642  17.679  22.205  12.974 -0.1902 -0.2109 -0.1212
 1277BOLB   C3C30643  17.289  22.346  13.195  0.1743  0.2296  0.0091
 1277BOLB   C4C30644  16.917  22.504  13.195 -0.0333  0.1770  0.0803
 1277BOLB   C1D30645  18.156  22.571  12.978 -0.1004  0.0141  0.1199
 1277BOLB   C2D30646  17.903  22.501  12.672 -0.0974  0.0784  0.0437
 1277BOLB   C3D30647  17.511  22.433  12.298 -0.2277  0.3992  0.1363
 1277BOLB   C4D30648  17.131  22.345  12.041  0.0638  0.0060 -0.1654
 1278BOLB   NC130649  13.983  17.570   6.712 -0.0868  0.1529 -0.2370
 1278BOLB   PO130650  13.735  17.328   7.092  0.0008  0.1464  0.1547
 1278BOLB   GL130651  14.028  17.102   6.911 -0.1170 -0.3502 -0.2925
 1278BOLB   GL230652  14.292  17.185   6.690 -0.2829 -0.0800  0.2470
 1278BOLB   C1A30653  14.118  16.656   6.806 -0.1125  0.1277 -0.1538
 1278BOLB   C2A30654  14.200  16.307   6.835  0.2447 -0.1352  0.2250
 1278BOLB   C3A30655  14.440  16.009   7.045  0.0271  0.0488 -0.1654
 1278BOLB   C4A30656  14.682  15.534   7.051  0.0074  0.1871 -0.1160
 1278BOLB   C1B30657  14.568  16.888   6.635 -0.1080 -0.0125 -0.2816
 1278BOLB   C2B30658  14.772  16.594   6.681  0.2640 -0.0982 -0.2132
 1278BOLB   C3B30659  14.810  16.226   6.705 -0.1609  0.2194 -0.0901
 1278BOLB   C4B30660  15.004  15.899   6.884  0.2734 -0.4352  0.1770
 1278BOLB   NC230661  16.309  13.598   7.269  0.0771  0.2818  0.0548
 1278BOLB   PO230662  16.052  13.703   6.953 -0.2749 -0.0197 -0.0625
 1278BOLB   GL330663  15.592  13.898   6.857 -0.2298  0.2267  0.2375
 1278BOLB   GL430664  15.490  14.109   6.534  0.1708 -0.2454  0.4042
 1278BOLB   C1C30665  15.421  14.193   7.040 -0.1122 -0.2082 -0.4731
 1278BOLB   C2C30666  15.275  14.514   7.355  0.2119  0.0209 -0.2587
 1278BOLB   C3C30667  14.883  14.740   7.247  0.1520  0.2762 -0.3779
 1278BOLB   C4C30668  14.635  15.109   7.057  0.1790  0.2514 -0.1296
 1278BOLB   C1D30669  15.339  14.227   6.165  0.2755 -0.1976  0.1562
 1278BOLB   C2D30670  15.318  14.572   5.834 -0.0018  0.0090  0.0132
 1278BOLB   C3D30671  14.970  14.709   5.546 -0.2423 -0.2572 -0.0056
 1278BOLB   C4D30672  14.505  14.576   5.453  0.1017 -0.0864  0.2277
 1279BOLB   NC130673  14.248  20.462  13.428  0.2383 -0.0462 -0.0062
 1279BOLB   PO130674  14.016  20.794  13.665  0.0440  0.1433 -0.1312
 1279BOLB   GL130675  14.388  20.532  13.881  0.2326  0.0928  0.0105
 1279BOLB   GL230676  14.439  20.554  14.179  0.1165 -0.1644  0.1512
 1279BOLB   C1A30677  14.737  20.308  13.906  0.1803 -0.0534  0.1015
 1279BOLB   C2A30678  14.904  20.091  14.239  0.2035  0.1456  0.0398
 1279BOLB   C3A30679  15.288  20.208  14.529 -0.0982  0.0249  0.0095
 1279BOLB   C4A30680  15.619  20.139  14.680  0.1194  0.1954  0.1353
 1279BOLB   C1B30681  14.810  20.730  14.184  0.0596  0.1655 -0.0651
 1279BOLB   C2B30682  15.155  20.693  14.012 -0.1325  0.1566 -0.1098
 1279BOLB   C3B30683  15.661  20.647  14.020  0.1000  0.0110 -0.2676
 1279BOLB   C4B30684  16.055  20.448  13.900 -0.3769  0.1226 -0.0235
 1279BOLB   NC230685  17.835  19.808  16.056 -0.2149  0.0472  0.2160
 1279BOLB   PO230686  17.512  19.624  16.177  0.3648  0.0081 -0.1503
 1279BOLB   GL330687  17.087  19.684  15.938 -0.4234 -0.0507 -0.0016
 1279BOLB   GL430688  16.880  19.492  15.991 -0.0645  0.3669  0.1488
 1279BOLB   C1C30689  16.713  19.837  15.648 -0.0507  0.1253 -0.2155
 1279BOLB   C2C30690  16.523  20.022  15.357  0.1455  0.1524 -0.1521
 1279BOLB   C3C30691  16.187  20.291  15.228  0.0346  0.3809  0.1091
 1279BOLB   C4C30692  15.891  20.373  14.982  0.0375 -0.0160 -0.0288
 1279BOLB   C1D30693  16.630  19.218  15.632 -0.2581 -0.1873  0.2332
 1279BOLB   C2D30694  16.299  19.046  15.360  0.1112  0.0541  0.0996
 1279BOLB   C3D30695  16.028  18.712  15.528 -0.0198 -0.3431  0.0812
 1279BOLB   C4D30696  15.584  18.469  15.512 -0.0991 -0.3421  0.0249
 1280BOLB   NC130697  16.395  24.784  17.546  0.1951 -0.4252  0.2390
 1280BOLB   PO130698  16.535  24.782  17.145  0.0212  0.0120 -0.1180
 1280BOLB   GL130699  16.100  24.828  17.045  0.1483  0.0291  0.3956
 1280BOLB   GL230700  15.855  24.832  17.239 -0.2315 -0.0240  0.2328
 1280BOLB   C1A30701  15.729  24.631  16.759  0.3909 -0.0357 -0.0025
 1280BOLB   C2A30702  15.567  24.250  16.700 -0.1023  0.2050  0.1274
 1280BOLB   C3A30703  15.252  23.982  16.764  0.2944  0.1733 -0.1415
 1280BOLB   C4A30704  14.903  23.614  16.841  0.0072  0.0668  0.2074
 1280BOLB   C1B30705  15.331  24.855  17.113  0.0542 -0.3851  0.0344
 1280BOLB   C2B30706  14.868  24.844  17.073  0.0968 -0.1495  0.3232
 1280BOLB   C3B30707  14.518  25.139  17.375 -0.0737  0.1121  0.0804
 1280BOLB   C4B30708  14.023  25.315  17.387 -0.2750  0.0125  0.0695
 1280BOLB   NC230709  17.101  22.361  16.862  0.0437  0.0500  0.2669
 1280BOLB   PO230710  17.031  22.823  16.802  0.3561  0.0644  0.0173
 1280BOLB   GL330711  16.609  22.641  16.960  0.3207  0.1989 -0.2465
 1280BOLB   GL430712  16.685  22.404  17.196 -0.2623 -0.2259  0.3094
 1280BOLB   C1C30713  16.213  22.491  16.962 -0.0050 -0.0575 -0.2577
 1280BOLB   C2C30714  15.835  22.817  16.860  0.2726  0.1028 -0.1605
 1280BOLB   C3C30715  15.494  23.121  16.905  0.0190  0.2608  0.1969
 1280BOLB   C4C30716  15.121  23.316  16.981 -0.0974  0.1552  0.1998
 1280BOLB   C1D30717  16.475  22.098  16.842 -0.1662  0.0301  0.1633
 1280BOLB   C2D30718  16.104  22.049  16.740 -0.0305 -0.3199  0.0222
 1280BOLB   C3D30719  15.874  22.429  16.600  0.1085  0.1705 -0.0611
 1280BOLB   C4D30720  15.716  22.436  16.255  0.0550  0.0186 -0.1085
 1281BOLB   NC130721  14.870  22.063  12.393 -0.0340 -0.1944 -0.0880
 1281BOLB   PO130722  14.819  22.505  12.507 -0.3323  0.1833  0.4854
 1281BOLB   GL130723  15.181  22.486  12.608 -0.5001  0.0957 -0.2143
 1281BOLB   GL230724  15.200  22.859  12.679 -0.2091  0.1385 -0.1825
 1281BOLB   C1A30725  15.551  22.648  12.900  0.2796 -0.1671 -0.0862
 1281BOLB   C2A30726  15.885  22.775  13.129 -0.2352  0.1285 -0.0121
 1281BOLB   C3A30727  16.261  22.637  13.322  0.1567 -0.0162 -0.1004
 1281BOLB   C4A30728  16.695  22.923  13.413 -0.3562  0.1393  0.0643
 1281BOLB   C1B30729  15.481  23.134  12.645 -0.1792  0.1490  0.0689
 1281BOLB   C2B30730  15.935  22.984  12.583 -0.0825 -0.0852 -0.2490
 1281BOLB   C3B30731  16.398  23.200  12.635 -0.2854  0.0639  0.2453
 1281BOLB   C4B30732  16.794  23.009  12.543 -0.0510 -0.0262 -0.0056
 1281BOLB   NC230733  18.615  24.163  13.237 -0.3384 -0.0648  0.1530
 1281BOLB   PO230734  18.591  24.438  13.477  0.0402 -0.2736 -0.4437
 1281BOLB   GL330735  18.221  24.121  13.573 -0.0016  0.2463 -0.1090
 1281BOLB   GL430736  18.099  24.046  13.209 -0.1517 -0.2984  0.2056
 1281BOLB   C1C30737  17.839  23.959  13.795 -0.1289  0.1818  0.3829
 1281BOLB   C2C30738  17.366  23.884  13.835  0.3254  0.0643 -0.1435
 1281BOLB   C3C30739  17.201  23.504  13.787  0.0118 -0.0507 -0.0903
 1281BOLB   C4C30740  16.899  23.271  13.580  0.1468  0.1986 -0.0906
 1281BOLB   C1D30741  17.722  24.197  13.300  0.0451 -0.2364  0.0955
 1281BOLB   C2D30742  17.698  24.441  13.702 -0.1497 -0.1491  0.1240
 1281BOLB   C3D30743  17.444  24.518  14.056  0.0577 -0.0488 -0.0921
 1281BOLB   C4D30744  17.033  24.492  14.018  0.1920  0.4163  0.4111
 1282BOLB   NC130745   3.288  22.339  18.192 -0.0502 -0.0152 -0.0499
 1282BOLB   PO130746   2.933  22.326  17.999  0.3201 -0.2097 -0.3618
 1282BOLB   GL130747   2.569  22.359  18.265  0.0960  0.0732  0.2044
 1282BOLB   GL230748   2.474  22.031  18.232 -0.2572  0.4677  0.0352
 1282BOLB   C1A30749   2.473  22.455  18.638 -0.1836 -0.0761  0.1053
 1282BOLB   C2A30750   2.267  22.661  18.745 -0.0119 -0.0131 -0.0119
 1282BOLB   C3A30751   1.910  22.845  18.884 -0.2717  0.0889 -0.0443
 1282BOLB   C4A30752   1.834  23.064  19.269  0.1262 -0.0279 -0.1692
 1282BOLB   C1B30753   2.244  22.030  18.620  0.2786  0.1222  0.1836
 1282BOLB   C2B30754   2.361  22.256  19.069  0.1713 -0.0378  0.1775
 1282BOLB   C3B30755   2.354  22.359  19.528 -0.1877 -0.3047  0.0812
 1282BOLB   C4B30756   2.180  22.725  19.735  0.2097 -0.0836 -0.0614
 1282BOLB   NC230757   0.207  22.818  20.925 -0.0157  0.2564  0.2783
 1282BOLB   PO230758   0.463  23.254  21.045 -0.1073 -0.0842  0.0579
 1282BOLB   GL330759   0.704  23.335  20.685  0.0781 -0.3977  0.1164
 1282BOLB   GL430760   0.666  22.977  20.570 -0.1355 -0.1528 -0.1761
 1282BOLB   C1C30761   1.059  23.277  20.312 -0.2062  0.2544 -0.1258
 1282BOLB   C2C30762   1.359  23.106  20.425  0.5354 -0.3495 -0.1367
 1282BOLB   C3C30763   1.587  23.066  20.146  0.1476  0.0747  0.1223
 1282BOLB   C4C30764   1.756  23.038  19.735  0.0769 -0.2798 -0.5610
 1282BOLB   C1D30765   0.982  22.779  20.413  0.1907 -0.1929  0.3058
 1282BOLB   C2D30766   1.379  22.515  20.396 -0.1341  0.4436 -0.0329
 1282BOLB   C3D30767   1.449  22.139  20.133 -0.0672 -0.0722 -0.0337
 1282BOLB   C4D30768   1.673  21.821  19.860  0.1097 -0.1153  0.1984
 1283BOLB   NC130769   9.017  24.496  17.698  0.0788  0.0015  0.3386
 1283BOLB   PO130770   9.382  24.770  17.949  0.3064  0.3134  0.3643
 1283BOLB   GL130771   9.542  24.943  18.278 -0.1596  0.0238  0.0803
 1283BOLB   GL230772   9.785  25.118  18.105 -0.1598  0.4228  0.0183
 1283BOLB   C1A30773   9.595  25.171  18.704  0.0168  0.0781  0.2054
 1283BOLB   C2A30774   9.787  25.428  19.021  0.1878  0.3355  0.2658
 1283BOLB   C3A30775   9.991  25.856  19.202 -0.1361 -0.0897  0.0371
 1283BOLB   C4A30776  10.162  26.059  19.427  0.0817  0.0664  0.0887
 1283BOLB   C1B30777   9.890  25.445  18.412 -0.0377  0.0908  0.3174
 1283BOLB   C2B30778   9.878  25.840  18.401  0.1090  0.0333 -0.1048
 1283BOLB   C3B30779   9.570  26.176  18.394  0.2221 -0.1119 -0.0027
 1283BOLB   C4B30780   9.478  26.646  18.551 -0.6019  0.4215 -0.1321
 1283BOLB   NC230781  11.748  27.079  20.592 -0.1279 -0.0730  0.2177
 1283BOLB   PO230782  11.969  26.687  20.686 -0.1548  0.0069  0.1267
 1283BOLB   GL330783  11.747  26.649  20.377 -0.0504  0.1471  0.0230
 1283BOLB   GL430784  11.723  26.379  20.242  0.0385 -0.1127 -0.3268
 1283BOLB   C1C30785  11.238  26.574  20.184  0.1527  0.0079  0.0374
 1283BOLB   C2C30786  10.966  26.657  19.946  0.2697  0.0299 -0.1584
 1283BOLB   C3C30787  10.693  26.616  19.569  0.1953 -0.0890  0.2139
 1283BOLB   C4C30788  10.315  26.437  19.534  0.1337 -0.0032  0.0331
 1283BOLB   C1D30789  11.520  26.264  19.931  0.0663 -0.0453 -0.1129
 1283BOLB   C2D30790  11.585  26.239  19.508  0.1801 -0.2655 -0.2077
 1283BOLB   C3D30791  11.687  26.190  19.111 -0.0476  0.0453  0.3459
 1283BOLB   C4D30792  11.531  26.176  18.712  0.1414 -0.1244 -0.1921
 1284BOLB   NC130793  14.942  19.409   8.424  0.0288  0.1258  0.2253
 1284BOLB   PO130794  14.986  19.037   8.299 -0.1191  0.1234  0.0067
 1284BOLB   GL130795  15.302  18.799   8.341 -0.0913 -0.0640  0.3435
 1284BOLB   GL230796  15.144  18.635   8.587 -0.3344 -0.1551  0.1054
 1284BOLB   C1A30797  15.684  18.648   8.243 -0.3490  0.1604 -0.2048
 1284BOLB   C2A30798  16.089  18.593   8.229 -0.0776 -0.0991 -0.3789
 1284BOLB   C3A30799  16.448  18.795   8.488 -0.1811  0.2096 -0.0088
 1284BOLB   C4A30800  16.585  18.993   8.861 -0.1719 -0.0016 -0.3286
 1284BOLB   C1B30801  15.546  18.409   8.712 -0.1943  0.0469  0.1959
 1284BOLB   C2B30802  15.894  18.095   8.725 -0.1811  0.4661 -0.0711
 1284BOLB   C3B30803  16.192  17.738   8.707  0.1672 -0.2560  0.0467
 1284BOLB   C4B30804  16.572  17.713   8.769  0.0229  0.1704 -0.1523
 1284BOLB   NC230805  15.023  20.394   9.405  0.0729  0.3655  0.4906
 1284BOLB   PO230806  15.216  20.045   9.114  0.1854 -0.0536 -0.0240
 1284BOLB   GL330807  15.522  19.869   8.940  0.0909 -0.3030  0.1399
 1284BOLB   GL430808  15.434  19.726   8.704 -0.1430  0.0817 -0.1685
 1284BOLB   C1C30809  16.028  19.797   8.985  0.1170 -0.0375  0.1982
 1284BOLB   C2C30810  16.440  19.669   9.251  0.2046 -0.1206  0.1566
 1284BOLB   C3C30811  16.869  19.565   9.197  0.1744 -0.3481  0.0374
 1284BOLB   C4C30812  16.889  19.267   9.032  0.4708  0.2095 -0.4796
 1284BOLB   C1D30813  15.769  19.362   8.812  0.0287 -0.0213 -0.0392
 1284BOLB   C2D30814  16.223  19.315   8.757 -0.1145 -0.1287  0.0596
 1284BOLB   C3D30815  16.496  19.654   8.763  0.0399  0.0762  0.0848
 1284BOLB   C4D30816  16.567  20.048   8.931  0.0905  0.1746  0.0983
 1285BOLB   NC130817  36.447  20.513  20.856  0.0407  0.0714  0.2636
 1285BOLB   PO130818  36.490  20.536  20.386 -0.2406 -0.1268 -0.2846
 1285BOLB   GL130819  36.763  20.614  19.989 -0.3491 -0.0383  0.1047
 1285BOLB   GL230820  36.575  20.544  19.681 -0.1513 -0.0923  0.0773
 1285BOLB   C1A30821  37.092  20.444  19.775  0.0331  0.3144 -0.0530
 1285BOLB   C2A30822  37.493  20.614  19.788  0.2046 -0.0524  0.0376
 1285BOLB   C3A30823  37.775  20.530  19.497  0.0904  0.2280  0.1377
 1285BOLB   C4A30824  37.769  20.501  19.049 -0.0813  0.1837  0.0589
 1285BOLB   C1B30825  36.803  20.327  19.381 -0.1109 -0.1363 -0.1984
 1285BOLB   C2B30826  36.851  20.107  18.894 -0.2617 -0.1337  0.3985
 1285BOLB   C3B30827  36.659  19.800  18.591 -0.0024 -0.2345 -0.1828
 1285BOLB   C4B30828  36.355  19.896  18.269 -0.2847  0.2023 -0.0380
 1285BOLB   NC230829  36.438  21.090  20.178 -0.0517  0.0480  0.0178
 1285BOLB   PO230830  36.108  20.893  19.985 -0.0335  0.2063 -0.2079
 1285BOLB   GL330831  36.333  20.965  19.673  0.0218  0.3256  0.0556
 1285BOLB   GL430832  36.663  21.108  19.705  0.1039 -0.0774  0.2976
 1285BOLB   C1C30833  36.550  21.017  19.262 -0.0621 -0.2709 -0.0203
 1285BOLB   C2C30834  36.860  20.848  18.953 -0.2635 -0.0634 -0.1055
 1285BOLB   C3C30835  37.110  20.593  18.757 -0.1394 -0.6634 -0.4177
 1285BOLB   C4C30836  37.538  20.474  18.704  0.4975 -0.1372  0.2106
 1285BOLB   C1D30837  36.910  20.882  19.579  0.1586 -0.3392  0.1742
 1285BOLB   C2D30838  37.201  20.622  19.325 -0.0468 -0.0470  0.0666
 1285BOLB   C3D30839  37.300  20.269  19.163  0.1575  0.3744 -0.3081
 1285BOLB   C4D30840  37.203  19.869  19.317 -0.0578 -0.4134 -0.2280
 1286BOLB   NC130841  13.366  24.121   6.261 -0.2615 -0.1314 -0.0065
 1286BOLB   PO130842  13.271  24.477   5.935 -0.0337  0.1992  0.0397
 1286BOLB   GL130843  13.473  24.788   5.638 -0.2841  0.0296 -0.1043
 1286BOLB   GL230844  13.819  24.749   5.734 -0.2760  0.3266  0.0159
 1286BOLB   C1A30845  13.840  24.953   5.309  0.1385 -0.0104 -0.1090
 1286BOLB   C2A30846  14.200  24.917   5.164 -0.2322 -0.1854  0.4431
 1286BOLB   C3A30847  14.501  25.165   4.979  0.0270  0.0861  0.0536
 1286BOLB   C4A30848  14.744  25.525   4.828 -0.2705 -0.0668 -0.0982
 1286BOLB   C1B30849  14.024  24.417   5.856  0.1416  0.1017  0.2023
 1286BOLB   C2B30850  14.512  24.369   5.768 -0.0304 -0.0758 -0.0655
 1286BOLB   C3B30851  14.954  24.370   5.774 -0.1538 -0.1075  0.0575
 1286BOLB   C4B30852  15.311  24.350   5.749 -0.2340 -0.0108 -0.0804
 1286BOLB   NC230853  17.594  25.353   4.475  0.0415  0.1875  0.4069
 1286BOLB   PO230854  17.144  25.418   4.488  0.1744  0.0330 -0.0452
 1286BOLB   GL330855  16.883  25.391   4.785  0.0612  0.1746 -0.1557
 1286BOLB   GL430856  16.888  25.192   4.947  0.1387  0.0161 -0.2325
 1286BOLB   C1C30857  16.404  25.585   4.907 -0.4765 -0.0558  0.2010
 1286BOLB   C2C30858  16.055  25.555   4.791  0.2238 -0.1612  0.0014
 1286BOLB   C3C30859  15.575  25.675   4.850 -0.1131  0.1316 -0.0802
 1286BOLB   C4C30860  15.116  25.736   4.847  0.3562  0.0685  0.0984
 1286BOLB   C1D30861  16.607  25.196   5.206  0.0277 -0.0143 -0.0336
 1286BOLB   C2D30862  16.173  25.307   5.372  0.0629  0.0851  0.2256
 1286BOLB   C3D30863  15.757  25.440   5.221 -0.4059  0.1532 -0.0290
 1286BOLB   C4D30864  15.379  25.215   5.187 -0.3087 -0.0811 -0.0899
 1287BOLB   NC130865   1.957  31.790   6.673  0.2117 -0.0439 -0.1359
 1287BOLB   PO130866   2.196  32.083   6.671 -0.1229 -0.0691  0.0416
 1287BOLB   GL130867   2.434  31.661   6.649 -0.0433  0.4882  0.0325
 1287BOLB   GL230868   2.361  31.432   6.855 -0.0391  0.2141 -0.0604
 1287BOLB   C1A30869   2.713  31.323   6.431 -0.1729 -0.1083 -0.2153
 1287BOLB   C2A30870   3.109  31.019   6.505  0.1304 -0.1285  0.0270
 1287BOLB   C3A30871   3.208  30.835   6.882 -0.1804 -0.2742 -0.3042
 1287BOLB   C4A30872   3.354  30.463   6.985 -0.0873 -0.1687 -0.3151
 1287BOLB   C1B30873   2.746  31.280   6.911 -0.1599  0.0946  0.0353
 1287BOLB   C2B30874   3.025  31.170   7.236 -0.1463  0.0609  0.4620
 1287BOLB   C3B30875   3.091  30.843   7.441  0.0885  0.1306  0.4855
 1287BOLB   C4B30876   3.315  30.555   7.447 -0.0727 -0.2158 -0.0541
 1287BOLB   NC230877   4.517  28.386   7.867  0.2697  0.0589  0.4002
 1287BOLB   PO230878   4.257  28.551   7.735  0.2456 -0.3350  0.0256
 1287BOLB   GL330879   4.300  28.924   7.727 -0.1531 -0.1843 -0.0825
 1287BOLB   GL430880   4.621  28.888   7.840  0.3005 -0.0349  0.2225
 1287BOLB   C1C30881   4.126  29.360   7.613  0.3086 -0.1799  0.0403
 1287BOLB   C2C30882   3.996  29.721   7.418 -0.0445 -0.0170  0.3247
 1287BOLB   C3C30883   3.783  30.015   7.095  0.0533 -0.0478  0.0768
 1287BOLB   C4C30884   3.652  30.107   6.862  0.2456  0.2293 -0.3285
 1287BOLB   C1D30885   4.706  29.232   7.732  0.3147 -0.3362 -0.2101
 1287BOLB   C2D30886   4.486  29.618   7.771 -0.0086 -0.3876 -0.0659
 1287BOLB   C3D30887   4.328  30.016   7.753 -0.0239 -0.1997 -0.2747
 1287BOLB   C4D30888   4.339  30.419   7.706  0.5292 -0.2753  0.0730
 1288BOLB   NC130889  13.868  17.927  10.609 -0.2205 -0.0001 -0.0321
 1288BOLB   PO130890  13.815  17.511  10.620  0.0273 -0.0273  0.3844
 1288BOLB   GL130891  14.113  17.333  10.761 -0.1852  0.1628 -0.5782
 1288BOLB   GL230892  14.257  17.751  10.896 -0.2370 -0.0792  0.0560
 1288BOLB   C1A30893  14.306  17.125  11.084 -0.4105 -0.2051  0.0406
 1288BOLB   C2A30894  14.720  17.017  11.092 -0.2644 -0.1477 -0.0237
 1288BOLB   C3A30895  15.150  17.030  11.115 -0.0920 -0.1974 -0.0423
 1288BOLB   C4A30896  15.505  16.785  11.083 -0.2957 -0.0704  0.1213
 1288BOLB   C1B30897  14.584  17.570  11.032  0.0203 -0.4549 -0.2224
 1288BOLB   C2B30898  14.959  17.553  11.118  0.0931 -0.2269  0.2419
 1288BOLB   C3B30899  15.363  17.612  11.041  0.0478  0.1078  0.0153
 1288BOLB   C4B30900  15.689  17.285  11.189  0.0433 -0.0003  0.1628
 1288BOLB   NC230901  17.803  15.850  12.278 -0.1103 -0.0869 -0.0732
 1288BOLB   PO230902  17.449  15.688  12.363  0.1102  0.0365 -0.0820
 1288BOLB   GL330903  16.991  15.888  12.348  0.1116  0.1095  0.2608
 1288BOLB   GL430904  16.813  15.770  12.548  0.0890  0.1183  0.1586
 1288BOLB   C1C30905  16.773  16.054  11.892 -0.0852  0.4356  0.2639
 1288BOLB   C2C30906  16.485  16.257  11.608 -0.4711 -0.1522  0.2551
 1288BOLB   C3C30907  16.201  16.398  11.263 -0.0533  0.1358  0.0302
 1288BOLB   C4C30908  15.834  16.485  11.016  0.2276  0.3134 -0.2253
 1288BOLB   C1D30909  16.468  16.126  12.402  0.3470  0.0323  0.2144
 1288BOLB   C2D30910  16.193  16.110  12.060  0.0571 -0.0631 -0.0460
 1288BOLB   C3D30911  16.020  16.359  11.726  0.1643  0.4557 -0.0583
 1288BOLB   C4D30912  15.617  16.351  11.463  0.0281  0.1490  0.0037
 1289BOLB   NC130913  12.654  18.917   4.152 -0.1471  0.0428  0.1670
 1289BOLB   PO130914  12.395  19.300   4.092 -0.0652  0.0923  0.0556
 1289BOLB   GL130915  12.637  19.156   3.675 -0.0255 -0.0136 -0.0074
 1289BOLB   GL230916  12.586  18.854   3.671 -0.1206  0.1662  0.0738
 1289BOLB   C1A30917  12.972  19.082   3.366  0.0844  0.1200  0.4013
 1289BOLB   C2A30918  13.366  19.006   3.419 -0.0091 -0.0463 -0.3260
 1289BOLB   C3A30919  13.821  19.149   3.517  0.4097 -0.3746  0.2957
 1289BOLB   C4A30920  14.197  19.341   3.295  0.2448 -0.3231 -0.3200
 1289BOLB   C1B30921  12.847  18.556   3.489  0.1281  0.0897  0.0875
 1289BOLB   C2B30922  12.991  18.416   3.202  0.0584  0.1196 -0.1686
 1289BOLB   C3B30923  13.206  18.097   3.163 -0.3960  0.0599 -0.0659
 1289BOLB   C4B30924  13.610  17.928   3.104  0.2594 -0.2091 -0.2391
 1289BOLB   NC230925  15.920  19.751   1.228  0.2183  0.1260 -0.0154
 1289BOLB   PO230926  15.556  19.535   1.564  0.0622  0.0517  0.2427
 1289BOLB   GL330927  15.379  19.211   1.764 -0.0286 -0.1717  0.0959
 1289BOLB   GL430928  15.358  19.406   2.005 -0.0105 -0.1243  0.0489
 1289BOLB   C1C30929  15.251  18.902   2.065  0.0714  0.2158 -0.0999
 1289BOLB   C2C30930  14.752  18.798   2.322 -0.4265 -0.1632  0.0212
 1289BOLB   C3C30931  14.608  18.837   2.735 -0.3317  0.4046 -0.3464
 1289BOLB   C4C30932  14.560  19.171   3.062  0.2498 -0.1552 -0.2403
 1289BOLB   C1D30933  15.065  19.652   2.079 -0.2538 -0.1431  0.1103
 1289BOLB   C2D30934  14.826  19.790   2.428 -0.1876 -0.2605  0.2795
 1289BOLB   C3D30935  14.412  19.901   2.381  0.3521 -0.1814 -0.1380
 1289BOLB   C4D30936  14.073  19.676   2.235 -0.1128  0.0397 -0.1341
 1290BOLB   NC130937   9.683  27.783  12.907  0.1529 -0.1152  0.1838
 1290BOLB   PO130938   9.943  28.021  13.067 -0.0534  0.0919 -0.0299
 1290BOLB   GL130939  10.039  28.454  13.058  0.2013 -0.0038  0.3952
 1290BOLB   GL230940  10.102  28.493  12.739  0.0107 -0.1628  0.1373
 1290BOLB   C1A30941  10.146  28.886  13.209 -0.0979  0.0771 -0.0858
 1290BOLB   C2A30942  10.152  29.349  13.187  0.2875  0.1481 -0.2416
 1290BOLB   C3A30943  10.253  29.662  13.344 -0.1413 -0.0766  0.0316
 1290BOLB   C4A30944  10.244  29.782  13.741 -0.3032 -0.1533 -0.2701
 1290BOLB   C1B30945  10.483  28.684  12.741  0.0186 -0.0802  0.0706
 1290BOLB   C2B30946  10.655  28.999  13.067 -0.2720  0.3737  0.0168
 1290BOLB   C3B30947  10.949  29.168  13.404 -0.1207  0.1523 -0.1858
 1290BOLB   C4B30948  10.945  29.222  13.828  0.0409  0.0518 -0.4403
 1290BOLB   NC230949  10.877  31.767  14.856  0.0560  0.1347  0.1120
 1290BOLB   PO230950  11.227  31.785  14.647 -0.1338 -0.0339 -0.2254
 1290BOLB   GL330951  11.113  31.460  14.428  0.0476  0.0274 -0.1522
 1290BOLB   GL430952  11.290  31.125  14.491  0.2860  0.1251  0.3243
 1290BOLB   C1C30953  10.743  31.032  14.430  0.2831  0.0712  0.1033
 1290BOLB   C2C30954  10.702  30.632  14.143 -0.0570 -0.3547  0.4394
 1290BOLB   C3C30955  10.637  30.270  14.241  0.0085  0.2297 -0.0015
 1290BOLB   C4C30956  10.515  30.017  14.015  0.1078  0.0723 -0.0314
 1290BOLB   C1D30957  11.170  30.967  14.117 -0.1960 -0.1632 -0.1443
 1290BOLB   C2D30958  11.155  30.969  13.682 -0.1688 -0.0152 -0.0701
 1290BOLB   C3D30959  11.252  30.614  13.349  0.1067  0.1936  0.0959
 1290BOLB   C4D30960  11.636  30.560  13.316  0.4742 -0.1684 -0.2539
 1291BOLB   NC130961  15.225  21.384   7.447 -0.2649 -0.0919 -0.0756
 1291BOLB   PO130962  15.304  21.060   7.789 -0.1670  0.1424  0.1351
 1291BOLB   GL130963  15.708  21.046   7.678 -0.0532 -0.0333  0.1180
 1291BOLB   GL230964  15.597  20.860   7.346  0.0140  0.0001 -0.2056
 1291BOLB   C1A30965  16.029  21.016   7.586 -0.5575  0.0657  0.0447
 1291BOLB   C2A30966  16.405  21.305   7.548  0.2528  0.0287 -0.5286
 1291BOLB   C3A30967  16.633  21.699   7.547 -0.1460  0.0838 -0.3692
 1291BOLB   C4A30968  16.973  22.008   7.493 -0.3104  0.0545 -0.2108
 1291BOLB   C1B30969  15.744  21.158   7.074  0.5743  0.0457  0.0622
 1291BOLB   C2B30970  16.164  21.246   7.065  0.0859 -0.5049  0.2191
 1291BOLB   C3B30971  16.599  21.202   7.107  0.0635  0.0495  0.0886
 1291BOLB   C4B30972  16.970  21.372   7.181 -0.4766 -0.2769 -0.3273
 1291BOLB   NC230973  19.537  22.660   8.199  0.2868  0.4007 -0.2951
 1291BOLB   PO230974  19.260  22.841   7.974  0.0738 -0.0304  0.0153
 1291BOLB   GL330975  18.825  22.769   7.811 -0.0651 -0.2945 -0.2881
 1291BOLB   GL430976  18.756  22.489   7.631 -0.1755 -0.0666  0.2448
 1291BOLB   C1C30977  18.404  22.940   7.769  0.1371 -0.1000 -0.0657
 1291BOLB   C2C30978  18.039  22.780   7.816  0.1399 -0.2530  0.1486
 1291BOLB   C3C30979  17.678  22.483   7.859 -0.3829 -0.1916  0.1134
 1291BOLB   C4C30980  17.305  22.221   7.707 -0.0713 -0.0944 -0.1134
 1291BOLB   C1D30981  18.884  22.197   7.248 -0.0428  0.1145 -0.0190
 1291BOLB   C2D30982  18.647  22.116   6.739  0.2364  0.0898  0.0216
 1291BOLB   C3D30983  18.520  21.870   6.235 -0.2990  0.2336 -0.2193
 1291BOLB   C4D30984  18.156  21.846   6.066  0.0248  0.0700  0.1218
 1292BOLB   NC130985   6.394  32.355   4.614  0.1084 -0.0410  0.2182
 1292BOLB   PO130986   6.402  32.248   4.982  0.2965 -0.0991  0.1314
 1292BOLB   GL130987   6.675  31.946   5.133  0.1985  0.0461 -0.3218
 1292BOLB   GL230988   6.766  31.763   4.901  0.2803 -0.1581 -0.0594
 1292BOLB   C1A30989   6.552  31.593   5.388  0.1956  0.0791  0.1247
 1292BOLB   C2A30990   6.550  31.263   5.683  0.1429  0.1393 -0.2112
 1292BOLB   C3A30991   6.466  30.687   5.572 -0.0567  0.1037 -0.1516
 1292BOLB   C4A30992   6.212  30.306   5.472 -0.0482 -0.2396  0.0606
 1292BOLB   C1B30993   6.746  31.254   4.845 -0.1518  0.1352 -0.2777
 1292BOLB   C2B30994   6.708  30.860   5.023 -0.2049 -0.1431 -0.2912
 1292BOLB   C3B30995   6.457  30.661   4.939 -0.0451 -0.0573  0.3012
 1292BOLB   C4B30996   6.093  30.712   5.229  0.0775  0.0487  0.0153
 1292BOLB   NC230997   5.706  31.690   4.033  0.0970 -0.0467  0.2507
 1292BOLB   PO230998   5.452  31.434   4.125  0.2323 -0.0182  0.0572
 1292BOLB   GL330999   5.512  31.032   4.280 -0.0606 -0.0851 -0.2091
 1292BOLB   GL431000   5.319  30.759   4.208 -0.3140 -0.1498  0.3476
 1292BOLB   C1C31001   5.758  30.704   4.300  0.3631 -0.0302  0.0929
 1292BOLB   C2C31002   5.650  30.337   4.462 -0.0203 -0.2625  0.0867
 1292BOLB   C3C31003   5.446  30.338   4.916  0.0559  0.1764  0.1455
 1292BOLB   C4C31004   5.726  30.310   5.281  0.2966 -0.0563 -0.2216
 1292BOLB   C1D31005   5.300  30.694   4.636 -0.0068 -0.2303 -0.1637
 1292BOLB   C2D31006   5.624  30.756   4.999 -0.0239  0.0027  0.0744
 1292BOLB   C3D31007   5.500  31.157   5.326 -0.3453 -0.1537  0.3604
 1292BOLB   C4D31008   5.072  31.350   5.324 -0.0842 -0.1168 -0.1991
 1293BOLB   NC131009  37.861  11.396   0.683 -0.2911 -0.0814  0.1818
 1293BOLB   PO131010  37.935  11.754   0.590 -0.0446 -0.0381 -0.1266
 1293BOLB   GL131011  38.072  11.888   1.020 -0.1752 -0.2250 -0.0251
 1293BOLB   GL231012  37.972  11.770   1.425 -0.3315  0.0958  0.0100
 1293BOLB   C1A31013  38.038  12.233   1.267 -0.1311  0.1101 -0.1668
 1293BOLB   C2A31014  37.869  12.625   1.440  0.1121 -0.0203  0.0737
 1293BOLB   C3A31015  37.529  12.981   1.505  0.1842  0.0476  0.4684
 1293BOLB   C4A31016  37.142  13.021   1.529  0.0385  0.1615 -0.3937
 1293BOLB   C1B31017  37.904  11.514   1.752  0.2734 -0.3573  0.3715
 1293BOLB   C2B31018  37.689  11.543   2.216  0.2656 -0.0437  0.1351
 1293BOLB   C3B31019  37.519  11.733   2.619  0.3740  0.2544 -0.0307
 1293BOLB   C4B31020  37.217  11.984   2.773  0.1004 -0.1576 -0.0114
 1293BOLB   NC231021  34.879  12.691   1.463  0.1395  0.0721  0.0357
 1293BOLB   PO231022  35.061  12.380   1.807  0.0064 -0.1527  0.1188
 1293BOLB   GL331023  35.487  12.306   1.862  0.0910  0.1584 -0.2404
 1293BOLB   GL431024  35.631  12.550   1.691  0.2185 -0.0439  0.2448
 1293BOLB   C1C31025  35.803  12.063   1.856 -0.1217  0.0994  0.1732
 1293BOLB   C2C31026  36.108  12.296   1.686 -0.0025  0.3567  0.2325
 1293BOLB   C3C31027  36.313  12.564   1.368 -0.2122 -0.1082  0.3677
 1293BOLB   C4C31028  36.711  12.892   1.371  0.3697 -0.0536 -0.2313
 1293BOLB   C1D31029  36.053  12.744   1.936  0.0188  0.2002 -0.0560
 1293BOLB   C2D31030  35.929  13.116   2.137 -0.2453  0.2342 -0.1306
 1293BOLB   C3D31031  35.816  13.467   2.316 -0.1695 -0.3358  0.0826
 1293BOLB   C4D31032  35.607  13.836   2.619 -0.3882 -0.0791  0.0087
 1294BOLB   NC131033   2.546  25.319  15.365 -0.1526  0.0884 -0.1243
 1294BOLB   PO131034   2.119  25.194  15.647  0.1731 -0.1968  0.0786
 1294BOLB   GL131035   1.843  25.507  15.739 -0.1548 -0.0242  0.1815
 1294BOLB   GL231036   1.727  25.383  16.001  0.0246  0.2223 -0.1987
 1294BOLB   C1A31037   1.898  25.887  15.762  0.3439 -0.0713 -0.2034
 1294BOLB   C2A31038   1.827  26.290  15.764  0.2648  0.1688  0.2732
 1294BOLB   C3A31039   1.678  26.667  16.029  0.1782 -0.0563 -0.1508
 1294BOLB   C4A31040   1.548  27.097  16.309  0.3592  0.2602  0.1118
 1294BOLB   C1B31041   1.663  25.673  16.274  0.2465 -0.1517  0.1646
 1294BOLB   C2B31042   1.636  25.914  16.640 -0.2352 -0.0273 -0.2509
 1294BOLB   C3B31043   1.374  26.213  16.809  0.1157 -0.0264 -0.2300
 1294BOLB   C4B31044   0.996  26.464  16.871 -0.1406  0.1803 -0.1903
 1294BOLB   NC231045   0.608  28.565  17.953 -0.0401 -0.2368  0.1490
 1294BOLB   PO231046   0.831  28.938  17.670  0.4822  0.4725 -0.1754
 1294BOLB   GL331047   0.752  28.718  17.347 -0.1208 -0.0519  0.1376
 1294BOLB   GL431048   1.048  28.911  17.212 -0.1068  0.0920 -0.1450
 1294BOLB   C1C31049   0.848  28.466  16.986  0.1020 -0.1052  0.1463
 1294BOLB   C2C31050   0.825  28.043  16.700 -0.1413  0.2439 -0.1887
 1294BOLB   C3C31051   1.057  27.691  16.503 -0.1854 -0.0301  0.0662
 1294BOLB   C4C31052   1.242  27.333  16.443  0.2082  0.1184 -0.0113
 1294BOLB   C1D31053   1.304  28.566  17.157 -0.1353 -0.4474  0.0704
 1294BOLB   C2D31054   1.673  28.439  16.959 -0.2418  0.0447  0.1166
 1294BOLB   C3D31055   2.019  28.126  16.906  0.2083  0.0431 -0.0095
 1294BOLB   C4D31056   1.959  27.765  16.853 -0.0371  0.2195 -0.0990
 1295BOLB   NC131057  12.083  20.115   3.101 -0.2417 -0.0694  0.0397
 1295BOLB   PO131058  11.638  19.957   3.159  0.3222  0.1576 -0.1398
 1295BOLB   GL131059  11.721  19.661   2.844  0.0204 -0.2475  0.1211
 1295BOLB   GL231060  11.942  19.435   2.854  0.2138  0.1247 -0.1228
 1295BOLB   C1A31061  11.577  19.726   2.333 -0.0176  0.1757 -0.1127
 1295BOLB   C2A31062  11.799  19.569   1.963  0.0018  0.0747  0.1503
 1295BOLB   C3A31063  12.024  19.508   1.711  0.0035  0.2313 -0.1256
 1295BOLB   C4A31064  12.321  19.319   1.444  0.0215 -0.0600  0.0871
 1295BOLB   C1B31065  12.095  19.330   2.500 -0.2040  0.1354 -0.2236
 1295BOLB   C2B31066  12.370  19.372   2.157  0.1888  0.2839 -0.0053
 1295BOLB   C3B31067  12.525  19.613   1.859  0.1559 -0.2497 -0.2633
 1295BOLB   C4B31068  12.840  19.801   1.622  0.2026 -0.0311  0.1323
 1295BOLB   NC231069  14.385  18.400   0.028 -0.0490  0.1226  0.0926
 1295BOLB   PO231070  14.453  18.431   0.380 -0.3187 -0.1171 -0.0113
 1295BOLB   GL331071  14.161  18.550   0.750  0.0336 -0.1225 -0.0252
 1295BOLB   GL431072  14.336  18.290   1.075 -0.0324 -0.0065  0.1184
 1295BOLB   C1C31073  13.722  18.810   0.841 -0.1154  0.1936 -0.0973
 1295BOLB   C2C31074  13.497  18.976   1.117  0.2927 -0.1949 -0.2460
 1295BOLB   C3C31075  13.089  19.180   1.118 -0.3003 -0.0266  0.2410
 1295BOLB   C4C31076  12.704  19.164   1.352  0.3135  0.3093 -0.0932
 1295BOLB   C1D31077  14.251  17.909   1.300 -0.0223 -0.1876  0.3183
 1295BOLB   C2D31078  13.986  17.910   1.723 -0.2666  0.2444 -0.1279
 1295BOLB   C3D31079  13.827  17.744   2.132 -0.3161 -0.0856  0.0713
 1295BOLB   C4D31080  13.653  17.857   2.531  0.2187 -0.1494 -0.3055
 1296BOLB   NC131081   9.838  25.904   5.615 -0.1778 -0.0197 -0.0387
 1296BOLB   PO131082  10.264  25.882   5.529  0.2478  0.1446 -0.0455
 1296BOLB   GL131083  10.223  26.182   5.238 -0.1864 -0.0042  0.0977
 1296BOLB   GL231084   9.975  26.396   5.245  0.0483  0.0710 -0.0898
 1296BOLB   C1A31085  10.354  26.412   4.914  0.4178  0.2006  0.1158
 1296BOLB   C2A31086  10.386  26.746   4.707 -0.0056  0.3350  0.1059
 1296BOLB   C3A31087  10.288  27.205   4.650 -0.1724 -0.1162  0.2707
 1296BOLB   C4A31088  10.586  27.528   4.459  0.2365 -0.2637  0.0242
 1296BOLB   C1B31089  10.016  26.825   5.019  0.1777 -0.1958 -0.1866
 1296BOLB   C2B31090   9.832  27.228   4.816 -0.3843 -0.2985  0.0107
 1296BOLB   C3B31091   9.954  27.660   4.703 -0.0685  0.0978 -0.3609
 1296BOLB   C4B31092  10.123  27.839   4.352  0.0719 -0.0988 -0.0388
 1296BOLB   NC231093  11.503  28.603   2.480  0.0276  0.3244  0.1673
 1296BOLB   PO231094  11.907  28.796   2.507  0.1987 -0.1133  0.1508
 1296BOLB   GL331095  11.757  28.636   2.909 -0.0606  0.1140  0.0294
 1296BOLB   GL431096  11.767  28.401   2.875 -0.1062  0.0930 -0.2325
 1296BOLB   C1C31097  11.679  28.577   3.346 -0.1056 -0.0515 -0.0625
 1296BOLB   C2C31098  11.440  28.269   3.744  0.0612  0.0487 -0.0630
 1296BOLB   C3C31099  11.227  27.929   3.955  0.0059  0.2890 -0.5458
 1296BOLB   C4C31100  10.869  27.737   4.181 -0.0535  0.0533 -0.3372
 1296BOLB   C1D31101  11.613  28.083   3.190 -0.0352 -0.1447  0.1505
 1296BOLB   C2D31102  11.744  27.759   3.387 -0.0861 -0.1228  0.4157
 1296BOLB   C3D31103  11.365  27.662   3.574  0.4204  0.3843 -0.0940
 1296BOLB   C4D31104  10.984  27.356   3.829  0.0731  0.0539  0.0789
 1297BOLB   NC131105  10.424  14.047   9.982 -0.0287  0.1508 -0.0443
 1297BOLB   PO131106  10.493  14.172  10.412 -0.2324 -0.0734  0.1432
 1297BOLB   GL131107  10.921  14.006  10.225  0.0686 -0.1555  0.0072
 1297BOLB   GL231108  10.927  14.031   9.826 -0.0908 -0.0724 -0.0995
 1297BOLB   C1A31109  11.208  13.612  10.204 -0.2464  0.2841  0.0587
 1297BOLB   C2A31110  11.412  13.239  10.301  0.0268  0.2535 -0.0156
 1297BOLB   C3A31111  11.390  12.869  10.480 -0.1242  0.1783  0.1236
 1297BOLB   C4A31112  11.463  12.490  10.214 -0.0539  0.0499  0.1883
 1297BOLB   C1B31113  11.185  13.679   9.695 -0.3280 -0.1606 -0.0291
 1297BOLB   C2B31114  11.459  13.447   9.575  0.0637 -0.0657  0.0163
 1297BOLB   C3B31115  11.782  13.156   9.386 -0.1208 -0.1032  0.0338
 1297BOLB   C4B31116  11.866  12.829   9.583  0.0674  0.0256  0.0546
 1297BOLB   NC231117  13.482  10.966   9.364  0.0230  0.1623  0.1726
 1297BOLB   PO231118  13.192  11.079   9.712 -0.3848  0.2031 -0.2311
 1297BOLB   GL331119  13.218  11.368   9.506  0.1109 -0.5375  0.0803
 1297BOLB   GL431120  13.197  11.483   9.167  0.1873 -0.1596 -0.1595
 1297BOLB   C1C31121  12.861  11.702   9.486 -0.2205  0.1852  0.2813
 1297BOLB   C2C31122  12.544  12.064   9.667 -0.0592  0.1633  0.3889
 1297BOLB   C3C31123  12.331  12.209   9.994 -0.3195  0.0773  0.0871
 1297BOLB   C4C31124  11.920  12.397   9.910  0.0548  0.2731  0.2361
 1297BOLB   C1D31125  13.133  11.828   9.007 -0.0355 -0.4262 -0.2134
 1297BOLB   C2D31126  13.217  12.216   8.729 -0.1824 -0.1038  0.0678
 1297BOLB   C3D31127  12.832  12.407   8.672  0.0104  0.1194  0.1613
 1297BOLB   C4D31128  12.519  12.681   8.552  0.0133 -0.2625  0.0726
 1298BOLB   NC131129   7.381  14.967  14.538  0.1887 -0.0204  0.0307
 1298BOLB   PO131130   7.651  14.686  14.384  0.2056 -0.2249 -0.2101
 1298BOLB   GL131131   7.575  14.482  14.743 -0.1764 -0.1385  0.0788
 1298BOLB   GL231132   7.598  14.168  14.603  0.2680  0.3376  0.0569
 1298BOLB   C1A31133   7.864  14.361  15.089 -0.1915  0.3103 -0.1673
 1298BOLB   C2A31134   8.121  14.233  15.327  0.1905 -0.1461  0.1049
 1298BOLB   C3A31135   8.271  13.959  15.738  0.1020 -0.3098 -0.5710
 1298BOLB   C4A31136   8.154  13.581  16.081 -0.1254  0.3056 -0.2510
 1298BOLB   C1B31137   8.007  13.904  14.735 -0.2030 -0.0830 -0.0094
 1298BOLB   C2B31138   8.174  13.459  14.944  0.1515  0.4220  0.0469
 1298BOLB   C3B31139   8.452  13.229  15.177 -0.0514 -0.1536  0.1086
 1298BOLB   C4B31140   8.725  13.081  15.382 -0.1550  0.2532 -0.1837
 1298BOLB   NC231141   9.195  11.649  17.725 -0.0172  0.2587 -0.2022
 1298BOLB   PO231142   8.888  12.035  17.543 -0.1401  0.3081  0.1272
 1298BOLB   GL331143   8.864  12.344  17.368  0.1349 -0.1836 -0.2220
 1298BOLB   GL431144   9.234  12.442  17.194 -0.1956  0.1923 -0.1722
 1298BOLB   C1C31145   8.832  12.420  16.870 -0.2495  0.3658  0.0856
 1298BOLB   C2C31146   8.784  12.779  16.584 -0.1168 -0.0717  0.3318
 1298BOLB   C3C31147   8.503  13.007  16.564 -0.0604  0.0467  0.0107
 1298BOLB   C4C31148   8.137  13.172  16.361  0.1643  0.3044  0.2227
 1298BOLB   C1D31149   8.936  12.778  17.107 -0.1245  0.0886  0.1798
 1298BOLB   C2D31150   8.684  13.104  17.028  0.1644 -0.0986  0.3030
 1298BOLB   C3D31151   8.476  13.491  16.984  0.1641  0.2599  0.0598
 1298BOLB   C4D31152   8.628  13.924  17.025  0.0323  0.2195 -0.0280
 1299BOLB   NC131153  38.089  17.870  21.848 -0.2407 -0.2520 -0.0802
 1299BOLB   PO131154  38.209  17.468  21.609 -0.1898 -0.1379 -0.1004
 1299BOLB   GL131155  38.193  17.421  21.146  0.2393  0.0538  0.1230
 1299BOLB   GL231156  38.392  17.509  20.904  0.0945  0.3048 -0.0521
 1299BOLB   C1A31157  37.922  17.170  20.929  0.1095 -0.1395 -0.0095
 1299BOLB   C2A31158  37.884  16.751  20.621 -0.1988  0.1403 -0.1713
 1299BOLB   C3A31159  37.885  16.356  20.303 -0.0303 -0.3400 -0.2068
 1299BOLB   C4A31160  37.883  15.915  20.270 -0.3328  0.1123 -0.0455
 1299BOLB   C1B31161  38.152  17.470  20.608  0.1797 -0.1971  0.1104
 1299BOLB   C2B31162  38.034  17.593  20.156 -0.0606 -0.0471 -0.0915
 1299BOLB   C3B31163  38.003  17.830  19.763  0.0648  0.0338  0.1457
 1299BOLB   C4B31164  37.863  17.889  19.333 -0.1664 -0.1480 -0.0120
 1299BOLB   NC231165  39.621  15.035  21.099 -0.5021 -0.3805  0.3486
 1299BOLB   PO231166  39.632  15.428  21.144 -0.0007 -0.0171 -0.0281
 1299BOLB   GL331167  39.606  15.145  20.600 -0.1081 -0.4422 -0.0423
 1299BOLB   GL431168  39.752  15.452  20.441  0.1032 -0.4076 -0.3431
 1299BOLB   C1C31169  39.379  14.982  20.292 -0.1420  0.6288  0.0764
 1299BOLB   C2C31170  38.953  15.173  20.263 -0.2319 -0.0494  0.1862
 1299BOLB   C3C31171  38.483  15.153  20.102 -0.0491  0.2010 -0.2788
 1299BOLB   C4C31172  38.167  15.587  20.124  0.0726  0.0548  0.4498
 1299BOLB   C1D31173  39.708  15.225  20.044  0.0730 -0.2126 -0.0575
 1299BOLB   C2D31174  39.717  15.307  19.618  0.0461  0.4336  0.0259
 1299BOLB   C3D31175  39.711  15.535  19.120  0.1431 -0.2762 -0.0092
 1299BOLB   C4D31176  39.432  15.461  18.711 -0.1195 -0.1703  0.0582
 1300BOLB   NC131177   4.249  28.482  10.819 -0.0664 -0.0309  0.1464
 1300BOLB   PO131178   4.514  28.724  10.657 -0.1428 -0.0212 -0.0981
 1300BOLB   GL131179   4.660  29.068  10.755 -0.4188 -0.2237 -0.0428
 1300BOLB   GL231180   4.682  29.281  10.538 -0.0065  0.0470  0.1164
 1300BOLB   C1A31181   4.576  29.395  11.041 -0.1028 -0.1095  0.0153
 1300BOLB   C2A31182   4.446  29.732  11.320 -0.0731 -0.0661 -0.3576
 1300BOLB   C3A31183   4.326  30.021  11.520 -0.1229 -0.0838 -0.0062
 1300BOLB   C4A31184   4.193  30.357  11.626 -0.0403 -0.0875  0.2099
 1300BOLB   C1B31185   4.670  29.718  10.687  0.1560 -0.0992 -0.3890
 1300BOLB   C2B31186   4.423  29.996  10.796 -0.3323 -0.0152  0.0027
 1300BOLB   C3B31187   4.302  30.306  10.508 -0.1107 -0.0972 -0.1123
 1300BOLB   C4B31188   4.237  30.221  10.044 -0.1348  0.2178  0.1786
 1300BOLB   NC231189   3.348  32.764  12.753 -0.3098 -0.0167  0.0126
 1300BOLB   PO231190   3.117  32.519  12.496  0.1245  0.0936  0.1260
 1300BOLB   GL331191   3.463  32.221  12.555 -0.2638 -0.0717 -0.1918
 1300BOLB   GL431192   3.233  31.883  12.695 -0.2560 -0.0318 -0.0141
 1300BOLB   C1C31193   3.811  31.862  12.640  0.1045 -0.0585  0.1519
 1300BOLB   C2C31194   4.044  31.481  12.563 -0.0532  0.1464 -0.3296
 1300BOLB   C3C31195   4.215  31.081  12.243 -0.2869  0.1961 -0.3926
 1300BOLB   C4C31196   4.193  30.665  12.104  0.1953 -0.1037  0.0114
 1300BOLB   C1D31197   3.496  31.621  12.973  0.2239 -0.0270 -0.0633
 1300BOLB   C2D31198   3.819  31.659  13.236  0.0583  0.1052  0.2944
 1300BOLB   C3D31199   4.090  31.522  13.590  0.0367  0.0968  0.0291
 1300BOLB   C4D31200   4.262  31.083  13.464  0.2764 -0.1990 -0.1836
 1301BOLB   NC131201  10.645  17.436   3.481 -0.1355  0.0851  0.1415
 1301BOLB   PO131202  10.943  17.330   3.898  0.1046  0.1448 -0.0167
 1301BOLB   GL131203  11.134  17.177   3.481  0.0142  0.0786 -0.0438
 1301BOLB   GL231204  10.937  16.907   3.323 -0.3117  0.0285 -0.2121
 1301BOLB   C1A31205  11.557  17.000   3.457  0.0806 -0.4022 -0.2323
 1301BOLB   C2A31206  11.832  16.760   3.218  0.0444 -0.1721 -0.0783
 1301BOLB   C3A31207  12.016  16.658   2.713 -0.0418 -0.5251 -0.3305
 1301BOLB   C4A31208  12.076  16.366   2.404 -0.1282  0.3175 -0.0044
 1301BOLB   C1B31209  11.285  16.606   3.343 -0.3077  0.2732 -0.0939
 1301BOLB   C2B31210  11.689  16.376   3.483 -0.1008 -0.1714  0.0582
 1301BOLB   C3B31211  12.013  16.093   3.332 -0.0465 -0.3154 -0.0753
 1301BOLB   C4B31212  12.395  15.902   3.121  0.1676 -0.0846 -0.1986
 1301BOLB   NC231213  12.322  14.832   0.750 -0.0314 -0.0902  0.1425
 1301BOLB   PO231214  11.963  14.962   0.563  0.2031  0.3759  0.0139
 1301BOLB   GL331215  11.916  15.242   0.806  0.4320  0.1149 -0.3281
 1301BOLB   GL431216  11.884  15.029   1.092 -0.1259  0.2469  0.0761
 1301BOLB   C1C31217  11.724  15.568   1.081 -0.2706 -0.0815 -0.3543
 1301BOLB   C2C31218  11.855  15.903   1.450  0.0045  0.2158 -0.0688
 1301BOLB   C3C31219  11.610  16.018   1.868 -0.2252 -0.1121 -0.0979
 1301BOLB   C4C31220  11.819  15.988   2.281 -0.0588 -0.0530  0.1088
 1301BOLB   C1D31221  11.404  15.107   1.368 -0.0885 -0.0983 -0.2597
 1301BOLB   C2D31222  11.211  15.350   1.585 -0.0821  0.0914 -0.1963
 1301BOLB   C3D31223  11.145  15.593   1.875  0.0708 -0.2791  0.0201
 1301BOLB   C4D31224  11.063  16.062   1.911  0.0154 -0.2836  0.0830
 1302BOLB   NC131225   8.571  16.177  14.674 -0.4243 -0.1928 -0.1600
 1302BOLB   PO131226   8.555  15.830  15.043  0.5225 -0.1867 -0.1537
 1302BOLB   GL131227   8.531  15.585  15.414  0.0279  0.2241 -0.0757
 1302BOLB   GL231228   8.854  15.554  15.379 -0.0116  0.0130 -0.0955
 1302BOLB   C1A31229   8.576  15.227  15.710  0.1881 -0.0938 -0.0579
 1302BOLB   C2A31230   8.641  14.862  15.869 -0.0380 -0.1934 -0.1302
 1302BOLB   C3A31231   8.516  14.601  16.188 -0.0583 -0.4407 -0.1174
 1302BOLB   C4A31232   8.762  14.254  16.346  0.1485  0.1688  0.0347
 1302BOLB   C1B31233   9.071  15.322  15.702  0.0238 -0.0823 -0.1109
 1302BOLB   C2B31234   9.336  15.067  15.866  0.1684  0.3619 -0.1131
 1302BOLB   C3B31235   9.490  14.951  16.247  0.2238  0.0457 -0.1538
 1302BOLB   C4B31236   9.686  14.748  16.645  0.1610 -0.4664  0.0182
 1302BOLB   NC231237   9.416  12.409  18.069  0.0793  0.2303 -0.1553
 1302BOLB   PO231238   9.240  12.829  18.131  0.2995  0.2050  0.1537
 1302BOLB   GL331239   9.002  13.147  17.996  0.1773 -0.0329  0.2230
 1302BOLB   GL431240   8.619  13.181  18.154  0.2140  0.0196 -0.3441
 1302BOLB   C1C31241   8.814  13.333  17.595 -0.0715 -0.2392  0.1419
 1302BOLB   C2C31242   8.923  13.545  17.217  0.0750  0.2098  0.0544
 1302BOLB   C3C31243   9.181  13.746  16.747  0.0832  0.3487  0.0467
 1302BOLB   C4C31244   9.065  14.105  16.555  0.0973 -0.0662  0.1406
 1302BOLB   C1D31245   8.492  13.534  17.928 -0.0482 -0.2244 -0.1638
 1302BOLB   C2D31246   8.603  13.840  17.606  0.0795  0.3829  0.1046
 1302BOLB   C3D31247   8.742  14.255  17.547  0.2242  0.2260 -0.0847
 1302BOLB   C4D31248   8.664  14.619  17.839 -0.3086  0.1985  0.2246
 1303BOLB   NC131249   4.124   7.160  13.684 -0.1192  0.3496  0.0504
 1303BOLB   PO131250   4.111   7.257  13.248  0.0688  0.1877  0.0011
 1303BOLB   GL131251   3.933   7.422  12.897  0.2017  0.0361  0.0407
 1303BOLB   GL231252   3.848   7.264  12.732 -0.3150 -0.3202  0.0630
 1303BOLB   C1A31253   4.002   7.624  12.470  0.1531 -0.3080  0.1524
 1303BOLB   C2A31254   3.906   8.145  12.274 -0.0905  0.0912 -0.2999
 1303BOLB   C3A31255   3.573   8.524  12.209 -0.0803  0.1894  0.0958
 1303BOLB   C4A31256   3.342   9.008  12.254  0.1605  0.0461 -0.0657
 1303BOLB   C1B31257   3.556   7.428  12.451 -0.0968  0.1333 -0.1095
 1303BOLB   C2B31258   3.478   7.852  12.357 -0.1624 -0.1621  0.2289
 1303BOLB   C3B31259   3.418   8.113  11.989  0.2001  0.1057  0.0808
 1303BOLB   C4B31260   3.063   8.263  11.727 -0.3040  0.1272 -0.0445
 1303BOLB   NC231261   4.644   7.933  13.395 -0.2227 -0.0523  0.2593
 1303BOLB   PO231262   4.898   8.345  13.277  0.0765 -0.1621 -0.1725
 1303BOLB   GL331263   4.588   8.789  13.114  0.2140  0.0871  0.0231
 1303BOLB   GL431264   4.468   8.644  12.863 -0.0313 -0.1758 -0.1479
 1303BOLB   C1C31265   4.225   9.109  13.317  0.0269 -0.0080  0.0482
 1303BOLB   C2C31266   3.766   9.260  13.323 -0.0808  0.0747  0.0264
 1303BOLB   C3C31267   3.493   9.411  13.019  0.4461 -0.0479 -0.1202
 1303BOLB   C4C31268   3.312   9.298  12.566 -0.2490  0.0825  0.1164
 1303BOLB   C1D31269   4.706   8.912  12.583 -0.1039 -0.4873 -0.0482
 1303BOLB   C2D31270   4.982   9.276  12.483  0.2754 -0.1980 -0.0247
 1303BOLB   C3D31271   5.183   9.616  12.219 -0.2203 -0.2518  0.0695
 1303BOLB   C4D31272   5.390   9.626  11.845 -0.1188  0.3817 -0.1615
 1304BOLB   NC131273  13.474  20.983  14.007  0.1425  0.1374  0.1731
 1304BOLB   PO131274  13.532  21.244  14.366  0.1011  0.1025 -0.1076
 1304BOLB   GL131275  13.821  21.329  14.599 -0.0827  0.3194 -0.2064
 1304BOLB   GL231276  14.038  21.555  14.437  0.0970  0.0707  0.4409
 1304BOLB   C1A31277  14.210  20.964  14.596 -0.0416 -0.2194  0.0098
 1304BOLB   C2A31278  14.572  20.631  14.694 -0.0150 -0.1684 -0.0349
 1304BOLB   C3A31279  14.983  20.401  14.884  0.1836  0.2231  0.0438
 1304BOLB   C4A31280  15.343  20.242  15.072 -0.1543 -0.0357  0.1115
 1304BOLB   C1B31281  14.456  21.533  14.608 -0.0452  0.1667  0.1760
 1304BOLB   C2B31282  14.878  21.509  14.818 -0.1457  0.2700 -0.3320
 1304BOLB   C3B31283  15.363  21.331  14.900  0.2646 -0.0654 -0.1385
 1304BOLB   C4B31284  15.793  21.388  14.778 -0.1520  0.3833  0.0816
 1304BOLB   NC231285  16.955  19.424  16.629  0.3191 -0.1600  0.2917
 1304BOLB   PO231286  17.085  19.829  16.443  0.0860  0.1169 -0.2845
 1304BOLB   GL331287  16.678  19.869  16.331  0.1396 -0.1423  0.0535
 1304BOLB   GL431288  16.574  19.641  16.378 -0.1576 -0.1283  0.0848
 1304BOLB   C1C31289  16.468  20.126  16.015 -0.4002 -0.0765  0.0231
 1304BOLB   C2C31290  16.270  20.147  15.742  0.1914 -0.0969  0.2918
 1304BOLB   C3C31291  15.957  19.884  15.478  0.2628 -0.0457  0.2829
 1304BOLB   C4C31292  15.693  19.951  15.135 -0.0564  0.2503  0.0632
 1304BOLB   C1D31293  16.329  19.615  15.922 -0.0999 -0.0152  0.1811
 1304BOLB   C2D31294  15.981  19.443  15.653  0.3099  0.0975 -0.3129
 1304BOLB   C3D31295  15.579  19.439  15.390 -0.2443  0.2024  0.1246
 1304BOLB   C4D31296  15.259  19.241  15.140  0.0154  0.2832 -0.0707
 1305BOLB   NC131297   7.084  13.967   5.446 -0.0284  0.1380  0.2740
 1305BOLB   PO131298   7.543  14.111   5.617 -0.0173  0.1968 -0.1447
 1305BOLB   GL131299   7.470  13.737   5.653  0.0922  0.1934  0.2017
 1305BOLB   GL231300   7.449  13.487   5.925  0.3748 -0.1348  0.0875
 1305BOLB   C1A31301   7.454  13.444   5.419 -0.2172  0.0085  0.2909
 1305BOLB   C2A31302   7.546  13.030   5.308  0.3385  0.0602 -0.0361
 1305BOLB   C3A31303   7.672  12.717   5.000 -0.1386 -0.1037 -0.0396
 1305BOLB   C4A31304   7.986  12.505   4.763  0.1604  0.0626  0.4797
 1305BOLB   C1B31305   7.331  13.077   5.834 -0.2296 -0.1518  0.3706
 1305BOLB   C2B31306   7.402  12.668   5.996 -0.2448 -0.0496 -0.1059
 1305BOLB   C3B31307   7.176  12.267   5.828 -0.0016  0.1203 -0.1642
 1305BOLB   C4B31308   7.193  11.989   6.120  0.1831 -0.2380  0.0705
 1305BOLB   NC231309   9.233  10.284   4.223  0.3328  0.0519  0.3345
 1305BOLB   PO231310   9.331  10.687   3.993  0.2649 -0.0318  0.0280
 1305BOLB   GL331311   9.128  11.031   4.159 -0.0088 -0.1007 -0.1297
 1305BOLB   GL431312   9.409  11.196   4.329 -0.4027 -0.1304 -0.1380
 1305BOLB   C1C31313   8.879  11.316   4.318 -0.0386 -0.0340  0.0548
 1305BOLB   C2C31314   8.729  11.631   4.505  0.1926  0.3232  0.0045
 1305BOLB   C3C31315   8.367  11.834   4.437 -0.1937 -0.3531  0.1458
 1305BOLB   C4C31316   8.210  12.273   4.491 -0.0290  0.2680  0.0031
 1305BOLB   C1D31317   9.211  11.713   4.383  0.0923 -0.1388  0.0525
 1305BOLB   C2D31318   9.122  12.075   4.354 -0.2047 -0.1546 -0.0390
 1305BOLB   C3D31319   9.025  12.327   4.125  0.1065  0.1876  0.0174
 1305BOLB   C4D31320   9.294  12.593   3.828 -0.0480 -0.3437  0.0736
 1306BOLB   NC131321  14.718  22.881  12.878 -0.0000 -0.2794  0.1381
 1306BOLB   PO131322  14.582  22.463  12.946 -0.1471 -0.1643  0.1648
 1306BOLB   GL131323  15.024  22.435  13.271  0.0865  0.0508  0.2228
 1306BOLB   GL231324  15.129  22.648  13.173 -0.3881 -0.0513  0.1682
 1306BOLB   C1A31325  15.468  22.228  13.390 -0.1620 -0.3620  0.1918
 1306BOLB   C2A31326  15.734  21.968  13.629 -0.0373 -0.1617  0.0193
 1306BOLB   C3A31327  16.030  21.795  13.918 -0.0684  0.1222  0.2225
 1306BOLB   C4A31328  16.267  21.516  14.145 -0.0781  0.1473 -0.0716
 1306BOLB   C1B31329  15.414  22.750  13.406 -0.2435  0.3641 -0.0882
 1306BOLB   C2B31330  15.779  22.965  13.743  0.0740  0.0433 -0.0456
 1306BOLB   C3B31331  16.066  23.265  13.968 -0.2274 -0.0400 -0.2889
 1306BOLB   C4B31332  16.078  23.664  14.046  0.0082  0.0480  0.0907
 1306BOLB   NC231333  19.019  20.862  14.380 -0.2994  0.0761  0.0701
 1306BOLB   PO231334  18.564  21.097  14.280  0.2016 -0.1477  0.0000
 1306BOLB   GL331335  18.104  21.174  14.118 -0.0629 -0.0191  0.1669
 1306BOLB   GL431336  18.032  21.406  13.823  0.2461  0.1874 -0.0171
 1306BOLB   C1C31337  17.726  20.967  14.076 -0.0435  0.0001 -0.3311
 1306BOLB   C2C31338  17.346  21.061  13.910 -0.0414  0.2651  0.3448
 1306BOLB   C3C31339  16.872  21.131  13.814 -0.0614  0.2269  0.0492
 1306BOLB   C4C31340  16.662  21.479  13.978 -0.4303 -0.0402 -0.2482
 1306BOLB   C1D31341  17.662  21.474  13.997 -0.4467 -0.2622  0.0258
 1306BOLB   C2D31342  17.482  21.768  14.220  0.2168 -0.1343 -0.0633
 1306BOLB   C3D31343  17.261  21.953  14.470 -0.0508  0.3386  0.0832
 1306BOLB   C4D31344  16.897  22.082  14.577 -0.0590 -0.2250  0.2696
 1307BOLB   NC131345  32.462  26.529  11.019 -0.0257  0.0796 -0.1739
 1307BOLB   PO131346  32.848  26.441  11.179  0.2157  0.1834  0.1722
 1307BOLB   GL131347  33.186  26.314  11.109  0.0697  0.0294  0.3324
 1307BOLB   GL231348  33.288  26.110  11.354 -0.1515  0.1054 -0.1098
 1307BOLB   C1A31349  33.394  26.083  10.857 -0.2197 -0.4332 -0.2150
 1307BOLB   C2A31350  33.498  25.665  10.712  0.1385 -0.4506  0.1373
 1307BOLB   C3A31351  33.493  25.210  10.881 -0.0631 -0.1435  0.1088
 1307BOLB   C4A31352  33.178  25.041  10.946 -0.1012 -0.0458  0.0342
 1307BOLB   C1B31353  33.686  25.961  11.257  0.0613  0.0109 -0.0142
 1307BOLB   C2B31354  33.904  25.724  10.991  0.0029  0.2100  0.1789
 1307BOLB   C3B31355  34.052  25.315  10.998  0.2816 -0.0499  0.0910
 1307BOLB   C4B31356  34.175  24.872  11.071 -0.0122 -0.1526 -0.0587
 1307BOLB   NC231357  31.645  26.140  10.626 -0.6343  0.0699  0.0821
 1307BOLB   PO231358  31.679  26.415  11.032 -0.1007 -0.0016  0.1522
 1307BOLB   GL331359  31.848  25.981  11.068  0.0188  0.0680 -0.1293
 1307BOLB   GL431360  32.110  25.944  11.200  0.1564  0.1881 -0.2074
 1307BOLB   C1C31361  31.956  25.506  11.173  0.3259  0.2962 -0.3139
 1307BOLB   C2C31362  32.105  25.107  11.382  0.0978 -0.1843 -0.2216
 1307BOLB   C3C31363  32.480  24.950  11.360 -0.1582 -0.1415  0.0099
 1307BOLB   C4C31364  32.840  24.945  11.193  0.0092  0.0257  0.2294
 1307BOLB   C1D31365  32.421  25.612  11.140 -0.0397  0.2030  0.4244
 1307BOLB   C2D31366  32.742  25.491  11.328 -0.3638 -0.1072  0.1410
 1307BOLB   C3D31367  33.014  25.350  11.540 -0.5040 -0.2690 -0.3697
 1307BOLB   C4D31368  33.247  24.958  11.448 -0.2275 -0.1123  0.3205
 1308BOLB   NC131369   6.938  13.647  10.280  0.2141 -0.0130  0.2108
 1308BOLB   PO131370   7.224  13.331  10.065  0.0764  0.2740  0.2859
 1308BOLB   GL131371   7.363  13.017  10.272 -0.1558  0.3139  0.0155
 1308BOLB   GL231372   7.677  12.819  10.208  0.2599  0.1698 -0.0690
 1308BOLB   C1A31373   7.187  12.547  10.370  0.0026  0.0072 -0.1170
 1308BOLB   C2A31374   7.026  12.229  10.586 -0.1455 -0.0670  0.0525
 1308BOLB   C3A31375   6.890  11.750  10.673 -0.3369  0.1330  0.1844
 1308BOLB   C4A31376   6.824  11.627  11.030  0.2198 -0.0266 -0.0208
 1308BOLB   C1B31377   7.546  12.759  10.659 -0.2450  0.1640  0.1873
 1308BOLB   C2B31378   7.270  12.539  10.872 -0.3616  0.0330 -0.0385
 1308BOLB   C3B31379   7.268  12.066  11.002 -0.1906  0.2253  0.2470
 1308BOLB   C4B31380   7.381  11.579  11.060 -0.0380 -0.0542 -0.2982
 1308BOLB   NC231381   7.903   9.040  10.931 -0.0812  0.2860  0.3159
 1308BOLB   PO231382   7.506   9.162  11.150  0.0424 -0.0467 -0.4007
 1308BOLB   GL331383   7.343   9.582  11.249 -0.3440 -0.2708  0.1289
 1308BOLB   GL431384   7.562   9.799  11.363 -0.2402  0.0715 -0.2013
 1308BOLB   C1C31385   7.148  10.021  11.199 -0.1308 -0.1237 -0.0195
 1308BOLB   C2C31386   7.097  10.495  11.208  0.0109 -0.1998  0.0078
 1308BOLB   C3C31387   6.953  10.859  11.235 -0.1796  0.1760  0.3253
 1308BOLB   C4C31388   7.033  11.315  11.301 -0.1047 -0.2445 -0.1703
 1308BOLB   C1D31389   7.564  10.217  11.111 -0.2480 -0.1854 -0.1492
 1308BOLB   C2D31390   7.458  10.566  10.869  0.0239  0.3145 -0.0513
 1308BOLB   C3D31391   7.291  10.984  10.856  0.1263 -0.5950 -0.0290
 1308BOLB   C4D31392   7.337  11.366  10.584 -0.3360 -0.1220  0.1432
 1309BOLB   NC131393  38.389  23.543   5.692 -0.3279 -0.1381 -0.3043
 1309BOLB   PO131394  38.136  23.651   6.167  0.3753 -0.0670  0.1033
 1309BOLB   GL131395  37.785  23.831   5.823  0.0869  0.2092 -0.6143
 1309BOLB   GL231396  37.665  23.567   5.527 -0.0152 -0.1975 -0.1726
 1309BOLB   C1A31397  37.722  24.054   5.454  0.2263 -0.0950  0.2831
 1309BOLB   C2A31398  37.411  24.109   5.136  0.3880  0.3354  0.1323
 1309BOLB   C3A31399  37.266  24.207   4.760  0.1308  0.2443  0.4517
 1309BOLB   C4A31400  36.892  24.211   4.532  0.1578 -0.2777 -0.2159
 1309BOLB   C1B31401  37.303  23.800   5.568 -0.3446 -0.0726 -0.2009
 1309BOLB   C2B31402  36.895  23.958   5.297 -0.0710 -0.0180 -0.2941
 1309BOLB   C3B31403  36.682  24.159   4.964 -0.4434 -0.1194 -0.0874
 1309BOLB   C4B31404  36.492  24.537   4.776 -0.2640  0.0948 -0.0168
 1309BOLB   NC231405  35.678  25.585   2.650 -0.0286  0.2649 -0.3504
 1309BOLB   PO231406  35.736  25.171   2.711 -0.1214  0.0566  0.0537
 1309BOLB   GL331407  35.969  24.939   3.021 -0.1076  0.0559 -0.2603
 1309BOLB   GL431408  35.738  24.716   2.912  0.0071 -0.1100 -0.0618
 1309BOLB   C1C31409  36.355  24.919   3.316 -0.2824  0.1036  0.0663
 1309BOLB   C2C31410  36.401  24.933   3.675 -0.4099  0.1682 -0.1519
 1309BOLB   C3C31411  36.451  24.573   3.912 -0.2652  0.3819 -0.0435
 1309BOLB   C4C31412  36.685  24.344   4.214  0.0055 -0.2787  0.1998
 1309BOLB   C1D31413  36.040  24.438   3.265 -0.1155 -0.0973  0.0295
 1309BOLB   C2D31414  36.310  24.222   3.506  0.0258  0.2978  0.0863
 1309BOLB   C3D31415  36.427  24.096   3.812  0.0586  0.0360  0.0255
 1309BOLB   C4D31416  36.660  23.685   4.159  0.0745  0.2911  0.1110
 1310BOLB   NC131417   7.528  26.291  26.247  0.0077  0.1257  0.1018
 1310BOLB   PO131418   7.308  25.896  26.196  0.1407 -0.1820  0.0276
 1310BOLB   GL131419   7.432  25.771  26.554  0.1179 -0.1061 -0.1307
 1310BOLB   GL231420   7.689  25.889  26.617 -0.1863  0.1771 -0.0363
 1310BOLB   C1A31421   7.399  25.720  27.055 -0.2319  0.4330 -0.1369
 1310BOLB   C2A31422   7.297  25.622  27.450 -0.2500 -0.1727 -0.3676
 1310BOLB   C3A31423   7.254  25.620  27.904  0.0800 -0.1498 -0.0485
 1310BOLB   C4A31424   7.079  25.487  28.181 -0.1852 -0.2140 -0.0045
 1310BOLB   C1B31425   7.951  25.656  26.957  0.0822 -0.0033  0.1511
 1310BOLB   C2B31426   7.807  25.349  27.249  0.2930 -0.0995 -0.3146
 1310BOLB   C3B31427   7.491  25.085  27.513 -0.0993 -0.0120 -0.4048
 1310BOLB   C4B31428   7.124  24.805  27.585  0.1512  0.2066  0.0867
 1310BOLB   NC231429   5.590  23.868  29.867 -0.1711  0.0288 -0.0953
 1310BOLB   PO231430   6.011  23.872  29.675 -0.1144  0.0601  0.0090
 1310BOLB   GL331431   5.916  24.209  29.383 -0.1158 -0.0111  0.1159
 1310BOLB   GL431432   5.689  24.376  29.453  0.0902  0.0432  0.0057
 1310BOLB   C1C31433   6.191  24.608  29.202  0.0742  0.0207 -0.1224
 1310BOLB   C2C31434   6.350  24.843  28.802 -0.0943  0.3482 -0.0353
 1310BOLB   C3C31435   6.622  25.052  28.462  0.1992  0.1370 -0.3198
 1310BOLB   C4C31436   6.759  25.490  28.362 -0.1065 -0.0775  0.0600
 1310BOLB   C1D31437   5.657  24.577  29.024 -0.0351 -0.7488 -0.1245
 1310BOLB   C2D31438   5.851  24.892  28.867 -0.0371 -0.0541 -0.0261
 1310BOLB   C3D31439   6.030  25.302  28.697  0.0461  0.0773 -0.1671
 1310BOLB   C4D31440   6.215  25.305  28.330 -0.2942 -0.1796  0.1028
 1311BOLB   NC131441   8.843  25.055   4.896  0.0458  0.3517  0.1804
 1311BOLB   PO131442   9.133  25.402   4.651 -0.1752 -0.0463 -0.3936
 1311BOLB   GL131443   9.263  25.602   4.388  0.1838 -0.2486  0.2787
 1311BOLB   GL231444   8.939  25.567   4.087  0.1555  0.0951  0.0834
 1311BOLB   C1A31445   9.375  25.854   4.059 -0.1741 -0.1003  0.1633
 1311BOLB   C2A31446   9.320  26.146   3.773 -0.4471  0.3615  0.1554
 1311BOLB   C3A31447   9.594  26.490   3.478 -0.3665  0.4019  0.0283
 1311BOLB   C4A31448   9.789  26.909   3.450 -0.0286  0.1945 -0.0458
 1311BOLB   C1B31449   8.870  26.076   4.056  0.1167  0.2083  0.1072
 1311BOLB   C2B31450   8.970  26.502   3.891  0.1158  0.3247 -0.1440
 1311BOLB   C3B31451   8.714  26.921   3.875 -0.2295 -0.3316  0.1235
 1311BOLB   C4B31452   8.850  27.385   3.763  0.2924 -0.2331  0.1346
 1311BOLB   NC231453  10.012  29.253   1.988  0.0435 -0.2571 -0.1267
 1311BOLB   PO231454  10.335  29.067   2.235 -0.1608 -0.0750  0.1362
 1311BOLB   GL331455  10.122  28.737   2.422 -0.1466 -0.3946 -0.1512
 1311BOLB   GL431456   9.930  28.518   2.427  0.0599 -0.1941 -0.1068
 1311BOLB   C1C31457  10.150  28.497   2.889  0.2269  0.0210 -0.2648
 1311BOLB   C2C31458  10.144  28.280   3.261 -0.1320 -0.1358  0.0355
 1311BOLB   C3C31459  10.018  27.896   3.579 -0.0971  0.0070 -0.0421
 1311BOLB   C4C31460   9.933  27.380   3.628 -0.1198  0.1995  0.0510
 1311BOLB   C1D31461   9.587  28.159   2.611  0.1646  0.1157  0.3083
 1311BOLB   C2D31462   9.313  27.959   2.760  0.2161 -0.0691  0.1711
 1311BOLB   C3D31463   9.233  27.871   3.305  0.2310 -0.1021  0.1244
 1311BOLB   C4D31464   9.006  27.857   3.668  0.0520 -0.2030  0.0836
 1312BOLB   NC131465   6.183  13.112  11.208  0.1402  0.0664 -0.1179
 1312BOLB   PO131466   5.955  12.920  10.797  0.1123  0.2050 -0.1772
 1312BOLB   GL131467   5.807  12.622  10.937  0.1607  0.0567  0.2201
 1312BOLB   GL231468   5.675  12.695  11.301 -0.0310  0.1733  0.0763
 1312BOLB   C1A31469   5.557  12.313  10.735 -0.0368  0.0256 -0.1603
 1312BOLB   C2A31470   5.446  11.877  10.873 -0.0481 -0.0271  0.0647
 1312BOLB   C3A31471   5.323  11.348  10.735  0.1521  0.4658  0.0530
 1312BOLB   C4A31472   5.587  11.108  10.498  0.0620  0.0552 -0.0519
 1312BOLB   C1B31473   5.629  12.249  11.310 -0.2592 -0.2644  0.1055
 1312BOLB   C2B31474   5.698  11.782  11.330  0.0522 -0.0441 -0.0514
 1312BOLB   C3B31475   5.734  11.422  11.095 -0.0295  0.0844 -0.2055
 1312BOLB   C4B31476   5.749  10.976  10.983  0.2255  0.2984 -0.0127
 1312BOLB   NC231477   5.604   8.928   9.825  0.1240 -0.3460  0.3347
 1312BOLB   PO231478   5.931   8.901  10.141  0.3064 -0.0031  0.0984
 1312BOLB   GL331479   5.809   9.315  10.109  0.1473 -0.1999 -0.1469
 1312BOLB   GL431480   5.510   9.486   9.817 -0.0877  0.1295 -0.1629
 1312BOLB   C1C31481   5.562   9.678  10.220  0.0181  0.1823 -0.6229
 1312BOLB   C2C31482   5.631  10.187  10.415  0.0304  0.1724  0.1982
 1312BOLB   C3C31483   5.718  10.530  10.205  0.0750 -0.0303 -0.4386
 1312BOLB   C4C31484   5.831  10.953  10.237  0.3164  0.0049  0.2052
 1312BOLB   C1D31485   5.355   9.818   9.760 -0.0418 -0.1244  0.1096
 1312BOLB   C2D31486   5.217  10.110  10.078  0.0572  0.3311 -0.2942
 1312BOLB   C3D31487   4.936  10.418  10.202  0.2310 -0.0046 -0.2518
 1312BOLB   C4D31488   4.544  10.670  10.152  0.1158 -0.0434  0.1911
 1313BOLB   NC131489  37.570  18.190  25.842  0.1952  0.0570 -0.0958
 1313BOLB   PO131490  37.966  18.371  25.938 -0.1935 -0.0351 -0.1341
 1313BOLB   GL131491  38.164  18.521  26.322 -0.0289  0.1039 -0.2877
 1313BOLB   GL231492  38.021  18.843  26.380  0.1072  0.3990 -0.0053
 1313BOLB   C1A31493  38.394  18.406  26.638  0.1576  0.0755  0.1043
 1313BOLB   C2A31494  38.547  18.326  26.953  0.1679  0.1659  0.1953
 1313BOLB   C3A31495  38.663  18.011  27.061 -0.1072  0.0009  0.3512
 1313BOLB   C4A31496  38.663  17.828  27.351  0.1555 -0.0373 -0.3786
 1313BOLB   C1B31497  38.134  18.825  26.772  0.0096 -0.0616  0.0326
 1313BOLB   C2B31498  38.168  18.675  27.175 -0.1187  0.2469  0.2785
 1313BOLB   C3B31499  38.513  18.814  27.340 -0.1010  0.0687  0.4883
 1313BOLB   C4B31500  38.899  19.036  27.348  0.1258 -0.0042  0.1560
 1313BOLB   NC231501  39.574  16.909  26.063 -0.2281  0.2705 -0.1558
 1313BOLB   PO231502  39.204  16.741  26.258 -0.0029  0.2639 -0.1994
 1313BOLB   GL331503  39.138  17.022  26.535 -0.2220  0.2282  0.1003
 1313BOLB   GL431504  39.240  17.281  26.445  0.0199  0.1685  0.4358
 1313BOLB   C1C31505  38.954  17.009  26.972  0.1211  0.1622  0.2574
 1313BOLB   C2C31506  39.064  17.079  27.406  0.0521 -0.2375  0.1658
 1313BOLB   C3C31507  38.812  17.164  27.737  0.1121 -0.0108  0.2861
 1313BOLB   C4C31508  38.642  17.432  27.489  0.0239  0.0130  0.0573
 1313BOLB   C1D31509  38.780  17.348  26.395 -0.0007 -0.1442  0.1135
 1313BOLB   C2D31510  38.704  17.297  26.711  0.1768 -0.1063  0.0438
 1313BOLB   C3D31511  38.458  17.514  26.976  0.0094 -0.0486  0.0896
 1313BOLB   C4D31512  38.185  17.706  27.254  0.1977 -0.0219  0.3528
 1314BOLB   NC131513   9.813  28.024   7.953 -0.1658 -0.0020  0.1356
 1314BOLB   PO131514  10.185  28.019   8.291 -0.0525 -0.1518  0.3583
 1314BOLB   GL131515  10.107  28.368   8.203 -0.2842 -0.2860  0.1533
 1314BOLB   GL231516   9.823  28.469   8.322  0.2116 -0.1193 -0.1130
 1314BOLB   C1A31517  10.402  28.613   7.855 -0.0175 -0.0174  0.0890
 1314BOLB   C2A31518  10.686  28.842   7.625 -0.2162  0.1139 -0.2075
 1314BOLB   C3A31519  11.022  28.830   7.223 -0.0984  0.4629 -0.1112
 1314BOLB   C4A31520  11.142  28.814   6.890 -0.1173  0.1864 -0.1507
 1314BOLB   C1B31521   9.961  28.833   8.149 -0.1505  0.3642  0.1587
 1314BOLB   C2B31522  10.232  29.077   8.110  0.2669 -0.2477  0.2844
 1314BOLB   C3B31523  10.516  29.239   7.942 -0.2300 -0.2330  0.1362
 1314BOLB   C4B31524  10.934  29.465   7.782 -0.0517  0.5022 -0.3721
 1314BOLB   NC231525  11.979  30.501   5.523 -0.0302 -0.1567  0.0268
 1314BOLB   PO231526  12.362  30.691   5.807 -0.1330 -0.2315  0.0490
 1314BOLB   GL331527  12.259  30.204   5.891  0.0470 -0.0899 -0.0789
 1314BOLB   GL431528  12.070  30.137   6.244 -0.0462 -0.1638 -0.2815
 1314BOLB   C1C31529  12.144  29.868   5.863  0.1316 -0.3160  0.0025
 1314BOLB   C2C31530  12.005  29.543   6.030 -0.0573 -0.1136 -0.0713
 1314BOLB   C3C31531  11.649  29.235   6.261 -0.1204 -0.0699 -0.1172
 1314BOLB   C4C31532  11.350  29.028   6.506  0.4512  0.3454  0.0086
 1314BOLB   C1D31533  11.753  29.801   6.363 -0.3132 -0.2922  0.2165
 1314BOLB   C2D31534  11.421  29.567   6.597  0.0655  0.2410 -0.3495
 1314BOLB   C3D31535  11.221  29.321   6.969  0.1328 -0.1203  0.1736
 1314BOLB   C4D31536  10.929  29.323   7.265  0.0827 -0.0464 -0.1198
 1315BOLB   NC131537   6.996  26.404  17.193  0.3146  0.0201 -0.0517
 1315BOLB   PO131538   6.664  26.198  17.374 -0.2505 -0.1153 -0.0608
 1315BOLB   GL131539   6.701  26.296  17.810  0.1636  0.0213  0.0938
 1315BOLB   GL231540   6.570  26.050  18.035 -0.0483 -0.0653 -0.1723
 1315BOLB   C1A31541   6.744  26.600  18.156 -0.1697 -0.3069  0.0905
 1315BOLB   C2A31542   6.901  26.964  18.342  0.1575  0.0969 -0.0350
 1315BOLB   C3A31543   7.117  27.064  18.686  0.0349  0.0441  0.2464
 1315BOLB   C4A31544   7.117  27.132  19.067  0.3306 -0.1436  0.0594
 1315BOLB   C1B31545   6.327  26.215  18.332  0.0708 -0.2262  0.0748
 1315BOLB   C2B31546   6.179  26.464  18.653 -0.1127 -0.0537  0.3013
 1315BOLB   C3B31547   6.162  26.652  19.042  0.0311 -0.0066  0.0384
 1315BOLB   C4B31548   6.353  26.808  19.490  0.2474  0.1402 -0.2753
 1315BOLB   NC231549   7.753  27.852  21.065 -0.1645  0.0317 -0.0542
 1315BOLB   PO231550   7.835  28.103  20.756  0.0623  0.0629 -0.2113
 1315BOLB   GL331551   7.889  27.577  20.692  0.4326  0.2960 -0.2327
 1315BOLB   GL431552   7.563  27.446  20.463 -0.0969 -0.0475 -0.1154
 1315BOLB   C1C31553   7.970  27.432  20.197  0.1663  0.0810  0.2715
 1315BOLB   C2C31554   8.054  27.447  19.778 -0.1254 -0.2505  0.3851
 1315BOLB   C3C31555   7.797  27.456  19.317  0.1626  0.2076  0.0361
 1315BOLB   C4C31556   7.402  27.363  19.255  0.3647 -0.3381  0.0062
 1315BOLB   C1D31557   7.401  27.150  20.181 -0.0098 -0.1646 -0.0776
 1315BOLB   C2D31558   7.072  27.127  19.990 -0.1919  0.4210 -0.3044
 1315BOLB   C3D31559   6.613  27.107  19.972 -0.0406 -0.2961 -0.1023
 1315BOLB   C4D31560   6.296  26.856  20.120  0.0276 -0.0194 -0.0059
 1316BOLB   NC131561   8.037  26.849   5.255 -0.1474  0.0024 -0.2113
 1316BOLB   PO131562   7.726  27.030   5.433 -0.3614  0.1588  0.2304
 1316BOLB   GL131563   7.861  27.228   5.008  0.2122 -0.2825  0.4368
 1316BOLB   GL231564   8.137  27.353   5.201  0.0314  0.1167  0.0249
 1316BOLB   C1A31565   7.837  27.424   4.624  0.1728 -0.3844  0.3365
 1316BOLB   C2A31566   7.627  27.419   4.234  0.0115 -0.2129  0.2295
 1316BOLB   C3A31567   7.451  27.655   3.929 -0.3227  0.0920  0.1862
 1316BOLB   C4A31568   7.379  27.876   3.586 -0.5458 -0.2609 -0.0060
 1316BOLB   C1B31569   8.213  27.641   5.066 -0.1234  0.0929  0.0370
 1316BOLB   C2B31570   8.267  28.114   4.996  0.2101  0.1092 -0.1053
 1316BOLB   C3B31571   8.606  28.339   4.847 -0.0529  0.0102 -0.0574
 1316BOLB   C4B31572   8.805  28.381   4.439 -0.1985  0.0587  0.1047
 1316BOLB   NC231573   7.747  28.921   1.612 -0.3213 -0.2308  0.1963
 1316BOLB   PO231574   8.150  28.870   1.629 -0.2424 -0.2447 -0.2003
 1316BOLB   GL331575   8.049  28.898   2.032 -0.0056 -0.2096 -0.1773
 1316BOLB   GL431576   7.982  29.110   2.294  0.1656  0.4985  0.2689
 1316BOLB   C1C31577   8.140  28.573   2.242 -0.2461  0.2396 -0.1717
 1316BOLB   C2C31578   8.024  28.323   2.664  0.0638 -0.0745 -0.0550
 1316BOLB   C3C31579   7.764  28.179   3.106  0.1912 -0.1825  0.1689
 1316BOLB   C4C31580   7.467  28.121   3.337  0.0356  0.2022 -0.3663
 1316BOLB   C1D31581   7.662  28.727   2.413  0.0752 -0.1556  0.1086
 1316BOLB   C2D31582   7.260  28.714   2.441 -0.0349 -0.2083  0.2872
 1316BOLB   C3D31583   7.140  28.887   2.744 -0.0441  0.2282 -0.2264
 1316BOLB   C4D31584   6.620  28.969   2.831  0.0841  0.0092  0.0547
 1317BOLB   NC131585   9.847  18.587   3.293  0.2501  0.3936 -0.2167
 1317BOLB   PO131586  10.204  18.267   3.272 -0.0568  0.0697 -0.0006
 1317BOLB   GL131587  10.305  18.188   2.867  0.1469  0.0715  0.0354
 1317BOLB   GL231588  10.621  18.179   2.873  0.2575 -0.3355  0.1189
 1317BOLB   C1A31589  10.101  18.151   2.471 -0.0642  0.1565 -0.0476
 1317BOLB   C2A31590  10.209  17.957   2.037 -0.1999  0.2207 -0.0409
 1317BOLB   C3A31591  10.417  17.796   1.708  0.1967 -0.1116  0.1937
 1317BOLB   C4A31592  10.412  17.818   1.354 -0.0939  0.3330  0.2134
 1317BOLB   C1B31593  10.560  18.065   2.415 -0.0483  0.0429  0.2678
 1317BOLB   C2B31594  10.742  18.206   2.196  0.2547  0.2653  0.5640
 1317BOLB   C3B31595  10.720  18.317   1.769 -0.0155 -0.0152 -0.4969
 1317BOLB   C4B31596  10.944  18.569   1.550 -0.0161  0.3432  0.2164
 1317BOLB   NC231597  10.878  16.951  -0.899  0.1484  0.1255  0.0500
 1317BOLB   PO231598  10.914  17.449  -0.906 -0.2078  0.1844  0.0471
 1317BOLB   GL331599  10.822  17.710  -0.581 -0.0113 -0.0086 -0.1635
 1317BOLB   GL431600  10.835  17.466  -0.404  0.1085  0.2182 -0.0606
 1317BOLB   C1C31601  10.848  17.857  -0.160 -0.1362 -0.1456  0.1932
 1317BOLB   C2C31602  10.666  17.940   0.264 -0.2170  0.4455 -0.3884
 1317BOLB   C3C31603  10.487  17.967   0.648 -0.1687  0.3947 -0.0811
 1317BOLB   C4C31604  10.337  17.799   0.827 -0.1953  0.0865 -0.2639
 1317BOLB   C1D31605  10.561  17.448  -0.129  0.3013  0.0090  0.1145
 1317BOLB   C2D31606  10.625  17.153   0.125  0.0406  0.0912  0.2176
 1317BOLB   C3D31607  10.538  16.819   0.372 -0.0810 -0.0449 -0.0995
 1317BOLB   C4D31608  10.497  16.394   0.576 -0.0783  0.2783  0.2301
 1318BOLB   NC131609   7.710  21.894   2.797  0.0489 -0.1085  0.2279
 1318BOLB   PO131610   7.743  22.360   2.549 -0.0508  0.1630 -0.0183
 1318BOLB   GL131611   7.577  22.663   2.189 -0.2172  0.3183  0.2745
 1318BOLB   GL231612   7.918  22.800   2.132  0.0854 -0.0295  0.3505
 1318BOLB   C1A31613   7.564  22.858   1.779 -0.0794 -0.1925  0.2158
 1318BOLB   C2A31614   7.515  23.077   1.370 -0.0867  0.0109 -0.2510
 1318BOLB   C3A31615   7.635  23.400   1.024 -0.0952  0.1217 -0.0769
 1318BOLB   C4A31616   7.669  23.693   0.715  0.0350  0.0401 -0.0400
 1318BOLB   C1B31617   8.049  22.943   1.665  0.2294 -0.0348 -0.0930
 1318BOLB   C2B31618   8.330  23.158   1.312  0.2620 -0.1059 -0.0007
 1318BOLB   C3B31619   8.640  23.392   1.100  0.0466 -0.2176  0.3439
 1318BOLB   C4B31620   8.969  23.060   0.836 -0.3313  0.0063  0.2409
 1318BOLB   NC231621   7.317  25.416  -0.379  0.2575  0.3791  0.2083
 1318BOLB   PO231622   6.900  25.503  -0.499 -0.0740 -0.1211  0.2357
 1318BOLB   GL331623   6.910  25.106  -0.260 -0.1307  0.0120 -0.0010
 1318BOLB   GL431624   6.890  24.719  -0.407  0.2571 -0.1684 -0.0668
 1318BOLB   C1C31625   6.931  24.796   0.075  0.1372  0.0700 -0.4727
 1318BOLB   C2C31626   7.162  24.516   0.165  0.0312 -0.1260 -0.3539
 1318BOLB   C3C31627   7.496  24.323   0.334  0.1342 -0.1304 -0.0553
 1318BOLB   C4C31628   7.569  23.896   0.378 -0.1683 -0.0128 -0.3107
 1318BOLB   C1D31629   7.220  24.387  -0.351  0.0545 -0.0084  0.2909
 1318BOLB   C2D31630   7.417  24.037  -0.499  0.3330 -0.1915  0.3604
 1318BOLB   C3D31631   7.759  23.772  -0.414  0.0547  0.1099  0.0033
 1318BOLB   C4D31632   8.165  23.671  -0.202  0.0858 -0.0916 -0.0057
 1319BOLB   NC131633   3.254  26.199  15.576  0.1698  0.2995 -0.3453
 1319BOLB   PO131634   2.770  26.171  15.457 -0.0802  0.2660 -0.0942
 1319BOLB   GL131635   2.383  26.295  15.718  0.0625  0.0302  0.1228
 1319BOLB   GL231636   2.169  26.193  15.458 -0.2333  0.0748  0.2532
 1319BOLB   C1A31637   2.232  26.636  16.013  0.0141  0.1240  0.0051
 1319BOLB   C2A31638   2.248  26.853  16.480 -0.2920 -0.0918  0.0489
 1319BOLB   C3A31639   2.477  27.064  16.540  0.0836 -0.4193 -0.0152
 1319BOLB   C4A31640   2.646  27.305  16.913  0.0329  0.2608  0.1047
 1319BOLB   C1B31641   2.015  26.654  15.542  0.1218 -0.0856 -0.1050
 1319BOLB   C2B31642   1.739  26.903  15.581 -0.1820  0.3033  0.2397
 1319BOLB   C3B31643   1.465  27.144  15.768 -0.1517  0.0317 -0.0726
 1319BOLB   C4B31644   1.225  27.488  15.973  0.0599  0.0608 -0.0067
 1319BOLB   NC231645   1.405  28.979  18.619 -0.1070  0.1357  0.2175
 1319BOLB   PO231646   1.529  28.577  18.810 -0.0652 -0.0565  0.1322
 1319BOLB   GL331647   1.606  28.166  18.502 -0.5400 -0.0082 -0.1197
 1319BOLB   GL431648   1.679  27.898  18.636  0.2317  0.3269 -0.2299
 1319BOLB   C1C31649   1.900  28.144  18.196  0.1055 -0.1999  0.0986
 1319BOLB   C2C31650   2.077  28.125  17.813 -0.1516  0.0394  0.2843
 1319BOLB   C3C31651   2.268  28.078  17.421 -0.0806 -0.1306 -0.2556
 1319BOLB   C4C31652   2.479  27.753  17.083 -0.0205 -0.0843  0.0542
 1319BOLB   C1D31653   1.882  27.560  18.620 -0.3664 -0.0251 -0.1609
 1319BOLB   C2D31654   1.934  27.109  18.445 -0.1208 -0.2472 -0.1740
 1319BOLB   C3D31655   2.152  26.743  18.163 -0.1476  0.0310 -0.1737
 1319BOLB   C4D31656   2.175  26.381  18.019 -0.0881  0.0193  0.2099
 1320BOLB   NC131657   7.644  24.822   3.848 -0.0134 -0.4245  0.0977
 1320BOLB   PO131658   7.149  24.987   3.797  0.2091  0.2295  0.1711
 1320BOLB   GL131659   7.113  25.251   3.446 -0.2891  0.1619 -0.1375
 1320BOLB   GL231660   7.388  25.509   3.441 -0.0051 -0.2861 -0.2739
 1320BOLB   C1A31661   6.928  25.679   3.393 -0.0641 -0.0486  0.0782
 1320BOLB   C2A31662   6.809  25.936   2.951 -0.4724  0.2112  0.1465
 1320BOLB   C3A31663   7.057  26.025   2.567 -0.1768  0.3205  0.1157
 1320BOLB   C4A31664   7.005  26.277   2.247 -0.0449  0.2069 -0.1620
 1320BOLB   C1B31665   7.542  25.277   3.105  0.0436  0.1074 -0.4008
 1320BOLB   C2B31666   7.789  25.523   2.808  0.0016 -0.0510 -0.0886
 1320BOLB   C3B31667   7.528  25.871   2.621  0.1273  0.2690 -0.0597
 1320BOLB   C4B31668   7.453  25.979   2.232 -0.1815 -0.0062  0.1532
 1320BOLB   NC231669   7.249  27.125   0.136 -0.1398 -0.0948  0.0635
 1320BOLB   PO231670   7.527  27.405   0.259  0.0806  0.2155 -0.0161
 1320BOLB   GL331671   7.659  27.160   0.746 -0.3588  0.0088  0.0113
 1320BOLB   GL431672   7.448  27.427   0.847  0.2724  0.0208  0.1266
 1320BOLB   C1C31673   7.784  27.132   1.145  0.0563 -0.1893 -0.1194
 1320BOLB   C2C31674   7.566  27.017   1.481  0.1897  0.4870 -0.1544
 1320BOLB   C3C31675   7.394  26.747   1.649  0.0949 -0.2313 -0.0050
 1320BOLB   C4C31676   7.300  26.416   1.925  0.2609  0.1293  0.1801
 1320BOLB   C1D31677   7.275  27.038   1.065  0.0708 -0.1511  0.2582
 1320BOLB   C2D31678   7.131  26.641   1.227  0.0768 -0.0937  0.1383
 1320BOLB   C3D31679   6.969  26.412   1.545  0.2001 -0.1776  0.1135
 1320BOLB   C4D31680   7.173  25.996   1.733  0.0219  0.0147  0.0000
 1321BOLB   NC131681  12.493  16.711   7.066 -0.3337  0.1866  0.2543
 1321BOLB   PO131682  12.858  16.451   6.989 -0.0642 -0.1640 -0.0432
 1321BOLB   GL131683  12.867  16.041   6.776 -0.1653 -0.1733 -0.2282
 1321BOLB   GL231684  13.022  15.867   7.026 -0.0675 -0.1044 -0.2761
 1321BOLB   C1A31685  13.251  15.910   6.613  0.2276 -0.2930  0.0897
 1321BOLB   C2A31686  13.578  15.879   6.254 -0.1065 -0.3351 -0.0496
 1321BOLB   C3A31687  13.789  15.479   6.117  0.2374 -0.4229 -0.1171
 1321BOLB   C4A31688  14.092  15.109   6.134 -0.2721  0.3160  0.3260
 1321BOLB   C1B31689  13.175  15.531   7.049  0.3258  0.0495 -0.1430
 1321BOLB   C2B31690  13.663  15.440   7.089 -0.0173 -0.1072 -0.3003
 1321BOLB   C3B31691  14.116  15.130   7.180  0.0336 -0.3231 -0.2021
 1321BOLB   C4B31692  14.350  14.733   7.224  0.0708  0.0684 -0.3876
 1321BOLB   NC231693  16.085  14.277   4.766 -0.0334 -0.2163 -0.0738
 1321BOLB   PO231694  16.143  14.745   4.873 -0.0408  0.0770  0.0872
 1321BOLB   GL331695  15.863  15.001   5.077  0.0757  0.0962 -0.0183
 1321BOLB   GL431696  15.659  14.679   5.215  0.1797 -0.0433 -0.0189
 1321BOLB   C1C31697  15.518  15.218   5.056  0.0381 -0.0537 -0.1487
 1321BOLB   C2C31698  15.215  15.205   5.387  0.2014  0.0304 -0.1453
 1321BOLB   C3C31699  14.904  15.269   5.655 -0.1923  0.3004 -0.1464
 1321BOLB   C4C31700  14.548  14.968   5.973  0.1117  0.1466 -0.1113
 1321BOLB   C1D31701  15.596  14.985   5.597  0.0535 -0.1830  0.0072
 1321BOLB   C2D31702  15.333  15.116   5.923  0.1536 -0.0632 -0.0664
 1321BOLB   C3D31703  15.083  14.967   6.151 -0.1169  0.2277 -0.0772
 1321BOLB   C4D31704  14.800  14.890   6.516 -0.0257 -0.2518 -0.0272
 1322BOLB   NC131705  12.246  16.062   6.035  0.3246 -0.4044 -0.1230
 1322BOLB   PO131706  12.278  16.055   5.603 -0.0673  0.1413 -0.1005
 1322BOLB   GL131707  12.467  15.836   5.303  0.1505  0.0958  0.0203
 1322BOLB   GL231708  12.797  15.929   5.470  0.0387  0.0141  0.2674
 1322BOLB   C1A31709  12.631  15.597   4.976  0.0548  0.0934 -0.0365
 1322BOLB   C2A31710  12.639  15.270   4.719  0.3342 -0.1598  0.0731
 1322BOLB   C3A31711  12.877  15.092   4.461  0.0783  0.0496 -0.0502
 1322BOLB   C4A31712  12.966  14.613   4.429 -0.1526 -0.4244  0.1070
 1322BOLB   C1B31713  13.070  15.727   5.281  0.2692 -0.3492 -0.1610
 1322BOLB   C2B31714  13.303  15.357   5.260  0.2155  0.2736  0.0020
 1322BOLB   C3B31715  13.645  15.083   5.394  0.3083  0.0972 -0.1640
 1322BOLB   C4B31716  14.072  14.841   5.355  0.0854 -0.2146  0.3092
 1322BOLB   NC231717  13.923  12.666   4.051  0.0631  0.0941 -0.0867
 1322BOLB   PO231718  13.470  12.562   3.983 -0.1231 -0.1074  0.0281
 1322BOLB   GL331719  13.541  12.778   4.417 -0.0157  0.4079 -0.3686
 1322BOLB   GL431720  13.470  12.722   4.768  0.0258 -0.2922 -0.1501
 1322BOLB   C1C31721  13.521  13.169   4.591 -0.1259 -0.1028 -0.0420
 1322BOLB   C2C31722  13.432  13.556   4.577  0.2279 -0.1984 -0.0540
 1322BOLB   C3C31723  13.333  13.974   4.386 -0.3062 -0.0731 -0.0203
 1322BOLB   C4C31724  13.083  14.278   4.375 -0.3386 -0.1723  0.0862
 1322BOLB   C1D31725  13.152  12.646   5.041  0.0841  0.0617  0.3930
 1322BOLB   C2D31726  12.777  12.731   5.343  0.1444  0.6439  0.5244
 1322BOLB   C3D31727  12.333  12.917   5.367  0.5264 -0.0059  0.1992
 1322BOLB   C4D31728  12.076  12.865   5.721  0.0574 -0.1533 -0.0684
 1323BOLB   NC131729   3.745  28.134  12.567  0.2008  0.0291 -0.0715
 1323BOLB   PO131730   3.322  27.932  12.516 -0.1723  0.2163  0.0039
 1323BOLB   GL131731   3.004  28.154  12.634  0.0712  0.0289 -0.0399
 1323BOLB   GL231732   2.960  28.131  12.997  0.1229  0.0117  0.0869
 1323BOLB   C1A31733   2.900  28.581  12.784 -0.1630  0.0970  0.0188
 1323BOLB   C2A31734   2.781  29.014  12.875 -0.1492 -0.2044  0.0499
 1323BOLB   C3A31735   2.577  29.369  13.120 -0.0309 -0.1403  0.0830
 1323BOLB   C4A31736   2.123  29.534  13.022 -0.0446 -0.3737 -0.1263
 1323BOLB   C1B31737   2.877  28.496  13.237  0.0284  0.0097 -0.0537
 1323BOLB   C2B31738   2.750  28.978  13.345  0.2264 -0.3449 -0.0285
 1323BOLB   C3B31739   2.879  29.206  13.689  0.1220 -0.1399  0.2358
 1323BOLB   C4B31740   3.186  29.318  13.913  0.0315 -0.0424  0.2192
 1323BOLB   NC231741   1.296  31.527  14.209  0.4202 -0.1037 -0.2009
 1323BOLB   PO231742   0.877  31.446  14.026 -0.0478 -0.0687 -0.3321
 1323BOLB   GL331743   1.094  31.192  13.769  0.1503  0.1444 -0.0363
 1323BOLB   GL431744   0.796  30.939  13.612  0.0451 -0.1094  0.2914
 1323BOLB   C1C31745   1.241  30.824  13.450  0.1159 -0.0285  0.2918
 1323BOLB   C2C31746   1.522  30.539  13.326 -0.1033  0.1241  0.0332
 1323BOLB   C3C31747   1.804  30.320  13.105  0.0014  0.2126 -0.1094
 1323BOLB   C4C31748   1.952  29.919  13.120  0.0015  0.1422 -0.0746
 1323BOLB   C1D31749   0.853  30.516  13.758 -0.1080  0.1465  0.1995
 1323BOLB   C2D31750   1.275  30.295  13.781 -0.0108 -0.1430  0.1813
 1323BOLB   C3D31751   1.576  29.907  13.564 -0.0006  0.1178 -0.0952
 1323BOLB   C4D31752   2.014  29.701  13.580 -0.0527 -0.1835  0.0177
 1324BOLB   NC131753   7.394  27.543   6.199  0.2785  0.2588  0.0848
 1324BOLB   PO131754   7.355  27.820   5.728 -0.3166 -0.1869 -0.1057
 1324BOLB   GL131755   7.282  28.237   5.764  0.3313  0.0550  0.0647
 1324BOLB   GL231756   7.103  28.421   6.061 -0.0683 -0.0820 -0.0006
 1324BOLB   C1A31757   7.305  28.614   5.615  0.0713 -0.1830 -0.1099
 1324BOLB   C2A31758   7.551  29.023   5.742  0.1807 -0.0912 -0.0436
 1324BOLB   C3A31759   7.894  29.237   5.868  0.0568  0.1299 -0.0308
 1324BOLB   C4A31760   8.058  29.714   5.728 -0.2936  0.2516  0.2239
 1324BOLB   C1B31761   7.146  28.904   5.998  0.2799 -0.0011 -0.2986
 1324BOLB   C2B31762   7.075  29.288   5.967 -0.0820 -0.0721 -0.0968
 1324BOLB   C3B31763   7.116  29.459   5.546 -0.0978 -0.4076 -0.0236
 1324BOLB   C4B31764   7.326  29.675   5.289  0.2202 -0.1175  0.0214
 1324BOLB   NC231765   9.143  31.770   4.813 -0.1992 -0.0280  0.0198
 1324BOLB   PO231766   8.776  31.545   4.555  0.0857 -0.0003 -0.2166
 1324BOLB   GL331767   8.832  31.144   4.575 -0.1963 -0.0928  0.2384
 1324BOLB   GL431768   8.888  31.129   4.892  0.2145 -0.0684  0.2451
 1324BOLB   C1C31769   8.688  30.771   4.496  0.1118  0.0937  0.2987
 1324BOLB   C2C31770   8.470  30.486   4.669  0.2635 -0.1348  0.1503
 1324BOLB   C3C31771   8.224  30.213   4.966  0.3804  0.1633  0.3115
 1324BOLB   C4C31772   8.077  29.912   5.279  0.5085 -0.0484 -0.1657
 1324BOLB   C1D31773   9.158  30.666   4.877  0.0947 -0.0655  0.0479
 1324BOLB   C2D31774   9.333  30.143   4.874  0.1242 -0.1310  0.1214
 1324BOLB   C3D31775   9.318  29.802   5.118  0.0111 -0.1092 -0.1626
 1324BOLB   C4D31776   9.214  29.376   5.230 -0.1794 -0.2284  0.0771
 1325BOLB   NC131777   4.074  23.866  18.212  0.0868  0.1073 -0.0895
 1325BOLB   PO131778   4.456  23.735  18.298  0.0590 -0.1794 -0.2779
 1325BOLB   GL131779   4.395  23.680  18.753 -0.0186 -0.1742  0.2116
 1325BOLB   GL231780   4.484  23.349  18.903 -0.3299 -0.0033 -0.3042
 1325BOLB   C1A31781   4.449  23.742  19.204 -0.1353 -0.3304  0.3001
 1325BOLB   C2A31782   4.536  23.599  19.562  0.0261 -0.0643 -0.2315
 1325BOLB   C3A31783   4.173  23.328  19.831 -0.2141  0.0488  0.1143
 1325BOLB   C4A31784   4.023  23.437  20.151 -0.2252  0.0001 -0.0545
 1325BOLB   C1B31785   4.840  23.304  19.151 -0.2100  0.0729 -0.3783
 1325BOLB   C2B31786   4.956  23.227  19.515  0.2472  0.0336  0.1914
 1325BOLB   C3B31787   4.901  23.330  20.006  0.5512  0.1698  0.3316
 1325BOLB   C4B31788   5.184  23.550  20.256 -0.3889 -0.0332 -0.0137
 1325BOLB   NC231789   2.339  23.818  21.739  0.0515  0.2382  0.0526
 1325BOLB   PO231790   2.676  23.607  21.977  0.0508 -0.1686 -0.0518
 1325BOLB   GL331791   2.658  23.500  21.555 -0.3385  0.0353 -0.0432
 1325BOLB   GL431792   2.662  23.720  21.371 -0.0259 -0.0391 -0.1999
 1325BOLB   C1C31793   2.756  23.255  21.299 -0.0352 -0.0718  0.0042
 1325BOLB   C2C31794   3.235  23.192  21.071 -0.3305  0.6009  0.0686
 1325BOLB   C3C31795   3.517  23.112  20.869 -0.2108 -0.2187  0.1841
 1325BOLB   C4C31796   3.750  23.190  20.492  0.2042 -0.0272 -0.0777
 1325BOLB   C1D31797   2.607  23.956  20.960  0.0333 -0.3797  0.0042
 1325BOLB   C2D31798   2.693  24.284  20.624 -0.0998 -0.0917 -0.0538
 1325BOLB   C3D31799   2.640  24.680  20.421 -0.2034  0.1293 -0.3249
 1325BOLB   C4D31800   2.574  25.164  20.424 -0.2706  0.1807 -0.1982
 1326BOLB   NC131801  18.411  23.407  13.796  0.0714  0.0787 -0.3314
 1326BOLB   PO131802  18.280  23.596  14.205 -0.4045 -0.1863 -0.4615
 1326BOLB   GL131803  17.886  23.577  14.148 -0.1938  0.0801 -0.0230
 1326BOLB   GL231804  17.770  23.450  13.844 -0.0031 -0.0972 -0.2613
 1326BOLB   C1A31805  17.485  23.533  14.257  0.1545 -0.1877  0.0312
 1326BOLB   C2A31806  17.125  23.291  14.412  0.3581  0.1571  0.0745
 1326BOLB   C3A31807  16.712  23.108  14.498 -0.1328 -0.0596 -0.0082
 1326BOLB   C4A31808  16.421  22.911  14.862 -0.0357 -0.1886  0.0104
 1326BOLB   C1B31809  17.537  23.143  13.613 -0.0601 -0.2033 -0.4416
 1326BOLB   C2B31810  17.293  22.856  13.460  0.2560 -0.1736  0.0873
 1326BOLB   C3B31811  16.957  22.657  13.747  0.1329  0.0103  0.0202
 1326BOLB   C4B31812  16.531  22.421  13.656 -0.2017  0.1623  0.2263
 1326BOLB   NC231813  17.690  21.871  16.159  0.1027 -0.0611  0.1288
 1326BOLB   PO231814  17.459  22.079  16.520 -0.5101 -0.0176  0.0338
 1326BOLB   GL331815  17.161  21.960  16.165 -0.0484  0.0201  0.1769
 1326BOLB   GL431816  17.228  21.950  15.776 -0.1812 -0.4082  0.0749
 1326BOLB   C1C31817  16.859  22.243  16.093  0.0003  0.0559  0.2035
 1326BOLB   C2C31818  16.545  22.447  15.875 -0.2557 -0.0696  0.0963
 1326BOLB   C3C31819  16.267  22.732  15.602  0.2782 -0.1250  0.1211
 1326BOLB   C4C31820  16.248  22.978  15.212 -0.1666  0.1165 -0.0532
 1326BOLB   C1D31821  16.861  21.918  15.692 -0.0584  0.2462  0.2309
 1326BOLB   C2D31822  16.534  22.108  15.411 -0.2436  0.4479  0.2786
 1326BOLB   C3D31823  16.126  22.355  15.255 -0.0089 -0.0865  0.0648
 1326BOLB   C4D31824  16.060  22.556  14.911 -0.0590 -0.0845  0.0515
 1327BOLB   NC131825  10.123  27.597  13.446 -0.1105 -0.1398  0.2568
 1327BOLB   PO131826  10.531  27.525  13.468 -0.0516  0.4354  0.1142
 1327BOLB   GL131827  10.819  27.798  13.229 -0.1523 -0.1084 -0.0264
 1327BOLB   GL231828  11.163  27.947  13.444  0.1865 -0.0927  0.0160
 1327BOLB   C1A31829  10.946  28.210  13.089  0.0023  0.0259  0.1590
 1327BOLB   C2A31830  11.118  28.557  13.269  0.0759  0.0083 -0.0712
 1327BOLB   C3A31831  11.389  28.900  13.363  0.1257 -0.1716 -0.3084
 1327BOLB   C4A31832  11.437  29.288  13.343  0.3947  0.1881 -0.4776
 1327BOLB   C1B31833  11.390  28.226  13.544  0.1635 -0.0305  0.1704
 1327BOLB   C2B31834  11.568  28.553  13.750 -0.1065  0.0668 -0.1915
 1327BOLB   C3B31835  11.814  29.042  13.675  0.4796  0.1715  0.0584
 1327BOLB   C4B31836  12.136  29.223  13.647 -0.3075 -0.2853  0.1797
 1327BOLB   NC231837  12.533  31.270  13.491  0.2820 -0.0688 -0.0928
 1327BOLB   PO231838  12.119  31.388  13.280 -0.1672 -0.1128  0.2361
 1327BOLB   GL331839  12.144  30.988  13.238 -0.0398  0.0325  0.1375
 1327BOLB   GL431840  12.193  30.842  13.626 -0.1164  0.1140 -0.2863
 1327BOLB   C1C31841  12.146  30.638  12.990  0.2549  0.3425  0.1305
 1327BOLB   C2C31842  12.236  30.312  13.059  0.0983  0.0299 -0.3283
 1327BOLB   C3C31843  12.095  29.869  13.190 -0.0215  0.1576 -0.2251
 1327BOLB   C4C31844  11.908  29.528  13.314  0.2073  0.0370 -0.0381
 1327BOLB   C1D31845  12.022  30.468  13.685 -0.2374  0.1909  0.0462
 1327BOLB   C2D31846  11.729  30.128  13.446 -0.1371 -0.0151 -0.2636
 1327BOLB   C3D31847  11.549  29.925  13.061  0.0191  0.0610 -0.0470
 1327BOLB   C4D31848  11.244  29.923  12.676  0.0106 -0.2638  0.2047
 1328BOLB   NC131849   5.855  15.867   4.255 -0.0207  0.1567 -0.1972
 1328BOLB   PO131850   5.541  15.642   4.082 -0.2230  0.0428 -0.0585
 1328BOLB   GL131851   5.428  15.197   3.767 -0.0598 -0.2540 -0.0293
 1328BOLB   GL231852   5.238  14.949   3.737 -0.0919 -0.0443 -0.0772
 1328BOLB   C1A31853   5.432  14.824   3.303 -0.0799 -0.1982  0.0620
 1328BOLB   C2A31854   5.229  14.686   2.993 -0.0650 -0.2321 -0.1305
 1328BOLB   C3A31855   5.275  14.430   2.600  0.0181  0.0630  0.1291
 1328BOLB   C4A31856   5.101  14.598   2.177  0.0311  0.1316 -0.0515
 1328BOLB   C1B31857   5.036  14.547   3.663 -0.0681  0.0088  0.0826
 1328BOLB   C2B31858   5.014  14.140   3.371 -0.2403 -0.2084  0.2337
 1328BOLB   C3B31859   5.051  14.140   2.987 -0.0424 -0.0396 -0.4075
 1328BOLB   C4B31860   5.380  13.814   2.741 -0.1091  0.0412  0.2701
 1328BOLB   NC231861   5.887  14.196  -0.450 -0.0851 -0.0525 -0.2860
 1328BOLB   PO231862   5.654  14.093  -0.092 -0.0121  0.1254  0.1160
 1328BOLB   GL331863   5.609  14.280   0.291  0.0726  0.0233 -0.1619
 1328BOLB   GL431864   5.283  14.271   0.352  0.2587 -0.3520 -0.0696
 1328BOLB   C1C31865   5.755  14.293   0.679 -0.3668  0.0543 -0.0786
 1328BOLB   C2C31866   5.651  14.201   1.197  0.2788 -0.2698 -0.1587
 1328BOLB   C3C31867   5.235  14.256   1.364 -0.0346  0.0267 -0.1149
 1328BOLB   C4C31868   5.170  14.571   1.692  0.0651  0.2448 -0.3471
 1328BOLB   C1D31869   4.978  14.585   0.264  0.1427 -0.0732  0.0364
 1328BOLB   C2D31870   4.774  14.958   0.328 -0.1895  0.0726 -0.0030
 1328BOLB   C3D31871   4.640  15.155   0.755  0.2432  0.1697 -0.0857
 1328BOLB   C4D31872   4.750  15.219   1.155 -0.4806 -0.1644 -0.0474
 1329BOLB   NC131873   5.233  15.041  15.117 -0.1708 -0.0757 -0.2189
 1329BOLB   PO131874   4.758  15.233  15.071  0.2230 -0.0147 -0.1707
 1329BOLB   GL131875   4.779  14.882  15.336  0.3611  0.2460  0.1406
 1329BOLB   GL231876   4.759  14.605  15.170  0.4400  0.0191 -0.3179
 1329BOLB   C1A31877   4.737  14.528  15.624 -0.1355  0.2128 -0.0049
 1329BOLB   C2A31878   4.816  14.351  16.049 -0.3561  0.2055 -0.0310
 1329BOLB   C3A31879   4.803  13.958  16.132 -0.0392  0.2671  0.0115
 1329BOLB   C4A31880   4.681  13.525  16.268 -0.0427 -0.0138 -0.1708
 1329BOLB   C1B31881   4.678  14.234  15.180 -0.0205 -0.1152 -0.1590
 1329BOLB   C2B31882   4.611  13.672  15.170 -0.0516  0.2159  0.1736
 1329BOLB   C3B31883   4.492  13.410  15.488 -0.2728  0.0655  0.3755
 1329BOLB   C4B31884   4.567  13.183  15.915  0.0445 -0.0983  0.1648
 1329BOLB   NC231885   4.939  11.544  17.675 -0.2140 -0.0491 -0.2227
 1329BOLB   PO231886   5.066  11.268  17.297 -0.0752  0.0593  0.1828
 1329BOLB   GL331887   4.906  11.627  17.153 -0.3663  0.3901  0.0061
 1329BOLB   GL431888   4.516  11.629  17.163 -0.0667 -0.6146  0.0183
 1329BOLB   C1C31889   5.082  12.020  16.907  0.1121 -0.1337  0.2468
 1329BOLB   C2C31890   5.021  12.388  16.737  0.0452  0.0544  0.1732
 1329BOLB   C3C31891   4.818  12.636  16.536  0.2272 -0.0206  0.1519
 1329BOLB   C4C31892   4.720  13.109  16.486  0.0295  0.1428  0.0081
 1329BOLB   C1D31893   4.260  11.938  16.904  0.0506  0.1883 -0.0823
 1329BOLB   C2D31894   4.178  11.882  16.486 -0.0423 -0.2399  0.2308
 1329BOLB   C3D31895   4.297  11.835  15.981 -0.0382 -0.0943 -0.0925
 1329BOLB   C4D31896   4.618  11.952  15.637 -0.0531  0.5797 -0.0335
 1330BOLB   NC131897   6.790  28.890  12.176  0.1888 -0.0291 -0.3327
 1330BOLB   PO131898   7.028  28.891  12.570 -0.0663  0.1321  0.0007
 1330BOLB   GL131899   7.246  29.224  12.796 -0.2183 -0.1493  0.0385
 1330BOLB   GL231900   7.586  29.234  12.670  0.3182 -0.2100  0.0822
 1330BOLB   C1A31901   7.165  29.628  12.805  0.1094 -0.3204 -0.0643
 1330BOLB   C2A31902   7.129  29.978  12.530  0.1350 -0.0502 -0.3828
 1330BOLB   C3A31903   7.199  30.395  12.589  0.0527 -0.0560 -0.1238
 1330BOLB   C4A31904   7.164  30.818  12.790 -0.0719 -0.1230 -0.0118
 1330BOLB   C1B31905   7.829  29.627  12.782  0.0881 -0.1821 -0.3592
 1330BOLB   C2B31906   8.015  29.947  12.618  0.0131  0.0188 -0.0416
 1330BOLB   C3B31907   8.164  30.399  12.464  0.0538  0.1199  0.1443
 1330BOLB   C4B31908   7.981  30.838  12.686  0.2394  0.0551 -0.3002
 1330BOLB   NC231909   8.519  33.298  12.971  0.1151  0.2128 -0.0166
 1330BOLB   PO231910   8.089  33.132  12.977 -0.3142  0.2087  0.3550
 1330BOLB   GL331911   7.847  32.786  13.301 -0.2222 -0.0127  0.2532
 1330BOLB   GL431912   7.501  32.697  13.559 -0.0045 -0.1150  0.2927
 1330BOLB   C1C31913   7.700  32.275  13.189  0.0605  0.0458  0.1383
 1330BOLB   C2C31914   7.683  31.835  13.058  0.1783 -0.0087 -0.0005
 1330BOLB   C3C31915   7.622  31.357  12.935 -0.1019 -0.1242  0.2685
 1330BOLB   C4C31916   7.549  31.000  12.912 -0.4360  0.1318  0.1881
 1330BOLB   C1D31917   7.130  32.395  13.577  0.1197  0.0533 -0.0432
 1330BOLB   C2D31918   7.075  31.972  13.477 -0.0047  0.2172  0.0475
 1330BOLB   C3D31919   7.228  31.561  13.340 -0.2512 -0.4522 -0.3021
 1330BOLB   C4D31920   7.123  31.190  13.160  0.1520  0.0596  0.4814
 1331BOLB   NC131921  30.108  16.038   8.889  0.0529 -0.2698  0.0171
 1331BOLB   PO131922  30.062  16.445   8.720 -0.1757  0.1905  0.2826
 1331BOLB   GL131923  30.468  16.589   8.742  0.0637  0.1263  0.0890
 1331BOLB   GL231924  30.624  16.342   8.876 -0.0551  0.4150  0.2996
 1331BOLB   C1A31925  30.743  16.915   8.596  0.0134 -0.0228  0.0054
 1331BOLB   C2A31926  31.232  16.935   8.592 -0.0696 -0.0514  0.0826
 1331BOLB   C3A31927  31.547  16.899   8.867 -0.1637  0.0519 -0.2300
 1331BOLB   C4A31928  31.793  16.642   8.965  0.2938  0.1429  0.0710
 1331BOLB   C1B31929  30.915  16.685   9.008 -0.3856 -0.0224  0.2392
 1331BOLB   C2B31930  30.931  17.182   9.016  0.3949  0.0746 -0.1817
 1331BOLB   C3B31931  31.117  17.523   9.342 -0.0264 -0.1484  0.3753
 1331BOLB   C4B31932  31.433  17.756   9.268  0.0211  0.0211  0.2406
 1331BOLB   NC231933  30.372  14.544   8.785  0.1489 -0.3164  0.2651
 1331BOLB   PO231934  30.705  14.249   8.843 -0.0012 -0.0243  0.1740
 1331BOLB   GL331935  31.003  14.623   8.742 -0.1745  0.3593  0.0306
 1331BOLB   GL431936  30.808  14.823   8.811  0.1266  0.0854  0.0488
 1331BOLB   C1C31937  31.425  14.968   8.656  0.0322  0.3020  0.5416
 1331BOLB   C2C31938  31.715  15.120   8.746  0.1205 -0.2519 -0.2028
 1331BOLB   C3C31939  31.804  15.645   8.794  0.0549  0.0201  0.1630
 1331BOLB   C4C31940  31.684  16.187   8.979 -0.1092 -0.0309  0.3583
 1331BOLB   C1D31941  30.910  15.201   8.969  0.0199 -0.1063 -0.4979
 1331BOLB   C2D31942  31.151  15.512   8.729 -0.3167  0.0878 -0.2146
 1331BOLB   C3D31943  31.275  15.911   8.835 -0.1374 -0.0272  0.0114
 1331BOLB   C4D31944  31.063  16.234   8.953 -0.4321 -0.0297  0.0136
 1332BOLB   NC131945   8.691  27.550   6.915  0.0299 -0.2381  0.0721
 1332BOLB   PO131946   8.549  27.777   6.585 -0.2840  0.1031 -0.0372
 1332BOLB   GL131947   8.649  28.135   6.402 -0.2463 -0.0663 -0.0136
 1332BOLB   GL231948   8.914  28.095   6.518  0.1048  0.0890  0.0383
 1332BOLB   C1A31949   8.780  28.510   6.184 -0.2018 -0.0174 -0.1108
 1332BOLB   C2A31950   8.808  28.871   5.832 -0.1033 -0.0608  0.0079
 1332BOLB   C3A31951   8.586  28.906   5.442 -0.0199 -0.2713  0.1709
 1332BOLB   C4A31952   8.647  29.261   5.116  0.1456 -0.3682 -0.1780
 1332BOLB   C1B31953   9.230  28.434   6.403 -0.0276  0.0262  0.3044
 1332BOLB   C2B31954   9.302  28.838   6.151  0.0245 -0.0036  0.0412
 1332BOLB   C3B31955   9.118  29.271   6.058  0.0891 -0.0747  0.3503
 1332BOLB   C4B31956   8.888  29.422   5.680 -0.0190 -0.1256  0.3337
 1332BOLB   NC231957   8.915  30.784   3.606  0.0270  0.0718 -0.0319
 1332BOLB   PO231958   8.805  30.755   3.189  0.1370 -0.2549 -0.2307
 1332BOLB   GL331959   9.029  30.350   3.384  0.0986 -0.2165  0.1695
 1332BOLB   GL431960   9.145  30.318   3.736  0.0653 -0.2514  0.1083
 1332BOLB   C1C31961   8.957  29.937   3.552 -0.0040  0.0795 -0.2353
 1332BOLB   C2C31962   9.007  29.542   3.827  0.0095  0.0748  0.0277
 1332BOLB   C3C31963   8.775  29.258   4.211  0.1893  0.2035  0.0341
 1332BOLB   C4C31964   8.677  29.361   4.643  0.0786 -0.1305 -0.1135
 1332BOLB   C1D31965   9.385  29.898   3.794  0.0259 -0.0247  0.1252
 1332BOLB   C2D31966   9.578  29.445   3.730 -0.0655  0.1708 -0.0870
 1332BOLB   C3D31967   9.513  29.180   3.428 -0.0850  0.2861 -0.0869
 1332BOLB   C4D31968   9.698  28.971   2.994  0.0387 -0.0101 -0.0693
 1333BOLB   NC131969  10.588  16.935   3.774  0.0456 -0.0288 -0.0734
 1333BOLB   PO131970  10.406  16.553   4.009 -0.0434 -0.5787 -0.1095
 1333BOLB   GL131971  10.759  16.490   3.674 -0.2448 -0.0356  0.1509
 1333BOLB   GL231972  11.072  16.694   3.819  0.0310 -0.0865  0.1314
 1333BOLB   C1A31973  11.036  16.213   3.555  0.0192 -0.2091  0.3491
 1333BOLB   C2A31974  11.309  16.091   3.291  0.0409 -0.0408  0.0668
 1333BOLB   C3A31975  11.608  16.276   2.949  0.2255 -0.0032  0.4311
 1333BOLB   C4A31976  11.583  16.381   2.460 -0.1215 -0.0606  0.0619
 1333BOLB   C1B31977  11.574  16.663   3.908  0.0774 -0.2854  0.0335
 1333BOLB   C2B31978  11.990  16.415   3.979 -0.3185 -0.1149 -0.2035
 1333BOLB   C3B31979  12.352  16.252   3.631  0.2031  0.0733  0.2496
 1333BOLB   C4B31980  12.622  16.159   3.458  0.0513 -0.2175 -0.0290
 1333BOLB   NC231981  11.755  15.451   0.407 -0.1816  0.3388  0.1607
 1333BOLB   PO231982  11.614  15.680   0.139  0.1229  0.1178  0.1425
 1333BOLB   GL331983  11.451  15.871   0.485 -0.0420 -0.0727 -0.4048
 1333BOLB   GL431984  11.672  15.938   0.640 -0.0611 -0.0581 -0.1085
 1333BOLB   C1C31985  11.224  15.830   0.938  0.0111  0.0326 -0.0437
 1333BOLB   C2C31986  11.285  16.029   1.352  0.0563 -0.0584 -0.2104
 1333BOLB   C3C31987  11.434  16.358   1.575  0.1002 -0.0049 -0.1115
 1333BOLB   C4C31988  11.398  16.442   2.082 -0.1295  0.2759 -0.2783
 1333BOLB   C1D31989  11.769  16.153   1.008  0.1993 -0.2482 -0.0118
 1333BOLB   C2D31990  11.912  16.382   1.411  0.0490  0.0787  0.3665
 1333BOLB   C3D31991  11.733  16.817   1.617  0.1302 -0.1276  0.1126
 1333BOLB   C4D31992  11.384  16.843   1.859  0.0181 -0.1216 -0.2258
 1334BOLB   NC131993   8.057  23.835   3.174  0.0526 -0.1981 -0.0248
 1334BOLB   PO131994   8.095  24.151   3.582  0.2267  0.0493  0.1722
 1334BOLB   GL131995   8.010  24.473   3.281  0.1019 -0.0917  0.0750
 1334BOLB   GL231996   7.756  24.429   3.211 -0.2410  0.1628  0.3020
 1334BOLB   C1A31997   8.123  24.740   3.006  0.2414 -0.3570  0.2340
 1334BOLB   C2A31998   8.345  24.889   2.639  0.0198  0.0689 -0.0225
 1334BOLB   C3A31999   8.476  24.749   2.161 -0.1456 -0.0006 -0.2435
 1334BOLB   C4A32000   8.689  24.526   1.858  0.1297 -0.0781 -0.1015
 1334BOLB   C1B32001   7.620  24.744   2.942  0.1748  0.0579 -0.2824
 1334BOLB   C2B32002   7.826  25.016   2.739 -0.0933  0.1721  0.2134
 1334BOLB   C3B32003   8.069  25.314   2.419  0.1105 -0.0419 -0.2952
 1334BOLB   C4B32004   8.454  25.497   2.244  0.2736  0.0605  0.1131
 1334BOLB   NC232005   8.909  25.572  -0.300  0.2864 -0.4010 -0.1152
 1334BOLB   PO232006   9.309  25.617  -0.254 -0.0341  0.0095 -0.3407
 1334BOLB   GL332007   9.115  25.458   0.115 -0.0855 -0.1075 -0.2978
 1334BOLB   GL432008   9.010  25.607   0.374 -0.2099 -0.2102 -0.1559
 1334BOLB   C1C32009   9.268  25.097   0.377 -0.1032 -0.2061 -0.0149
 1334BOLB   C2C32010   9.206  24.867   0.791 -0.1431 -0.1865  0.0804
 1334BOLB   C3C32011   9.256  24.716   1.189  0.0293  0.0960 -0.0733
 1334BOLB   C4C32012   8.999  24.596   1.533  0.5549 -0.2915  0.1286
 1334BOLB   C1D32013   8.962  25.395   0.747  0.3146 -0.0185 -0.0635
 1334BOLB   C2D32014   8.937  25.163   1.136  0.1999 -0.1007  0.5143
 1334BOLB   C3D32015   9.153  25.251   1.533 -0.0775  0.1028 -0.1261
 1334BOLB   C4D32016   9.284  25.259   1.925 -0.0766 -0.0851  0.1597
 1335BOLB   NC132017   6.348  13.668   5.499  0.2270  0.0428 -0.1510
 1335BOLB   PO132018   6.270  13.914   5.165  0.0245  0.2628  0.0946
 1335BOLB   GL132019   6.340  13.695   4.658  0.1078  0.0301 -0.5100
 1335BOLB   GL232020   6.238  13.493   4.807  0.0533 -0.0714  0.0344
 1335BOLB   C1A32021   6.504  13.456   4.324  0.1537  0.2216  0.0968
 1335BOLB   C2A32022   6.423  13.031   4.149  0.1541  0.1017  0.1637
 1335BOLB   C3A32023   6.544  12.684   3.919 -0.1475 -0.1123  0.1577
 1335BOLB   C4A32024   6.489  12.267   3.864  0.2055 -0.3136  0.1983
 1335BOLB   C1B32025   6.356  13.060   4.724 -0.1712  0.1477 -0.0630
 1335BOLB   C2B32026   6.506  12.674   4.733 -0.0700  0.1468  0.3767
 1335BOLB   C3B32027   6.719  12.425   5.007  0.0986  0.2729  0.1128
 1335BOLB   C4B32028   6.452  12.214   5.293  0.0649 -0.3420  0.0251
 1335BOLB   NC232029   7.742  10.913   2.279  0.0306 -0.2183 -0.2073
 1335BOLB   PO232030   7.746  11.283   2.187  0.1314  0.0481  0.3428
 1335BOLB   GL332031   7.578  11.569   2.414 -0.0220  0.1344 -0.1571
 1335BOLB   GL432032   7.811  11.564   2.655 -0.1913  0.1964 -0.2357
 1335BOLB   C1C32033   7.144  11.593   2.666 -0.1930  0.2525  0.0259
 1335BOLB   C2C32034   7.060  11.923   2.989  0.0691  0.1372  0.2716
 1335BOLB   C3C32035   6.628  11.901   3.197  0.1893  0.1122  0.1089
 1335BOLB   C4C32036   6.531  12.014   3.626  0.1873  0.0898 -0.1035
 1335BOLB   C1D32037   7.505  11.976   2.668 -0.0416  0.1727 -0.0264
 1335BOLB   C2D32038   7.434  12.334   2.783 -0.0277 -0.2649  0.2574
 1335BOLB   C3D32039   7.275  12.591   3.175 -0.2866 -0.3454  0.2556
 1335BOLB   C4D32040   7.336  12.954   3.492  0.1262 -0.1595 -0.0217
 1336BOLB   NC132041   6.191  16.996  21.864 -0.0166  0.2617 -0.2463
 1336BOLB   PO132042   5.925  16.759  21.858  0.2779 -0.0937  0.0466
 1336BOLB   GL132043   5.877  16.976  21.478 -0.0727  0.1547 -0.0301
 1336BOLB   GL232044   6.021  16.760  21.200 -0.1349 -0.0150 -0.0024
 1336BOLB   C1A32045   5.937  17.387  21.335 -0.2280  0.1449  0.1583
 1336BOLB   C2A32046   5.782  17.714  21.090  0.1243 -0.1594  0.2902
 1336BOLB   C3A32047   5.777  18.182  21.001 -0.0565  0.2575 -0.0069
 1336BOLB   C4A32048   5.586  18.481  20.791 -0.0037 -0.0086  0.2000
 1336BOLB   C1B32049   6.271  16.799  20.890 -0.2040 -0.1360 -0.0392
 1336BOLB   C2B32050   6.637  17.044  20.798 -0.0456  0.0239  0.1058
 1336BOLB   C3B32051   6.687  17.037  20.325  0.2399  0.0264 -0.1789
 1336BOLB   C4B32052   6.604  17.092  19.979  0.2036  0.1457  0.2841
 1336BOLB   NC232053   5.504  19.605  18.318 -0.2892 -0.0834 -0.3708
 1336BOLB   PO232054   5.274  19.330  18.609  0.0729  0.1997 -0.1091
 1336BOLB   GL332055   5.097  19.662  18.863  0.1493 -0.1609  0.1704
 1336BOLB   GL432056   4.823  19.916  18.958  0.3182  0.1669  0.2728
 1336BOLB   C1C32057   5.074  19.533  19.309  0.0870 -0.1928 -0.0598
 1336BOLB   C2C32058   5.244  19.301  19.574 -0.1000 -0.1063 -0.0641
 1336BOLB   C3C32059   5.450  19.050  19.967 -0.1332 -0.2754 -0.0117
 1336BOLB   C4C32060   5.542  18.852  20.390 -0.1297  0.0738 -0.2124
 1336BOLB   C1D32061   4.696  19.972  19.409  0.0849  0.1416  0.0881
 1336BOLB   C2D32062   4.656  19.861  19.825 -0.0204  0.1730  0.2111
 1336BOLB   C3D32063   4.594  19.950  20.229 -0.0994  0.0969  0.2216
 1336BOLB   C4D32064   4.650  20.026  20.701 -0.0971  0.1569  0.1377
 1337BOLB   NC132065   1.944  17.441  21.299  0.1781  0.0449 -0.0670
 1337BOLB   PO132066   2.170  17.145  21.112 -0.2511 -0.0351  0.2029
 1337BOLB   GL132067   2.303  17.472  20.943 -0.0253  0.2883 -0.0869
 1337BOLB   GL232068   2.602  17.391  20.860  0.1228 -0.3195  0.1387
 1337BOLB   C1A32069   2.204  17.777  20.746  0.1197  0.0911 -0.0192
 1337BOLB   C2A32070   2.329  18.023  20.551  0.0293 -0.0666  0.0002
 1337BOLB   C3A32071   2.461  18.508  20.442 -0.0919  0.0925 -0.2410
 1337BOLB   C4A32072   2.394  18.960  20.330 -0.1907  0.1311  0.1533
 1337BOLB   C1B32073   2.563  17.544  20.423  0.0113 -0.1253  0.0866
 1337BOLB   C2B32074   2.666  17.730  20.182  0.4491  0.1094  0.0144
 1337BOLB   C3B32075   2.807  18.190  19.859 -0.1804 -0.0378 -0.1375
 1337BOLB   C4B32076   3.209  18.260  19.834 -0.0148  0.0174 -0.2098
 1337BOLB   NC232077   3.639  19.760  17.873  0.0954 -0.2488 -0.0393
 1337BOLB   PO232078   3.392  19.988  18.144  0.2310  0.3022  0.0056
 1337BOLB   GL332079   3.173  19.854  18.494 -0.0148  0.1435 -0.0292
 1337BOLB   GL432080   2.875  20.004  18.454  0.1529 -0.0709 -0.1477
 1337BOLB   C1C32081   2.792  19.601  18.737  0.3916 -0.1658  0.1280
 1337BOLB   C2C32082   2.502  19.356  19.093  0.0359  0.1567 -0.1045
 1337BOLB   C3C32083   2.486  19.547  19.536 -0.2330 -0.0640 -0.3428
 1337BOLB   C4C32084   2.485  19.210  19.842  0.1683 -0.3329 -0.0154
 1337BOLB   C1D32085   2.931  20.116  18.905  0.0389 -0.0463 -0.0611
 1337BOLB   C2D32086   2.841  20.174  19.375  0.2043 -0.0826  0.1502
 1337BOLB   C3D32087   2.684  20.409  19.777 -0.1602  0.0421  0.0640
 1337BOLB   C4D32088   2.581  20.775  19.908  0.2189  0.1300  0.2257
 1338BOLB   NC132089   5.112  21.863  18.329 -0.0410 -0.2429  0.0649
 1338BOLB   PO132090   5.458  21.889  18.182 -0.3191  0.0900  0.0066
 1338BOLB   GL132091   5.552  22.173  18.514 -0.1801 -0.1417  0.0023
 1338BOLB   GL232092   5.272  22.362  18.634 -0.5095  0.0059  0.2012
 1338BOLB   C1A32093   5.443  22.194  19.031 -0.0657 -0.1289  0.0070
 1338BOLB   C2A32094   5.471  22.282  19.411  0.1551  0.2141 -0.1429
 1338BOLB   C3A32095   5.299  22.417  19.827 -0.1616 -0.2032 -0.1415
 1338BOLB   C4A32096   5.203  22.659  20.119 -0.1472  0.0856  0.0647
 1338BOLB   C1B32097   5.158  22.616  19.030 -0.0660 -0.4061  0.2533
 1338BOLB   C2B32098   5.194  22.759  19.498  0.1830 -0.0836  0.3639
 1338BOLB   C3B32099   4.882  22.757  19.738 -0.0751  0.3576  0.3613
 1338BOLB   C4B32100   4.635  22.553  20.103  0.0016 -0.2766 -0.3437
 1338BOLB   NC232101   5.631  23.974  22.346 -0.0405 -0.0137 -0.2846
 1338BOLB   PO232102   5.315  23.742  22.475  0.0089 -0.0196 -0.0683
 1338BOLB   GL332103   5.225  23.549  22.062 -0.1876  0.0257  0.1399
 1338BOLB   GL432104   5.473  23.259  22.064  0.0623 -0.1149 -0.0668
 1338BOLB   C1C32105   5.105  23.277  21.697  0.1576 -0.1058 -0.2081
 1338BOLB   C2C32106   5.085  23.169  21.212 -0.0514 -0.1270  0.2139
 1338BOLB   C3C32107   4.957  23.108  20.845  0.0220 -0.0298 -0.2677
 1338BOLB   C4C32108   5.028  22.862  20.546  0.0328 -0.3613 -0.3116
 1338BOLB   C1D32109   5.615  23.147  21.728  0.4020  0.0086 -0.0570
 1338BOLB   C2D32110   5.493  22.903  21.334 -0.0030 -0.2729  0.0546
 1338BOLB   C3D32111   5.471  22.885  20.854  0.0640  0.3173 -0.1801
 1338BOLB   C4D32112   5.419  23.153  20.466 -0.3066 -0.2628 -0.4222
 1339BOLB   NC132113  11.290  26.979   7.599 -0.0811  0.0459 -0.0198
 1339BOLB   PO132114  11.598  26.552   7.458  0.2673  0.0750  0.0311
 1339BOLB   GL132115  11.795  26.871   7.642  0.1418 -0.0293  0.1755
 1339BOLB   GL232116  11.786  27.211   7.652 -0.1110 -0.2311 -0.2419
 1339BOLB   C1A32117  12.217  27.011   7.556  0.1182 -0.0022  0.3347
 1339BOLB   C2A32118  12.585  27.347   7.808  0.0716  0.0939 -0.1858
 1339BOLB   C3A32119  12.772  27.735   7.720 -0.0972 -0.1565 -0.2067
 1339BOLB   C4A32120  13.028  28.000   8.153 -0.0985  0.1750 -0.1548
 1339BOLB   C1B32121  12.118  27.506   7.645  0.2084 -0.2507  0.1088
 1339BOLB   C2B32122  12.219  27.802   7.696  0.0165  0.0486 -0.2412
 1339BOLB   C3B32123  12.417  28.048   7.456 -0.3105 -0.0316 -0.0182
 1339BOLB   C4B32124  12.766  28.268   7.735 -0.2005 -0.2826 -0.0713
 1339BOLB   NC232125  14.546  29.584   7.846 -0.1642  0.0216 -0.2807
 1339BOLB   PO232126  14.262  29.878   7.919 -0.0676  0.0718  0.3864
 1339BOLB   GL332127  14.049  29.538   7.901 -0.1165  0.0730  0.2079
 1339BOLB   GL432128  13.860  29.487   7.542 -0.2122 -0.2370  0.1924
 1339BOLB   C1C32129  13.946  29.142   7.904  0.0671  0.0053  0.1418
 1339BOLB   C2C32130  13.954  28.708   7.813 -0.2383  0.0154 -0.1126
 1339BOLB   C3C32131  13.868  28.331   8.055  0.0769 -0.0237  0.3288
 1339BOLB   C4C32132  13.494  28.182   8.171  0.0219  0.2854  0.2586
 1339BOLB   C1D32133  13.484  29.260   7.619 -0.0111 -0.0951 -0.0821
 1339BOLB   C2D32134  13.114  29.174   7.875  0.0901 -0.1008  0.0885
 1339BOLB   C3D32135  13.108  29.002   8.307  0.0877 -0.0667  0.2783
 1339BOLB   C4D32136  13.168  28.723   8.559 -0.2779 -0.1608  0.1316
 1340BOLB   NC132137  14.064  17.154   9.016 -0.1229 -0.1392  0.0548
 1340BOLB   PO132138  13.963  17.053   8.738 -0.2839 -0.0724 -0.1067
 1340BOLB   GL132139  14.337  17.028   8.490 -0.4113 -0.0476 -0.0053
 1340BOLB   GL232140  14.481  17.053   8.137 -0.1057 -0.0800  0.2258
 1340BOLB   C1A32141  14.669  16.808   8.497  0.1099  0.3071 -0.2154
 1340BOLB   C2A32142  14.910  16.457   8.646 -0.0232  0.1847 -0.0789
 1340BOLB   C3A32143  15.004  16.009   8.444 -0.0179 -0.0558 -0.3906
 1340BOLB   C4A32144  15.235  15.798   8.162 -0.0294 -0.1226  0.1114
 1340BOLB   C1B32145  14.846  16.824   7.966  0.3292 -0.3427  0.1376
 1340BOLB   C2B32146  15.155  16.704   7.666  0.0562 -0.1691  0.0661
 1340BOLB   C3B32147  15.632  16.797   7.516 -0.1722 -0.1934  0.0669
 1340BOLB   C4B32148  16.035  16.960   7.602  0.3615 -0.1597  0.0663
 1340BOLB   NC232149  17.721  15.358   7.977 -0.0620  0.2448  0.2066
 1340BOLB   PO232150  17.708  15.209   7.621 -0.0164 -0.2746 -0.0073
 1340BOLB   GL332151  17.277  15.211   7.816 -0.5876  0.1429 -0.1233
 1340BOLB   GL432152  17.221  15.061   7.438 -0.1265  0.0318  0.0180
 1340BOLB   C1C32153  16.923  15.488   7.880  0.0403 -0.0746 -0.0428
 1340BOLB   C2C32154  16.494  15.692   7.983  0.0852  0.2851  0.3885
 1340BOLB   C3C32155  16.086  15.684   8.036  0.0732 -0.3106  0.1051
 1340BOLB   C4C32156  15.676  15.857   8.036  0.1117 -0.1717 -0.0123
 1340BOLB   C1D32157  16.798  15.187   7.496  0.0348  0.2012  0.3733
 1340BOLB   C2D32158  16.472  15.415   7.563  0.1960  0.2402 -0.2105
 1340BOLB   C3D32159  16.113  15.873   7.599 -0.0152 -0.2130  0.2883
 1340BOLB   C4D32160  16.171  16.167   7.918 -0.1461 -0.0513  0.0076
 1341BOLB   NC132161  10.685  18.087   3.334 -0.1865  0.0238  0.1930
 1341BOLB   PO132162  10.398  17.783   3.204  0.0847  0.0401  0.0284
 1341BOLB   GL132163  10.241  17.618   2.820 -0.3768  0.2617 -0.2355
 1341BOLB   GL232164  10.256  17.751   2.622  0.0412 -0.1758  0.0073
 1341BOLB   C1A32165  10.448  17.209   2.739  0.5707  0.2516  0.0218
 1341BOLB   C2A32166  10.757  17.169   2.385 -0.0356  0.2043 -0.0835
 1341BOLB   C3A32167  10.821  16.944   2.064  0.1703  0.0277  0.2217
 1341BOLB   C4A32168  10.452  16.846   1.741 -0.1518  0.0565  0.0323
 1341BOLB   C1B32169  10.371  17.505   2.272  0.0243  0.0791 -0.1083
 1341BOLB   C2B32170  10.318  17.326   1.924 -0.1695 -0.1284  0.2076
 1341BOLB   C3B32171  10.021  17.131   1.715 -0.0907  0.4155  0.1704
 1341BOLB   C4B32172  10.061  17.029   1.253 -0.1363  0.0190 -0.0884
 1341BOLB   NC232173  12.369  17.152  -0.059 -0.0715 -0.2018  0.3008
 1341BOLB   PO232174  12.017  17.287  -0.133 -0.1372  0.3280 -0.2578
 1341BOLB   GL332175  11.912  17.350   0.241 -0.1969  0.1263 -0.0868
 1341BOLB   GL432176  12.184  17.539   0.356 -0.0041 -0.1014 -0.4085
 1341BOLB   C1C32177  11.643  17.517   0.634 -0.1791  0.0059  0.1623
 1341BOLB   C2C32178  11.242  17.393   0.810 -0.2175  0.0670 -0.3218
 1341BOLB   C3C32179  10.872  17.128   1.043  0.4324  0.0264 -0.2832
 1341BOLB   C4C32180  10.550  16.913   1.338 -0.1122 -0.1150  0.2137
 1341BOLB   C1D32181  12.008  17.800   0.502  0.2264  0.0644  0.4133
 1341BOLB   C2D32182  11.841  18.163   0.694 -0.0960  0.0297 -0.0728
 1341BOLB   C3D32183  11.561  18.305   1.104 -0.0851 -0.1653  0.0797
 1341BOLB   C4D32184  11.308  18.261   1.384 -0.1012 -0.3675  0.1406
 1342BOLB   NC132185  18.725  19.734  11.739  0.1101 -0.1540  0.3512
 1342BOLB   PO132186  18.822  20.075  11.501  0.1417 -0.2654  0.1529
 1342BOLB   GL132187  18.483  20.101  11.329 -0.0507  0.0905  0.0007
 1342BOLB   GL232188  18.269  20.050  11.508 -0.4248  0.1213 -0.1197
 1342BOLB   C1A32189  18.239  20.044  10.933 -0.0579  0.0607 -0.1577
 1342BOLB   C2A32190  17.921  20.294  10.668 -0.2264  0.0966  0.1454
 1342BOLB   C3A32191  17.876  20.321  10.201  0.2933  0.1461  0.3737
 1342BOLB   C4A32192  17.533  20.303   9.859 -0.1680  0.1395  0.3478
 1342BOLB   C1B32193  17.842  19.943  11.419  0.1083 -0.0848  0.1812
 1342BOLB   C2B32194  17.428  20.098  11.404  0.0028 -0.1276 -0.0224
 1342BOLB   C3B32195  16.993  20.057  11.302  0.2161  0.0866  0.1395
 1342BOLB   C4B32196  16.713  19.658  11.346  0.1779 -0.2488 -0.3454
 1342BOLB   NC232197  19.499  20.913   9.246  0.1394 -0.0255 -0.0511
 1342BOLB   PO232198  19.259  20.617   9.251 -0.1120  0.0904  0.0941
 1342BOLB   GL332199  18.939  20.890   9.159  0.1996  0.3859 -0.1302
 1342BOLB   GL432200  18.907  20.922   8.852  0.2942  0.0717  0.0657
 1342BOLB   C1C32201  18.517  20.944   9.224 -0.1651 -0.0077 -0.1090
 1342BOLB   C2C32202  18.005  20.936   9.108  0.0044 -0.3143  0.0259
 1342BOLB   C3C32203  17.549  20.740   9.296 -0.2595  0.0394  0.1478
 1342BOLB   C4C32204  17.289  20.506   9.623 -0.0193 -0.3194  0.0451
 1342BOLB   C1D32205  18.656  20.623   8.798  0.0136  0.0032  0.0649
 1342BOLB   C2D32206  18.348  20.318   8.747 -0.0440 -0.0627  0.1561
 1342BOLB   C3D32207  18.061  20.161   8.443  0.0829 -0.1041 -0.1279
 1342BOLB   C4D32208  17.652  20.239   8.227 -0.0858  0.0320  0.1331
 1343BOLB   NC132209   1.539  27.008  12.087  0.1712  0.0565 -0.1160
 1343BOLB   PO132210   1.499  26.740  12.446  0.1279  0.0674 -0.1659
 1343BOLB   GL132211   1.059  26.973  12.623  0.1946  0.0311 -0.1015
 1343BOLB   GL232212   0.791  26.925  12.527  0.0061 -0.1282  0.2972
 1343BOLB   C1A32213   1.045  27.341  12.812  0.1448  0.3856  0.0572
 1343BOLB   C2A32214   0.736  27.638  12.919  0.0752 -0.0269 -0.0161
 1343BOLB   C3A32215   0.391  27.985  13.073  0.0777  0.6067  0.0676
 1343BOLB   C4A32216   0.408  28.230  13.404 -0.1299  0.0357  0.2446
 1343BOLB   C1B32217   0.486  26.970  12.231 -0.0446 -0.1177 -0.0439
 1343BOLB   C2B32218   0.164  27.197  12.398  0.1357 -0.0304 -0.3874
 1343BOLB   C3B32219  -0.345  27.515  12.523  0.1977 -0.1915  0.1230
 1343BOLB   C4B32220  -0.686  27.822  12.330  0.2688  0.0472  0.1717
 1343BOLB   NC232221  -0.381  29.988  14.808 -0.1409  0.0822 -0.3528
 1343BOLB   PO232222  -0.523  29.771  15.136  0.2006 -0.0165  0.1066
 1343BOLB   GL332223  -0.271  29.493  14.920 -0.2823 -0.3165 -0.0897
 1343BOLB   GL432224   0.113  29.612  14.921 -0.2681 -0.0115 -0.1152
 1343BOLB   C1C32225  -0.148  29.280  14.507  0.0670 -0.0739  0.0294
 1343BOLB   C2C32226  -0.048  28.951  14.195  0.0095 -0.0566  0.1661
 1343BOLB   C3C32227  -0.017  28.522  14.058  0.0476 -0.0311 -0.1237
 1343BOLB   C4C32228   0.290  28.305  13.835  0.1482 -0.0426  0.0647
 1343BOLB   C1D32229   0.263  29.611  14.500  0.2755  0.0710 -0.1579
 1343BOLB   C2D32230   0.347  29.336  14.142  0.3278  0.2229  0.0156
 1343BOLB   C3D32231   0.369  28.930  13.926 -0.2803  0.1012  0.1135
 1343BOLB   C4D32232   0.227  28.789  13.640  0.2056 -0.0983 -0.1521
 1344BOLB   NC132233   6.427  14.218  13.827  0.0674 -0.2679 -0.1025
 1344BOLB   PO132234   6.130  14.516  14.259  0.1146 -0.2116 -0.0036
 1344BOLB   GL132235   6.062  14.121  14.460  0.0209 -0.0569  0.1558
 1344BOLB   GL232236   5.858  14.196  14.673 -0.2049  0.1722  0.2367
 1344BOLB   C1A32237   6.241  13.795  14.782  0.0407 -0.0553 -0.0526
 1344BOLB   C2A32238   6.355  13.452  15.013  0.1127  0.0270 -0.0228
 1344BOLB   C3A32239   6.484  13.395  15.438  0.0112 -0.0519  0.0888
 1344BOLB   C4A32240   6.398  13.163  15.760  0.2014  0.1517  0.1310
 1344BOLB   C1B32241   5.580  14.070  14.988  0.1096  0.2612  0.1806
 1344BOLB   C2B32242   5.575  13.750  15.173 -0.1299  0.2122  0.1394
 1344BOLB   C3B32243   5.987  13.353  15.331  0.0771 -0.2522 -0.1381
 1344BOLB   C4B32244   6.328  12.949  15.218 -0.1878 -0.1148  0.3620
 1344BOLB   NC232245   6.036  11.407  16.718 -0.2295  0.0354  0.0956
 1344BOLB   PO232246   6.444  11.663  16.790 -0.2069 -0.0539  0.1008
 1344BOLB   GL332247   6.577  12.074  16.589  0.1297  0.4496 -0.0842
 1344BOLB   GL432248   6.353  12.277  16.368 -0.1031 -0.0075  0.0447
 1344BOLB   C1C32249   6.881  12.415  16.713  0.0733 -0.0284  0.0525
 1344BOLB   C2C32250   6.870  12.827  16.724  0.3152  0.0053  0.0544
 1344BOLB   C3C32251   6.781  13.069  16.442 -0.0575  0.0996 -0.2217
 1344BOLB   C4C32252   6.450  12.990  16.206 -0.2520  0.3924 -0.0925
 1344BOLB   C1D32253   6.327  12.759  16.654 -0.0147  0.1947 -0.1318
 1344BOLB   C2D32254   6.059  13.177  16.711  0.2293 -0.0292 -0.4469
 1344BOLB   C3D32255   5.705  13.432  16.612  0.0050  0.0625 -0.1215
 1344BOLB   C4D32256   5.558  13.869  16.564 -0.0824 -0.1625 -0.0499
 1345BOLB   NC132257   7.718  12.954   8.939  0.3628  0.0489  0.1454
 1345BOLB   PO132258   7.970  13.416   8.977 -0.1993  0.0761  0.1867
 1345BOLB   GL132259   8.256  13.036   8.857 -0.0197 -0.0940  0.1792
 1345BOLB   GL232260   8.457  12.759   8.613  0.2916 -0.3424 -0.1431
 1345BOLB   C1A32261   8.220  12.554   8.930  0.0916 -0.3069 -0.3057
 1345BOLB   C2A32262   8.263  12.071   8.848  0.1888  0.1984 -0.1374
 1345BOLB   C3A32263   8.331  11.681   8.677 -0.1400 -0.1224  0.1489
 1345BOLB   C4A32264   8.228  11.276   8.412  0.1744  0.0011  0.0091
 1345BOLB   C1B32265   8.524  12.380   8.511 -0.0206 -0.1192  0.0276
 1345BOLB   C2B32266   8.743  12.007   8.679  0.1448 -0.1132 -0.2240
 1345BOLB   C3B32267   9.106  11.635   8.713 -0.0398 -0.2063  0.2188
 1345BOLB   C4B32268   9.569  11.688   8.850  0.3606 -0.0933  0.0411
 1345BOLB   NC232269   8.913   8.852   7.980 -0.0342 -0.0053 -0.2012
 1345BOLB   PO232270   8.515   8.825   7.776  0.1535  0.1315 -0.0036
 1345BOLB   GL332271   8.499   9.133   8.043  0.0001 -0.2393  0.1618
 1345BOLB   GL432272   8.671   9.310   7.871  0.0147 -0.1783  0.1306
 1345BOLB   C1C32273   8.272   9.560   8.283  0.0827 -0.3130  0.3825
 1345BOLB   C2C32274   8.097  10.028   8.333  0.1137  0.0410 -0.0329
 1345BOLB   C3C32275   8.101  10.435   8.305 -0.0563 -0.1568 -0.1608
 1345BOLB   C4C32276   8.237  10.920   8.383  0.0611  0.0466 -0.1588
 1345BOLB   C1D32277   8.686   9.717   8.127 -0.0844 -0.2631 -0.1077
 1345BOLB   C2D32278   8.496  10.174   8.183 -0.1202 -0.1619  0.2257
 1345BOLB   C3D32279   8.628  10.675   8.216 -0.1049  0.0831 -0.2868
 1345BOLB   C4D32280   9.051  10.887   8.231 -0.0797  0.4577  0.0569
 1346BOLB   NC132281   7.608  17.548  17.903  0.0721  0.1326  0.1592
 1346BOLB   PO132282   7.595  17.205  17.444 -0.1762  0.1697 -0.1522
 1346BOLB   GL132283   7.816  17.111  17.755 -0.1991  0.3451 -0.0571
 1346BOLB   GL232284   7.541  17.018  17.952  0.3164  0.1587  0.0343
 1346BOLB   C1A32285   8.043  17.145  18.163  0.2509  0.1331  0.1459
 1346BOLB   C2A32286   8.130  17.095  18.567  0.0074  0.1819  0.1004
 1346BOLB   C3A32287   8.081  17.080  18.885 -0.0216  0.1033 -0.4814
 1346BOLB   C4A32288   8.156  16.971  19.391 -0.1524  0.0855 -0.0854
 1346BOLB   C1B32289   7.693  16.751  18.208  0.1831 -0.3278  0.0835
 1346BOLB   C2B32290   7.878  16.324  18.255 -0.1062 -0.3751  0.1137
 1346BOLB   C3B32291   8.262  16.107  18.217  0.1000  0.0854  0.1611
 1346BOLB   C4B32292   8.348  15.672  18.259  0.0540 -0.0624 -0.1359
 1346BOLB   NC232293   8.752  16.726  21.444 -0.0596  0.0279  0.2328
 1346BOLB   PO232294   9.125  17.022  21.649  0.3242  0.2487  0.3013
 1346BOLB   GL332295   9.009  17.183  21.188 -0.0842  0.0590  0.0223
 1346BOLB   GL432296   9.082  17.439  21.187  0.2105  0.1807  0.1450
 1346BOLB   C1C32297   8.661  17.250  20.934 -0.1528  0.2514 -0.1237
 1346BOLB   C2C32298   8.423  17.432  20.640 -0.0939 -0.1730 -0.0029
 1346BOLB   C3C32299   8.360  17.328  20.157 -0.0433  0.1467 -0.2736
 1346BOLB   C4C32300   8.219  17.086  19.776 -0.0311  0.0053  0.1071
 1346BOLB   C1D32301   9.147  17.851  20.978  0.3760  0.1989  0.1056
 1346BOLB   C2D32302   9.057  18.130  20.556  0.2327 -0.1945 -0.2353
 1346BOLB   C3D32303   9.061  18.444  20.169 -0.4121  0.0565  0.1507
 1346BOLB   C4D32304   9.504  18.413  19.993  0.1704 -0.0463  0.0101
 1347BOLB   NC132305  14.436  19.427   7.205 -0.1970 -0.0464 -0.0212
 1347BOLB   PO132306  14.799  19.591   6.981  0.0486  0.2669 -0.3502
 1347BOLB   GL132307  15.211  19.403   6.650  0.1514 -0.2562 -0.0014
 1347BOLB   GL232308  15.372  19.206   6.899 -0.1535  0.1759 -0.1638
 1347BOLB   C1A32309  15.464  19.259   6.347  0.1973  0.0522 -0.1248
 1347BOLB   C2A32310  15.797  19.405   6.107  0.1859 -0.3027 -0.1099
 1347BOLB   C3A32311  16.108  19.660   6.046 -0.0255 -0.1178  0.4358
 1347BOLB   C4A32312  16.443  19.581   5.714 -0.3074 -0.0353  0.2925
 1347BOLB   C1B32313  15.813  19.222   6.659  0.0961 -0.1618 -0.0166
 1347BOLB   C2B32314  16.164  19.252   6.393 -0.0136  0.2319  0.0856
 1347BOLB   C3B32315  16.494  19.141   6.119 -0.3242 -0.2857 -0.3102
 1347BOLB   C4B32316  16.808  19.315   5.993 -0.1315 -0.0811  0.3037
 1347BOLB   NC232317  18.898  19.041   6.247  0.1451  0.0567  0.1112
 1347BOLB   PO232318  18.490  18.991   6.435 -0.0294 -0.0614  0.0708
 1347BOLB   GL332319  18.274  19.280   6.272 -0.0385  0.1492  0.1435
 1347BOLB   GL432320  18.238  19.511   6.481 -0.0504  0.1229  0.1093
 1347BOLB   C1C32321  17.868  19.435   6.100 -0.1532 -0.1139 -0.1823
 1347BOLB   C2C32322  17.458  19.514   5.931 -0.1674 -0.1161  0.0421
 1347BOLB   C3C32323  17.183  19.350   5.705  0.2035  0.2176  0.0573
 1347BOLB   C4C32324  16.882  19.528   5.590  0.2365 -0.0773  0.1449
 1347BOLB   C1D32325  17.993  19.550   6.806 -0.2522  0.0213  0.0643
 1347BOLB   C2D32326  17.882  19.810   7.215 -0.0116 -0.0750 -0.0186
 1347BOLB   C3D32327  17.877  19.857   7.623  0.2165 -0.2238 -0.2270
 1347BOLB   C4D32328  18.112  20.004   7.952  0.2388 -0.3499 -0.3686
 1348BOLB   NC132329  14.290  22.960   9.556 -0.0373  0.2225 -0.3017
 1348BOLB   PO132330  14.743  22.788   9.511  0.0835  0.0656  0.0280
 1348BOLB   GL132331  15.245  22.735   9.540  0.1282  0.1045  0.1196
 1348BOLB   GL232332  15.430  22.947   9.377  0.3799  0.2711  0.3363
 1348BOLB   C1A32333  15.686  22.629   9.637 -0.0556  0.2761 -0.0116
 1348BOLB   C2A32334  16.069  22.757   9.647 -0.0179 -0.0787 -0.0538
 1348BOLB   C3A32335  16.407  22.908   9.849  0.1460 -0.5175 -0.0342
 1348BOLB   C4A32336  16.824  22.757   9.720  0.2717 -0.2325  0.4481
 1348BOLB   C1B32337  15.840  23.151   9.379 -0.1200  0.0202  0.2433
 1348BOLB   C2B32338  16.201  23.163   9.346  0.3859 -0.2012 -0.0110
 1348BOLB   C3B32339  16.563  23.336   9.529  0.0986 -0.0872  0.1298
 1348BOLB   C4B32340  16.945  23.529   9.697  0.4738  0.3743 -0.1969
 1348BOLB   NC232341  18.952  21.301  10.702  0.0657  0.0614  0.0087
 1348BOLB   PO232342  19.163  21.617  10.448 -0.4130 -0.1466  0.1818
 1348BOLB   GL332343  18.784  21.800  10.635 -0.2484  0.0412  0.1767
 1348BOLB   GL432344  18.785  22.159  10.431  0.2053  0.0909  0.0054
 1348BOLB   C1C32345  18.347  21.839  10.582 -0.0982  0.1009  0.1469
 1348BOLB   C2C32346  17.885  22.106  10.467 -0.0793  0.3493 -0.3297
 1348BOLB   C3C32347  17.538  22.290  10.328  0.1452 -0.0805 -0.2146
 1348BOLB   C4C32348  17.107  22.529   9.998 -0.1140  0.4371  0.1869
 1348BOLB   C1D32349  18.352  22.328  10.483  0.1740 -0.4569 -0.0548
 1348BOLB   C2D32350  17.985  22.604  10.292  0.0989  0.0393 -0.0303
 1348BOLB   C3D32351  17.923  22.834   9.991 -0.0353 -0.0231  0.0336
 1348BOLB   C4D32352  17.480  22.861   9.943 -0.2568  0.2194 -0.0196
 1349BOLB   NC132353   9.871  19.905  17.676  0.1415 -0.1648 -0.2036
 1349BOLB   PO132354   9.721  19.739  18.034 -0.2033  0.1541 -0.0601
 1349BOLB   GL132355   9.977  19.817  18.260  0.2503  0.1416 -0.0225
 1349BOLB   GL232356   9.884  20.031  18.554 -0.2951 -0.1489 -0.1412
 1349BOLB   C1A32357  10.319  20.117  18.490  0.3012  0.2811 -0.2692
 1349BOLB   C2A32358  10.508  20.328  18.921  0.1455  0.0135  0.2540
 1349BOLB   C3A32359  10.511  20.291  19.408  0.0295  0.0779  0.1271
 1349BOLB   C4A32360  10.759  20.073  19.703  0.0242 -0.1563 -0.2936
 1349BOLB   C1B32361  10.062  20.022  18.944  0.1672 -0.2520  0.0753
 1349BOLB   C2B32362  10.069  19.991  19.333  0.1240 -0.1031 -0.1364
 1349BOLB   C3B32363  10.217  19.880  19.719  0.0589  0.5213 -0.0058
 1349BOLB   C4B32364  10.204  19.802  20.101  0.0989 -0.1978  0.3179
 1349BOLB   NC232365  12.608  18.838  21.121  0.3528  0.2029  0.0702
 1349BOLB   PO232366  12.577  19.270  21.186  0.1111 -0.0238 -0.2192
 1349BOLB   GL332367  12.111  19.500  21.060 -0.1750  0.0961  0.0114
 1349BOLB   GL432368  11.794  19.299  20.849  0.2309  0.4098  0.4155
 1349BOLB   C1C32369  11.943  19.776  20.784  0.2525  0.1663  0.0805
 1349BOLB   C2C32370  11.467  19.759  20.678 -0.0209 -0.1820 -0.2702
 1349BOLB   C3C32371  11.186  19.868  20.393  0.4520 -0.1410 -0.0422
 1349BOLB   C4C32372  10.999  20.025  20.083  0.0423 -0.3170 -0.0570
 1349BOLB   C1D32373  11.553  19.250  20.497  0.1778 -0.0781 -0.0843
 1349BOLB   C2D32374  11.399  19.427  20.128 -0.1560  0.3579  0.1842
 1349BOLB   C3D32375  11.409  19.801  19.802 -0.2462  0.1678  0.2475
 1349BOLB   C4D32376  11.586  20.248  19.511  0.0417 -0.2648 -0.1425
 1350BOLB   NC132377   2.707  26.623   0.041 -0.1188 -0.2398  0.2776
 1350BOLB   PO132378   2.728  26.227   0.051 -0.1594  0.0605 -0.1670
 1350BOLB   GL132379   3.134  26.272   0.241 -0.4788  0.4314  0.1762
 1350BOLB   GL232380   3.197  25.970   0.213  0.0749  0.2223 -0.1006
 1350BOLB   C1A32381   3.321  26.263   0.700 -0.0204  0.1215  0.0263
 1350BOLB   C2A32382   3.463  26.060   1.057  0.0514  0.0097  0.0302
 1350BOLB   C3A32383   3.479  25.679   1.300 -0.2557 -0.1470 -0.1339
 1350BOLB   C4A32384   3.753  25.338   1.525  0.0437 -0.2027  0.1165
 1350BOLB   C1B32385   3.378  25.826   0.574 -0.0094  0.2868  0.0409
 1350BOLB   C2B32386   3.214  25.659   0.888 -0.0790 -0.0460  0.0118
 1350BOLB   C3B32387   3.081  25.434   1.295 -0.0533  0.1496  0.2323
 1350BOLB   C4B32388   3.257  25.216   1.602 -0.0411  0.0101 -0.1124
 1350BOLB   NC232389   4.903  24.433   3.379 -0.1297  0.2701 -0.1811
 1350BOLB   PO232390   5.260  24.422   3.245 -0.0435  0.2588  0.1781
 1350BOLB   GL332391   5.010  24.389   2.853 -0.2277 -0.0378  0.2921
 1350BOLB   GL432392   4.736  24.332   2.822 -0.0181 -0.0252  0.0305
 1350BOLB   C1C32393   4.965  24.609   2.430  0.2288 -0.0174  0.1603
 1350BOLB   C2C32394   4.631  24.808   2.084 -0.0700  0.1221  0.3461
 1350BOLB   C3C32395   4.253  24.888   1.882  0.0339 -0.0219 -0.0515
 1350BOLB   C4C32396   3.922  25.051   1.768  0.3552  0.1175 -0.1298
 1350BOLB   C1D32397   4.416  24.558   2.505 -0.1537  0.0513  0.0505
 1350BOLB   C2D32398   4.013  24.513   2.439 -0.0650 -0.0113 -0.0963
 1350BOLB   C3D32399   3.935  24.582   2.045  0.0488 -0.0897 -0.0419
 1350BOLB   C4D32400   4.122  24.580   1.524 -0.0663  0.0804  0.1189
 1351BOLB   NC132401   9.253  26.324   5.269 -0.0552 -0.1130 -0.3248
 1351BOLB   PO132402   8.960  26.143   4.943  0.0847 -0.0068 -0.1021
 1351BOLB   GL132403   8.884  26.641   4.764 -0.0444 -0.2291  0.1621
 1351BOLB   GL232404   8.979  26.473   4.433 -0.1556  0.0177  0.1082
 1351BOLB   C1A32405   9.091  26.981   4.727 -0.1491 -0.1311  0.0180
 1351BOLB   C2A32406   9.430  27.319   4.481 -0.2868 -0.4290  0.1192
 1351BOLB   C3A32407   9.533  27.684   4.380 -0.1154  0.0109 -0.2212
 1351BOLB   C4A32408   9.623  27.953   4.195  0.3271 -0.3011 -0.0358
 1351BOLB   C1B32409   9.108  26.835   4.286  0.0574  0.4790 -0.2000
 1351BOLB   C2B32410   9.184  27.148   4.089 -0.3780  0.0599  0.0145
 1351BOLB   C3B32411   9.347  27.580   3.934  0.0398 -0.2026 -0.1069
 1351BOLB   C4B32412   9.520  27.926   3.668 -0.0047 -0.2653 -0.0699
 1351BOLB   NC232413  10.571  29.328   2.658 -0.2841  0.1659  0.3583
 1351BOLB   PO232414  10.631  28.932   2.587 -0.1293  0.0917 -0.1764
 1351BOLB   GL332415  10.512  28.797   3.042  0.0053  0.0305 -0.0146
 1351BOLB   GL432416  10.453  29.115   3.115 -0.1070 -0.0264  0.1061
 1351BOLB   C1C32417  10.503  28.563   3.460  0.1183  0.3323 -0.0987
 1351BOLB   C2C32418  10.506  28.494   3.867 -0.0897  0.1850  0.2968
 1351BOLB   C3C32419  10.136  28.597   4.178 -0.3174 -0.1727  0.2165
 1351BOLB   C4C32420   9.751  28.407   4.219  0.1629  0.1348 -0.0617
 1351BOLB   C1D32421  10.848  28.925   3.347  0.3790 -0.1454  0.0610
 1351BOLB   C2D32422  10.814  28.931   3.831 -0.0214  0.0811 -0.0275
 1351BOLB   C3D32423  10.753  28.848   4.174  0.1578 -0.1601 -0.1076
 1351BOLB   C4D32424  10.602  28.552   4.637 -0.0563 -0.1429  0.2197
 1352BOLB   NC132425   7.378  19.090  17.870  0.1286 -0.1386 -0.1314
 1352BOLB   PO132426   7.818  19.000  18.027  0.0827  0.2808 -0.0290
 1352BOLB   GL132427   7.887  18.800  18.394 -0.0260  0.3598 -0.2189
 1352BOLB   GL232428   8.061  19.114  18.493  0.0638 -0.1564 -0.5569
 1352BOLB   C1A32429   8.042  18.515  18.749  0.2308  0.1563 -0.1603
 1352BOLB   C2A32430   8.090  18.288  19.255  0.1454  0.1148 -0.2158
 1352BOLB   C3A32431   8.092  18.092  19.721  0.1807  0.1285  0.0596
 1352BOLB   C4A32432   8.280  17.792  19.965 -0.0561  0.3502 -0.1373
 1352BOLB   C1B32433   8.023  19.165  19.001 -0.0624  0.0343  0.1110
 1352BOLB   C2B32434   8.039  19.239  19.540 -0.0309  0.4762  0.0390
 1352BOLB   C3B32435   8.047  19.577  19.641  0.0914 -0.0048  0.2120
 1352BOLB   C4B32436   8.186  19.934  19.979 -0.0543  0.0385  0.0275
 1352BOLB   NC232437   9.411  18.449  21.832 -0.2384  0.0957  0.1192
 1352BOLB   PO232438   9.299  18.048  22.065  0.0819  0.1935  0.0156
 1352BOLB   GL332439   8.914  18.185  21.958 -0.0515  0.0898 -0.0737
 1352BOLB   GL432440   8.617  17.958  21.975 -0.0737 -0.2099 -0.0435
 1352BOLB   C1C32441   8.642  18.255  21.539 -0.1582  0.1668  0.2728
 1352BOLB   C2C32442   8.729  18.202  21.121 -0.3485  0.1105  0.0566
 1352BOLB   C3C32443   8.567  18.112  20.708  0.0645 -0.0237 -0.1191
 1352BOLB   C4C32444   8.491  17.816  20.416  0.0732 -0.0195  0.0308
 1352BOLB   C1D32445   8.366  17.804  21.517 -0.5534 -0.2497 -0.0492
 1352BOLB   C2D32446   8.663  17.711  21.029  0.0369 -0.3580  0.0855
 1352BOLB   C3D32447   8.900  17.585  20.653  0.4286  0.1021  0.0897
 1352BOLB   C4D32448   9.237  17.537  20.375 -0.2190  0.0659 -0.0772
 1353BOLB   NC132449   6.899  28.348   9.183  0.0117  0.0145 -0.0623
 1353BOLB   PO132450   6.835  28.742   8.958 -0.1939 -0.0039 -0.0009
 1353BOLB   GL132451   6.813  29.200   8.965  0.1334 -0.1906 -0.3270
 1353BOLB   GL232452   7.048  29.259   8.798  0.2813  0.0918 -0.0923
 1353BOLB   C1A32453   6.788  29.675   8.905  0.2719 -0.2776  0.0705
 1353BOLB   C2A32454   6.834  30.095   8.702 -0.1728  0.0669  0.0698
 1353BOLB   C3A32455   7.016  30.418   8.430  0.0839  0.0617 -0.4224
 1353BOLB   C4A32456   7.060  30.730   8.008 -0.1740  0.0664 -0.1366
 1353BOLB   C1B32457   7.200  29.664   8.512  0.2195  0.0302 -0.1005
 1353BOLB   C2B32458   7.369  30.080   8.438  0.0538  0.4311 -0.3096
 1353BOLB   C3B32459   7.526  30.502   8.490 -0.0080 -0.1510  0.0059
 1353BOLB   C4B32460   7.825  30.685   8.644 -0.2991  0.2085 -0.1290
 1353BOLB   NC232461   7.363  32.778   8.120  0.0782  0.0789  0.1396
 1353BOLB   PO232462   7.068  32.929   7.781  0.0319  0.1402 -0.0897
 1353BOLB   GL332463   7.070  32.543   7.838 -0.0412  0.2036 -0.2973
 1353BOLB   GL432464   7.163  32.313   8.153 -0.2411  0.0806  0.0375
 1353BOLB   C1C32465   7.333  32.140   7.663  0.2795  0.0322  0.0792
 1353BOLB   C2C32466   7.173  31.713   7.303 -0.0800  0.1296 -0.1396
 1353BOLB   C3C32467   7.166  31.281   7.314  0.0071  0.1675 -0.0043
 1353BOLB   C4C32468   7.199  31.053   7.734  0.0701 -0.0118 -0.0898
 1353BOLB   C1D32469   7.119  31.912   8.293 -0.1072  0.1146  0.3207
 1353BOLB   C2D32470   6.745  31.680   8.150 -0.0703 -0.2752 -0.1212
 1353BOLB   C3D32471   6.438  31.325   8.157 -0.0165 -0.2441  0.1519
 1353BOLB   C4D32472   6.094  31.130   7.964  0.2498  0.1505  0.3860
 1354BOLB   NC132473  13.780  22.987   5.273  0.0321  0.0497 -0.0636
 1354BOLB   PO132474  13.634  23.098   5.588  0.1690 -0.0882  0.1275
 1354BOLB   GL132475  13.945  23.498   5.611 -0.6981 -0.0494 -0.3626
 1354BOLB   GL232476  13.986  23.444   5.304 -0.0648  0.0734 -0.2123
 1354BOLB   C1A32477  14.163  23.888   5.591 -0.0160  0.0970 -0.1412
 1354BOLB   C2A32478  14.624  23.934   5.537 -0.0417 -0.0998  0.0810
 1354BOLB   C3A32479  15.022  24.069   5.305 -0.0906  0.2010 -0.2410
 1354BOLB   C4A32480  15.175  23.896   4.996  0.1744 -0.0946  0.0593
 1354BOLB   C1B32481  14.426  23.614   5.045 -0.1845 -0.1774 -0.0228
 1354BOLB   C2B32482  14.762  23.710   4.814 -0.1101  0.1641 -0.0381
 1354BOLB   C3B32483  14.877  23.676   4.444 -0.0021  0.5063 -0.3518
 1354BOLB   C4B32484  15.018  23.924   4.048 -0.1885  0.0281  0.0645
 1354BOLB   NC232485  16.064  25.712   3.170 -0.2063 -0.3167 -0.0991
 1354BOLB   PO232486  15.969  25.303   3.165  0.1215  0.0926 -0.4705
 1354BOLB   GL332487  15.852  24.997   3.443 -0.1034  0.1292  0.1813
 1354BOLB   GL432488  15.759  25.088   3.651  0.2548 -0.0334  0.1224
 1354BOLB   C1C32489  15.561  24.583   3.502  0.0001 -0.0716 -0.2089
 1354BOLB   C2C32490  15.154  24.474   3.738  0.1096  0.0279 -0.3874
 1354BOLB   C3C32491  15.170  24.403   4.183 -0.0481 -0.0032 -0.1354
 1354BOLB   C4C32492  15.179  24.093   4.488  0.3243  0.1769 -0.1392
 1354BOLB   C1D32493  15.579  24.913   4.006  0.1304  0.2234  0.0014
 1354BOLB   C2D32494  15.174  24.892   4.417  0.2771  0.1216 -0.1358
 1354BOLB   C3D32495  14.835  24.580   4.463  0.0393 -0.0313  0.1056
 1354BOLB   C4D32496  14.474  24.578   4.417  0.0477  0.0381 -0.1382
 1355BOLB   NC132497   3.842  25.964  15.907  0.2029 -0.1715 -0.0992
 1355BOLB   PO132498   3.412  25.808  16.030 -0.5049 -0.1076  0.0699
 1355BOLB   GL132499   3.270  25.938  16.416 -0.1694 -0.2746 -0.2090
 1355BOLB   GL232500   3.428  25.864  16.713 -0.1266 -0.1683  0.2575
 1355BOLB   C1A32501   2.912  26.096  16.657 -0.2864 -0.0002  0.0650
 1355BOLB   C2A32502   2.752  26.256  17.004 -0.0435 -0.0971 -0.3184
 1355BOLB   C3A32503   2.507  26.465  17.319 -0.0784  0.1104  0.0159
 1355BOLB   C4A32504   2.466  26.646  17.797  0.1591 -0.1567  0.1319
 1355BOLB   C1B32505   3.340  26.221  16.995  0.1354  0.1053  0.1072
 1355BOLB   C2B32506   3.240  26.553  17.245  0.0206 -0.3284 -0.0906
 1355BOLB   C3B32507   3.016  26.465  17.575  0.1341 -0.0021 -0.1673
 1355BOLB   C4B32508   2.884  26.388  17.997 -0.0069 -0.2348 -0.1165
 1355BOLB   NC232509   1.356  27.766  19.857 -0.3115 -0.1177  0.3174
 1355BOLB   PO232510   1.348  27.940  19.456  0.2969  0.1325 -0.1172
 1355BOLB   GL332511   1.579  27.621  19.289  0.2576 -0.0184  0.0531
 1355BOLB   GL432512   1.629  27.608  19.056 -0.2295  0.0736  0.0211
 1355BOLB   C1C32513   2.000  27.307  19.295 -0.0732 -0.1508  0.2001
 1355BOLB   C2C32514   2.205  27.040  18.902 -0.4134 -0.0769 -0.1161
 1355BOLB   C3C32515   2.454  26.913  18.559  0.4132  0.1594  0.0941
 1355BOLB   C4C32516   2.645  26.869  18.149  0.1588 -0.1114  0.1564
 1355BOLB   C1D32517   1.722  27.208  18.913  0.2720  0.1302 -0.1560
 1355BOLB   C2D32518   1.767  26.762  18.876 -0.1997  0.1927  0.0666
 1355BOLB   C3D32519   2.130  26.567  18.637  0.3854  0.0112  0.3489
 1355BOLB   C4D32520   2.498  26.374  18.582 -0.1175 -0.1735  0.1635
 1356BOLB   NC132521   0.977   6.672   7.915  0.0495 -0.2107 -0.3503
 1356BOLB   PO132522   0.862   6.564   8.344 -0.0752  0.1296 -0.0782
 1356BOLB   GL132523   0.630   6.899   8.505 -0.3314  0.1728 -0.4526
 1356BOLB   GL232524   0.745   7.111   8.254 -0.2123 -0.3016  0.2842
 1356BOLB   C1A32525   0.572   6.995   8.854  0.3233 -0.0307 -0.1150
 1356BOLB   C2A32526   0.807   6.949   9.248 -0.2160  0.4081  0.0182
 1356BOLB   C3A32527   0.871   7.275   9.492 -0.0983 -0.0380 -0.2421
 1356BOLB   C4A32528   1.168   7.506   9.463  0.3005 -0.1653  0.0171
 1356BOLB   C1B32529   0.461   7.373   8.057  0.1013  0.0757  0.1134
 1356BOLB   C2B32530   0.401   7.501   7.637  0.0659  0.1085  0.1254
 1356BOLB   C3B32531   0.499   7.647   7.182 -0.0537 -0.1321  0.0558
 1356BOLB   C4B32532   0.342   7.749   6.758 -0.0943 -0.1997 -0.0404
 1356BOLB   NC232533   3.409   6.688   8.977  0.2308 -0.1535 -0.0757
 1356BOLB   PO232534   3.044   6.552   9.221  0.0113  0.0770  0.1510
 1356BOLB   GL332535   2.819   6.916   9.379 -0.2902 -0.2821  0.0357
 1356BOLB   GL432536   2.915   7.078   9.609 -0.1902 -0.1401  0.2347
 1356BOLB   C1C32537   2.486   7.131   9.182  0.0144 -0.1869 -0.2597
 1356BOLB   C2C32538   2.368   7.520   9.312 -0.0784 -0.1973 -0.2724
 1356BOLB   C3C32539   2.073   7.699   9.512  0.4063 -0.3832 -0.0565
 1356BOLB   C4C32540   1.656   7.629   9.629 -0.1470 -0.1856  0.0434
 1356BOLB   C1D32541   2.610   7.286   9.689  0.1152  0.1081  0.0021
 1356BOLB   C2D32542   2.179   7.133   9.594  0.2518 -0.0858  0.0590
 1356BOLB   C3D32543   1.771   6.991   9.517  0.0144 -0.1594  0.0661
 1356BOLB   C4D32544   1.368   7.067   9.682 -0.1519 -0.5030 -0.3807
 1357BOLB   NC132545   2.302  26.457   7.134  0.4553  0.1908  0.2206
 1357BOLB   PO132546   2.113  26.327   6.734  0.1881 -0.0542 -0.0277
 1357BOLB   GL132547   1.886  26.448   6.428 -0.3969 -0.0253 -0.0381
 1357BOLB   GL232548   1.597  26.470   6.541 -0.2590  0.2088 -0.5663
 1357BOLB   C1A32549   1.708  26.820   6.187 -0.0496 -0.1376 -0.0477
 1357BOLB   C2A32550   1.687  27.095   5.875 -0.1462  0.1315 -0.0877
 1357BOLB   C3A32551   1.517  27.463   5.609 -0.0721  0.0128 -0.3420
 1357BOLB   C4A32552   1.305  27.765   5.391 -0.3023  0.0274  0.0123
 1357BOLB   C1B32553   1.579  26.887   6.688  0.2076 -0.0636  0.0217
 1357BOLB   C2B32554   1.446  27.226   6.383  0.3307 -0.0088  0.1527
 1357BOLB   C3B32555   1.254  27.569   6.013 -0.0178 -0.0254  0.0841
 1357BOLB   C4B32556   0.984  27.896   5.803  0.0126  0.0298 -0.0016
 1357BOLB   NC232557   0.608  29.970   4.816 -0.0600  0.0312  0.1082
 1357BOLB   PO232558   0.283  29.842   5.028  0.1481 -0.3347 -0.3892
 1357BOLB   GL332559   0.393  29.370   4.927  0.1646 -0.6146  0.1684
 1357BOLB   GL432560   0.161  29.294   5.146 -0.1965  0.0245  0.2136
 1357BOLB   C1C32561   0.503  28.936   4.907  0.2695 -0.1539  0.1227
 1357BOLB   C2C32562   0.775  28.598   5.033 -0.0036  0.0571  0.1013
 1357BOLB   C3C32563   0.971  28.287   4.982  0.2224 -0.3082  0.1654
 1357BOLB   C4C32564   1.190  28.013   5.039 -0.4018 -0.1265  0.2033
 1357BOLB   C1D32565   0.428  29.104   5.403 -0.1516 -0.1740  0.1580
 1357BOLB   C2D32566   0.558  28.781   5.520 -0.2322  0.2084  0.0959
 1357BOLB   C3D32567   0.781  28.297   5.522 -0.2246  0.0701 -0.1622
 1357BOLB   C4D32568   1.231  28.283   5.460  0.3051 -0.1851  0.0817
 1358BOLB   NC132569   1.214  23.278  16.494 -0.1162 -0.2243 -0.0543
 1358BOLB   PO132570   1.120  22.924  16.707 -0.2353 -0.1300 -0.0616
 1358BOLB   GL132571   0.997  22.907  17.127 -0.0950 -0.2970  0.1043
 1358BOLB   GL232572   0.758  22.693  16.987 -0.1059 -0.0448  0.3505
 1358BOLB   C1A32573   0.778  23.000  17.489 -0.5146  0.0172  0.0100
 1358BOLB   C2A32574   0.631  23.065  17.837  0.0797 -0.2130  0.0329
 1358BOLB   C3A32575   0.369  23.079  18.192  0.1491  0.1747 -0.1055
 1358BOLB   C4A32576   0.435  22.904  18.575 -0.0380 -0.1082  0.4316
 1358BOLB   C1B32577   0.404  22.831  17.159  0.2006 -0.1666 -0.0080
 1358BOLB   C2B32578   0.264  22.975  17.522 -0.0639 -0.0003  0.1481
 1358BOLB   C3B32579  -0.002  23.071  17.846  0.1834 -0.1528  0.1607
 1358BOLB   C4B32580  -0.139  23.260  18.259  0.0354  0.0642  0.0802
 1358BOLB   NC232581  -0.920  23.443  20.060 -0.0650  0.1913 -0.0858
 1358BOLB   PO232582  -0.921  23.868  20.036 -0.3729  0.3353 -0.4125
 1358BOLB   GL332583  -0.576  23.736  19.774  0.0838 -0.1852  0.0275
 1358BOLB   GL432584  -0.286  23.442  19.869 -0.0303  0.3140 -0.0048
 1358BOLB   C1C32585  -0.209  23.710  19.463  0.6026  0.0441 -0.0620
 1358BOLB   C2C32586   0.198  23.538  19.348  0.0640  0.0688  0.1281
 1358BOLB   C3C32587   0.542  23.387  19.203  0.3539  0.2134  0.2400
 1358BOLB   C4C32588   0.556  23.030  18.937  0.0715  0.1788 -0.0607
 1358BOLB   C1D32589   0.079  23.199  19.715  0.1474  0.0094  0.0008
 1358BOLB   C2D32590   0.426  22.920  19.573  0.0290 -0.3317  0.0042
 1358BOLB   C3D32591   0.415  22.664  19.226 -0.1725  0.0542 -0.0460
 1358BOLB   C4D32592   0.657  22.487  18.959 -0.1251  0.0748 -0.1439
 1359BOLB   NC132593  10.102  16.710  15.999 -0.3880 -0.1488 -0.1025
 1359BOLB   PO132594  10.300  16.828  15.520 -0.0139  0.6001  0.1289
 1359BOLB   GL132595  10.575  16.621  15.773  0.4095  0.0415  0.1287
 1359BOLB   GL232596  10.636  16.416  15.568  0.1735 -0.2161 -0.1325
 1359BOLB   C1A32597  10.745  16.391  16.061  0.0119 -0.1084  0.1359
 1359BOLB   C2A32598  10.980  16.363  16.443 -0.1073 -0.0390  0.0477
 1359BOLB   C3A32599  11.353  16.479  16.733 -0.1025  0.0730  0.0645
 1359BOLB   C4A32600  11.514  16.189  17.057  0.0902 -0.1239  0.0804
 1359BOLB   C1B32601  10.956  16.128  15.637 -0.4842 -0.1962 -0.0392
 1359BOLB   C2B32602  11.028  15.773  15.833  0.0791  0.0497  0.0711
 1359BOLB   C3B32603  11.276  15.447  16.001 -0.0341  0.0066  0.2267
 1359BOLB   C4B32604  11.458  15.221  16.289 -0.0524  0.0716 -0.0729
 1359BOLB   NC232605  13.111  14.743  18.026 -0.0917  0.4101  0.2202
 1359BOLB   PO232606  13.033  14.395  17.758 -0.0068 -0.0080  0.1182
 1359BOLB   GL332607  12.781  14.733  17.428 -0.1099  0.0525 -0.1347
 1359BOLB   GL432608  12.998  14.886  17.168  0.0684 -0.2508  0.1063
 1359BOLB   C1C32609  12.609  15.078  17.412  0.3156 -0.0095  0.0142
 1359BOLB   C2C32610  12.514  15.534  17.508 -0.0856  0.1659  0.0659
 1359BOLB   C3C32611  12.138  15.846  17.534 -0.2942  0.1122  0.3860
 1359BOLB   C4C32612  11.859  16.110  17.367 -0.0983  0.3006 -0.1323
 1359BOLB   C1D32613  12.725  15.179  16.787 -0.4055  0.0173  0.3291
 1359BOLB   C2D32614  12.468  15.486  16.513  0.0901 -0.3221 -0.2299
 1359BOLB   C3D32615  12.249  15.841  16.309  0.0738  0.2769 -0.2367
 1359BOLB   C4D32616  12.155  16.187  16.409  0.1620 -0.0664  0.2396
 1360BOLB   NC132617  30.428  19.016   4.451  0.2386 -0.1384 -0.1864
 1360BOLB   PO132618  30.439  18.627   4.541 -0.2484 -0.1227  0.2832
 1360BOLB   GL132619  30.846  18.325   4.467  0.3252 -0.1231 -0.2316
 1360BOLB   GL232620  31.038  18.109   4.691  0.1598  0.0452 -0.1335
 1360BOLB   C1A32621  31.178  18.601   4.471 -0.2458  0.3640  0.0763
 1360BOLB   C2A32622  31.373  18.815   4.733  0.1678  0.2406  0.0306
 1360BOLB   C3A32623  31.588  18.685   5.029 -0.0302 -0.1604  0.1320
 1360BOLB   C4A32624  31.861  18.906   5.263  0.3747 -0.2457 -0.2399
 1360BOLB   C1B32625  31.366  18.205   4.965  0.1476 -0.0142 -0.0708
 1360BOLB   C2B32626  31.505  17.875   5.220 -0.2897  0.1331  0.1016
 1360BOLB   C3B32627  31.750  17.591   5.293  0.0639  0.1946 -0.0061
 1360BOLB   C4B32628  32.127  17.356   5.539  0.1707  0.0489 -0.2791
 1360BOLB   NC232629  29.576  18.712   6.413 -0.0099 -0.1025  0.3766
 1360BOLB   PO232630  29.835  18.774   6.037  0.0026  0.1877  0.2963
 1360BOLB   GL332631  30.255  18.699   6.104 -0.0830  0.1258 -0.0991
 1360BOLB   GL432632  30.241  18.627   6.352  0.1970  0.0763  0.2890
 1360BOLB   C1C32633  30.643  18.780   5.883  0.0826  0.0584 -0.1289
 1360BOLB   C2C32634  30.995  18.623   5.858 -0.0638  0.0314  0.0478
 1360BOLB   C3C32635  31.464  18.585   5.813 -0.1454 -0.2145  0.0517
 1360BOLB   C4C32636  31.878  18.767   5.682  0.1859 -0.3331  0.0644
 1360BOLB   C1D32637  30.753  18.637   6.322 -0.2647 -0.1911  0.2939
 1360BOLB   C2D32638  31.165  18.731   6.321 -0.0750  0.1230  0.0578
 1360BOLB   C3D32639  31.528  18.990   6.248 -0.0541  0.1283  0.4098
 1360BOLB   C4D32640  31.818  19.312   6.348  0.2029  0.0736 -0.0510
 1361BOLB   NC132641   1.609  25.241  14.390 -0.0106 -0.4827 -0.2493
 1361BOLB   PO132642   1.400  25.361  14.700 -0.0674  0.0254 -0.0641
 1361BOLB   GL132643   1.216  25.757  14.828 -0.0545  0.2473  0.0070
 1361BOLB   GL232644   1.147  25.723  15.133  0.0670 -0.1816  0.0797
 1361BOLB   C1A32645   0.867  26.035  14.722  0.1181  0.3156  0.0265
 1361BOLB   C2A32646   0.812  26.469  14.798  0.0389 -0.1067 -0.1060
 1361BOLB   C3A32647   0.547  26.923  14.789 -0.0015 -0.1622 -0.1702
 1361BOLB   C4A32648   0.471  27.333  14.837  0.2151 -0.0426 -0.2543
 1361BOLB   C1B32649   0.848  25.881  15.216 -0.1756 -0.1144  0.0750
 1361BOLB   C2B32650   0.662  26.280  15.212 -0.2400  0.0652 -0.1875
 1361BOLB   C3B32651   0.353  26.582  15.157 -0.0888 -0.1165 -0.0432
 1361BOLB   C4B32652   0.013  26.882  15.281  0.0351  0.3257  0.1591
 1361BOLB   NC232653  -1.071  29.728  15.172 -0.0210  0.1283  0.0917
 1361BOLB   PO232654  -1.000  29.256  15.114 -0.2100  0.1176  0.2267
 1361BOLB   GL332655  -0.613  29.078  15.127  0.1611 -0.1551  0.3945
 1361BOLB   GL432656  -0.585  29.180  14.853 -0.0087 -0.2605 -0.1005
 1361BOLB   C1C32657  -0.399  28.690  15.186 -0.0101  0.0260  0.1613
 1361BOLB   C2C32658  -0.228  28.278  15.273 -0.1406 -0.0866  0.0719
 1361BOLB   C3C32659  -0.149  27.786  15.265 -0.1218  0.2472  0.1221
 1361BOLB   C4C32660   0.048  27.383  15.040  0.0637 -0.1475 -0.0297
 1361BOLB   C1D32661  -0.337  28.828  14.686  0.0492  0.3949 -0.0475
 1361BOLB   C2D32662  -0.051  28.524  14.585  0.1651  0.0770  0.2155
 1361BOLB   C3D32663   0.037  28.231  14.416  0.1482 -0.0839 -0.1792
 1361BOLB   C4D32664   0.255  27.943  14.197 -0.1144  0.1968 -0.1265
 1362BOLB   NC132665   5.042  18.092   2.993  0.1079  0.2775 -0.2425
 1362BOLB   PO132666   5.053  17.878   2.585  0.2536  0.1844  0.1520
 1362BOLB   GL132667   5.037  18.038   2.196 -0.1763 -0.2960 -0.0358
 1362BOLB   GL232668   5.254  17.855   1.896 -0.0634 -0.0287  0.0365
 1362BOLB   C1A32669   5.064  18.305   1.933 -0.1689 -0.2033  0.1360
 1362BOLB   C2A32670   5.252  18.240   1.570 -0.2026 -0.0338  0.4838
 1362BOLB   C3A32671   5.414  17.995   1.158 -0.1480  0.0655 -0.1640
 1362BOLB   C4A32672   5.424  18.054   0.662  0.1795  0.1359  0.1456
 1362BOLB   C1B32673   5.292  17.723   1.497  0.2248  0.1814  0.1475
 1362BOLB   C2B32674   4.924  17.597   1.334 -0.2013  0.0407  0.1386
 1362BOLB   C3B32675   4.900  17.777   0.968  0.2168  0.1181  0.0972
 1362BOLB   C4B32676   4.749  17.563   0.580  0.0804  0.1992 -0.0916
 1362BOLB   NC232677   4.791  17.548  -2.134  0.4657  0.1920 -0.0074
 1362BOLB   PO232678   4.680  17.328  -1.674 -0.1637 -0.0951  0.1064
 1362BOLB   GL332679   5.025  17.482  -1.336  0.2939  0.3816  0.4017
 1362BOLB   GL432680   4.793  17.346  -1.027 -0.0522  0.2814  0.1913
 1362BOLB   C1C32681   5.362  17.533  -0.926 -0.3227 -0.0327 -0.0113
 1362BOLB   C2C32682   5.491  17.519  -0.462 -0.3835  0.0675  0.1926
 1362BOLB   C3C32683   5.552  17.473  -0.039 -0.1407 -0.0474 -0.3710
 1362BOLB   C4C32684   5.357  17.678   0.365 -0.0076  0.3953 -0.3405
 1362BOLB   C1D32685   5.065  17.248  -0.618  0.0990 -0.1344  0.1154
 1362BOLB   C2D32686   5.126  17.311  -0.152 -0.0259  0.0605  0.2906
 1362BOLB   C3D32687   5.340  16.992   0.137  0.2164  0.4960 -0.1718
 1362BOLB   C4D32688   5.807  16.998   0.344 -0.2490 -0.0370 -0.0589
 1363BOLB   NC132689   4.814  19.026   2.961  0.1050  0.1367  0.0821
 1363BOLB   PO132690   5.037  18.703   2.639 -0.1371  0.1757  0.0734
 1363BOLB   GL132691   5.060  18.648   2.259  0.0637 -0.1908 -0.0939
 1363BOLB   GL232692   4.787  18.774   2.137 -0.1428 -0.1716  0.2045
 1363BOLB   C1A32693   5.236  18.744   1.821 -0.1925 -0.0530 -0.0645
 1363BOLB   C2A32694   5.458  18.731   1.454 -0.0209 -0.3773 -0.1916
 1363BOLB   C3A32695   5.527  18.970   0.987  0.0454  0.2133 -0.1009
 1363BOLB   C4A32696   5.226  19.115   0.826  0.0785 -0.0090 -0.4194
 1363BOLB   C1B32697   4.749  18.827   1.682  0.1973 -0.0342  0.2861
 1363BOLB   C2B32698   4.985  18.626   1.364 -0.1510 -0.1120 -0.4520
 1363BOLB   C3B32699   5.080  18.371   0.998 -0.3280 -0.2099 -0.0688
 1363BOLB   C4B32700   5.478  18.485   0.929 -0.0072  0.1922 -0.1952
 1363BOLB   NC232701   5.760  20.336  -1.696 -0.1098 -0.3265  0.2028
 1363BOLB   PO232702   5.460  20.015  -1.614  0.2963  0.0489  0.0953
 1363BOLB   GL332703   5.262  19.822  -1.256 -0.1495 -0.2563 -0.0302
 1363BOLB   GL432704   4.906  19.839  -1.114  0.2219 -0.0067  0.4542
 1363BOLB   C1C32705   5.202  19.558  -0.820 -0.0435  0.0397 -0.6013
 1363BOLB   C2C32706   5.210  19.412  -0.428 -0.1004 -0.5561 -0.0869
 1363BOLB   C3C32707   5.205  19.480   0.083 -0.3912  0.5479  0.0839
 1363BOLB   C4C32708   5.200  19.499   0.595  0.0018 -0.0257  0.0741
 1363BOLB   C1D32709   4.705  20.181  -0.880 -0.0797  0.2362  0.1459
 1363BOLB   C2D32710   4.664  20.443  -0.486  0.3749  0.0615  0.0145
 1363BOLB   C3D32711   4.685  20.529  -0.021 -0.5644  0.2940 -0.1322
 1363BOLB   C4D32712   4.668  20.429   0.432 -0.3349 -0.0318 -0.0790
 1364BOLB   NC132713  15.182  22.727  11.039 -0.2033  0.0948 -0.0252
 1364BOLB   PO132714  14.902  22.677  10.720 -0.0544 -0.1418 -0.0073
 1364BOLB   GL132715  15.374  22.846  10.563 -0.4337 -0.2532  0.0655
 1364BOLB   GL232716  15.596  22.759  10.688  0.0696 -0.1330  0.0556
 1364BOLB   C1A32717  15.819  23.138  10.400  0.3339  0.1658 -0.0844
 1364BOLB   C2A32718  16.270  23.217  10.303 -0.1545 -0.1825  0.0453
 1364BOLB   C3A32719  16.598  23.345  10.071  0.0986  0.0564  0.1209
 1364BOLB   C4A32720  16.853  23.716  10.181  0.1384  0.2253  0.0894
 1364BOLB   C1B32721  15.974  22.868  10.765  0.1644  0.0346 -0.3240
 1364BOLB   C2B32722  16.326  22.876  10.669 -0.3151 -0.0499 -0.1053
 1364BOLB   C3B32723  16.583  22.929  10.860 -0.2505 -0.0535 -0.3128
 1364BOLB   C4B32724  16.757  22.813  11.269  0.1573  0.1813  0.1467
 1364BOLB   NC232725  19.438  23.488   9.793  0.1887 -0.1828 -0.1785
 1364BOLB   PO232726  19.120  23.711  10.008  0.2315  0.3296 -0.0001
 1364BOLB   GL332727  18.617  23.652  10.043 -0.0148  0.3332 -0.1885
 1364BOLB   GL432728  18.594  23.372  10.025 -0.2240 -0.0433  0.2720
 1364BOLB   C1C32729  18.194  23.812  10.061 -0.0560  0.0532 -0.0722
 1364BOLB   C2C32730  17.909  24.019   9.870  0.0166  0.2540  0.2618
 1364BOLB   C3C32731  17.609  24.128   9.990  0.0295  0.2213 -0.1071
 1364BOLB   C4C32732  17.157  23.976   9.935  0.3569 -0.0338  0.0946
 1364BOLB   C1D32733  18.132  23.300   9.996  0.2520 -0.2586 -0.1537
 1364BOLB   C2D32734  17.808  23.532   9.884 -0.2801  0.2624 -0.4083
 1364BOLB   C3D32735  17.494  23.754   9.559 -0.1092 -0.1701  0.1525
 1364BOLB   C4D32736  17.515  24.144   9.405  0.1694  0.2023 -0.2128
 1365BOLB   NC132737  12.971  15.847   9.571  0.2444  0.0401 -0.3298
 1365BOLB   PO132738  12.772  15.994   9.182  0.2406 -0.4901 -0.3067
 1365BOLB   GL132739  12.696  15.572   9.115  0.0408  0.0095 -0.0968
 1365BOLB   GL232740  12.775  15.443   8.785 -0.0423  0.1620 -0.1656
 1365BOLB   C1A32741  12.908  15.227   9.238  0.0236 -0.1850  0.2648
 1365BOLB   C2A32742  13.219  14.962   9.170 -0.2912  0.0752 -0.0084
 1365BOLB   C3A32743  13.553  14.571   9.127 -0.0825 -0.1165  0.3312
 1365BOLB   C4A32744  13.715  14.220   9.335 -0.0229 -0.1495  0.4929
 1365BOLB   C1B32745  13.196  15.224   8.771  0.0363  0.0167  0.2671
 1365BOLB   C2B32746  13.357  14.804   8.706  0.2678 -0.1866  0.1749
 1365BOLB   C3B32747  13.515  14.453   8.507  0.0371  0.4938  0.1999
 1365BOLB   C4B32748  13.337  14.033   8.324  0.2386 -0.2345  0.1866
 1365BOLB   NC232749  15.012  11.757   9.862  0.3062 -0.0592 -0.0412
 1365BOLB   PO232750  14.733  12.095  10.054  0.1509 -0.2433  0.3749
 1365BOLB   GL332751  14.486  12.478   9.933  0.0528 -0.0794  0.2550
 1365BOLB   GL432752  14.403  12.468   9.563 -0.3347 -0.1976 -0.0113
 1365BOLB   C1C32753  14.321  12.937   9.883  0.1290 -0.2595 -0.1716
 1365BOLB   C2C32754  13.963  13.263   9.922 -0.1880 -0.1674 -0.0577
 1365BOLB   C3C32755  13.719  13.607   9.801 -0.1607 -0.0545 -0.0643
 1365BOLB   C4C32756  13.731  13.995   9.626  0.0496 -0.0855 -0.2246
 1365BOLB   C1D32757  14.062  12.556   9.689  0.2460  0.0440  0.0303
 1365BOLB   C2D32758  13.748  12.837   9.835 -0.2794  0.0415  0.2388
 1365BOLB   C3D32759  13.474  13.177   9.836 -0.0646  0.1924  0.1576
 1365BOLB   C4D32760  13.231  13.524   9.618 -0.4322  0.1331 -0.0244
 1366BOLB   NC132761   4.664  32.998  13.262  0.2076  0.1660 -0.1210
 1366BOLB   PO132762   4.474  32.700  12.889 -0.4290 -0.0247  0.0052
 1366BOLB   GL132763   4.672  32.345  12.640  0.0225  0.2405  0.1839
 1366BOLB   GL232764   4.631  32.087  12.915 -0.1842 -0.1505  0.1066
 1366BOLB   C1A32765   4.769  31.997  12.432  0.5121 -0.0605 -0.0155
 1366BOLB   C2A32766   4.792  31.671  12.048  0.0179  0.1918  0.1081
 1366BOLB   C3A32767   4.672  31.180  11.968  0.1016 -0.0054 -0.2840
 1366BOLB   C4A32768   4.470  30.909  11.809  0.1980 -0.0095 -0.3736
 1366BOLB   C1B32769   4.948  31.735  12.870  0.1519  0.2212  0.1879
 1366BOLB   C2B32770   4.984  31.424  13.180  0.1882  0.2376 -0.0566
 1366BOLB   C3B32771   4.753  31.082  13.267  0.1331  0.3284 -0.0143
 1366BOLB   C4B32772   4.558  30.730  13.156 -0.4651 -0.2883 -0.0619
 1366BOLB   NC232773   2.382  32.037  10.886 -0.2107 -0.2968  0.0993
 1366BOLB   PO232774   2.568  32.122  11.233 -0.0618 -0.0943  0.2033
 1366BOLB   GL332775   2.896  31.871  11.099 -0.2066  0.3430 -0.0266
 1366BOLB   GL432776   2.745  31.678  10.995  0.1085 -0.1651 -0.3003
 1366BOLB   C1C32777   3.392  31.743  11.158 -0.1862  0.1562 -0.0126
 1366BOLB   C2C32778   3.699  31.460  11.260 -0.1130 -0.0227  0.2519
 1366BOLB   C3C32779   3.908  31.069  11.442 -0.1336  0.0749 -0.0347
 1366BOLB   C4C32780   4.183  30.863  11.612 -0.0176 -0.0353 -0.0574
 1366BOLB   C1D32781   2.589  31.310  11.211  0.1538 -0.1789  0.0117
 1366BOLB   C2D32782   2.255  31.102  11.325  0.0189 -0.0095  0.1593
 1366BOLB   C3D32783   2.140  31.138  11.874 -0.4913 -0.3398 -0.1087
 1366BOLB   C4D32784   2.074  30.927  12.305  0.1025 -0.2443 -0.2322
 1367BOLB   NC132785   6.424  23.541  18.214 -0.2264 -0.0372  0.0330
 1367BOLB   PO132786   6.050  23.370  18.292 -0.1134 -0.1557 -0.3028
 1367BOLB   GL132787   5.816  23.180  18.652  0.0573  0.2487 -0.4368
 1367BOLB   GL232788   5.970  22.918  18.817  0.2006  0.0946 -0.3366
 1367BOLB   C1A32789   5.903  23.270  19.111 -0.4359 -0.0599  0.1134
 1367BOLB   C2A32790   5.883  23.576  19.409 -0.0673  0.0808  0.1219
 1367BOLB   C3A32791   5.748  23.748  19.761 -0.1866  0.0189 -0.1378
 1367BOLB   C4A32792   5.604  23.849  20.146 -0.1078  0.1023  0.2170
 1367BOLB   C1B32793   6.192  22.769  19.222  0.0692  0.1881 -0.1297
 1367BOLB   C2B32794   6.210  22.679  19.734 -0.1147  0.1185 -0.1207
 1367BOLB   C3B32795   6.184  22.876  20.038  0.2683  0.0590  0.0043
 1367BOLB   C4B32796   6.256  23.272  20.059 -0.0953 -0.0043 -0.0750
 1367BOLB   NC232797   5.964  25.186  22.410 -0.0657  0.1359  0.1980
 1367BOLB   PO232798   5.919  24.853  22.306 -0.1121  0.2454 -0.1670
 1367BOLB   GL332799   5.716  24.676  21.894  0.0153  0.0273  0.0822
 1367BOLB   GL432800   5.986  24.690  21.784 -0.0361  0.4361 -0.0081
 1367BOLB   C1C32801   5.441  24.478  21.639 -0.2893  0.0750  0.3316
 1367BOLB   C2C32802   5.533  24.092  21.280 -0.3114 -0.1428 -0.3084
 1367BOLB   C3C32803   5.475  23.897  20.861  0.1673 -0.2493  0.1461
 1367BOLB   C4C32804   5.378  23.996  20.491 -0.2603  0.3218  0.2262
 1367BOLB   C1D32805   5.999  24.540  21.353  0.0323 -0.1441 -0.2118
 1367BOLB   C2D32806   5.995  24.473  20.954  0.1557 -0.0546  0.0559
 1367BOLB   C3D32807   6.174  24.422  20.623 -0.0727  0.0279 -0.0704
 1367BOLB   C4D32808   6.439  24.624  20.453 -0.0815 -0.0953  0.0954
 1368BOLB   NC132809   5.179  18.624  18.041  0.2112  0.2269  0.0287
 1368BOLB   PO132810   5.586  18.647  18.099 -0.1401  0.1946  0.2386
 1368BOLB   GL132811   5.842  18.473  18.379  0.1178 -0.5066  0.1834
 1368BOLB   GL232812   5.878  18.768  18.522  0.2759 -0.1529 -0.0045
 1368BOLB   C1A32813   6.080  18.332  18.847 -0.3320  0.1051 -0.1372
 1368BOLB   C2A32814   6.234  18.013  19.154  0.1214 -0.0105 -0.3672
 1368BOLB   C3A32815   6.326  17.711  19.334  0.0168  0.1205  0.1918
 1368BOLB   C4A32816   6.543  17.406  19.551 -0.0771 -0.0974 -0.1165
 1368BOLB   C1B32817   5.962  18.819  18.995 -0.0646 -0.1967 -0.0838
 1368BOLB   C2B32818   5.998  18.469  19.312  0.0420 -0.1112  0.0889
 1368BOLB   C3B32819   6.248  18.292  19.512  0.1207  0.3926 -0.4358
 1368BOLB   C4B32820   6.384  18.059  19.785 -0.0545  0.3956  0.1787
 1368BOLB   NC232821   7.211  16.036  21.792 -0.2132  0.1213  0.0888
 1368BOLB   PO232822   7.190  16.408  21.672  0.0375  0.1942  0.0393
 1368BOLB   GL332823   7.135  16.442  21.319 -0.0851  0.0940  0.0963
 1368BOLB   GL432824   7.371  16.487  21.173 -0.1411  0.2071  0.0539
 1368BOLB   C1C32825   6.923  16.493  20.851  0.2894 -0.0280  0.3606
 1368BOLB   C2C32826   6.905  16.621  20.479 -0.0279 -0.1674 -0.1250
 1368BOLB   C3C32827   7.039  16.867  20.036 -0.1061  0.0845 -0.1577
 1368BOLB   C4C32828   7.001  17.179  19.679 -0.0548 -0.1315 -0.1812
 1368BOLB   C1D32829   7.820  16.737  21.079 -0.0999 -0.0400  0.1116
 1368BOLB   C2D32830   7.861  17.208  20.919 -0.0560 -0.1863  0.1230
 1368BOLB   C3D32831   7.950  17.320  20.500  0.3371 -0.0153  0.1500
 1368BOLB   C4D32832   7.969  17.034  20.196 -0.2145  0.0981 -0.1997
 1369BOLB   NC132833  11.020  16.319  13.742 -0.2100 -0.0050 -0.0537
 1369BOLB   PO132834  10.492  16.285  13.728 -0.0635  0.2689 -0.2372
 1369BOLB   GL132835  10.874  15.870  13.871  0.6113  0.1312 -0.1447
 1369BOLB   GL232836  10.629  15.694  14.183  0.1946 -0.1362  0.2372
 1369BOLB   C1A32837  11.149  15.508  13.782 -0.1133 -0.0267  0.3188
 1369BOLB   C2A32838  11.253  15.025  13.798  0.2049 -0.1510 -0.2640
 1369BOLB   C3A32839  11.347  14.627  13.629  0.2323 -0.0410 -0.0163
 1369BOLB   C4A32840  11.624  14.367  13.602  0.2003 -0.0358 -0.4198
 1369BOLB   C1B32841  10.735  15.267  13.919  0.1843 -0.1831  0.1814
 1369BOLB   C2B32842  10.742  14.924  14.044  0.0685  0.1065 -0.1622
 1369BOLB   C3B32843  10.973  14.493  13.975 -0.2439  0.1224 -0.0562
 1369BOLB   C4B32844  11.347  14.258  14.070 -0.0585  0.0638  0.0309
 1369BOLB   NC232845  13.496  12.935  15.271  0.2440  0.1919  0.0424
 1369BOLB   PO232846  13.433  13.329  15.044  0.0281  0.0831  0.0687
 1369BOLB   GL332847  13.249  13.532  14.704  0.1828 -0.1920  0.0677
 1369BOLB   GL432848  13.441  13.444  14.478 -0.2369  0.3947 -0.2432
 1369BOLB   C1C32849  12.890  13.656  14.432 -0.5778  0.2248 -0.0699
 1369BOLB   C2C32850  12.434  13.779  14.233 -0.0859 -0.1713  0.3440
 1369BOLB   C3C32851  12.150  14.019  14.064  0.2184 -0.1407 -0.1311
 1369BOLB   C4C32852  11.864  14.279  13.933 -0.2836 -0.2122 -0.1058
 1369BOLB   C1D32853  13.230  13.565  14.078  0.1652 -0.1441  0.2543
 1369BOLB   C2D32854  12.806  13.540  13.857 -0.1535 -0.0050  0.1550
 1369BOLB   C3D32855  12.445  13.541  13.703 -0.2677 -0.1060 -0.4837
 1369BOLB   C4D32856  12.278  13.722  13.332 -0.0382 -0.1031  0.4929
 1370BOLB   NC132857   2.536  27.235   7.756  0.2858  0.0947  0.1747
 1370BOLB   PO132858   2.699  27.663   7.974  0.1974 -0.1816 -0.1417
 1370BOLB   GL132859   2.764  28.055   7.971 -0.0135 -0.2165 -0.3212
 1370BOLB   GL232860   2.679  27.981   7.644 -0.1218  0.1654 -0.2462
 1370BOLB   C1A32861   2.828  28.401   7.783 -0.2602 -0.1839 -0.1114
 1370BOLB   C2A32862   2.674  28.758   7.622  0.1159  0.2034  0.1628
 1370BOLB   C3A32863   2.556  29.142   7.443  0.2308  0.0851  0.0611
 1370BOLB   C4A32864   2.322  29.578   7.362  0.1301 -0.1626 -0.3016
 1370BOLB   C1B32865   2.350  28.183   7.730 -0.1702  0.0638  0.2231
 1370BOLB   C2B32866   1.931  28.380   7.742  0.1232  0.0042  0.1275
 1370BOLB   C3B32867   1.606  28.631   7.953  0.4320  0.0966  0.0379
 1370BOLB   C4B32868   1.361  28.840   8.166 -0.0017  0.1983  0.3805
 1370BOLB   NC232869   0.854  31.169   5.839 -0.2046 -0.1256 -0.1014
 1370BOLB   PO232870   0.847  30.731   5.907  0.0192  0.0453 -0.0821
 1370BOLB   GL332871   1.087  30.501   6.145 -0.0327 -0.2429 -0.0623
 1370BOLB   GL432872   1.011  30.209   6.255 -0.4077 -0.0129  0.1285
 1370BOLB   C1C32873   1.426  30.486   6.374 -0.0665  0.3444 -0.2786
 1370BOLB   C2C32874   1.673  30.272   6.647 -0.4964  0.3286  0.1289
 1370BOLB   C3C32875   1.811  30.035   7.007 -0.4777 -0.1058  0.2235
 1370BOLB   C4C32876   2.104  29.857   7.202 -0.2190  0.0032 -0.0439
 1370BOLB   C1D32877   1.381  29.984   6.324 -0.4933  0.0897 -0.0009
 1370BOLB   C2D32878   1.617  29.647   6.487 -0.0122  0.2958 -0.1123
 1370BOLB   C3D32879   1.791  29.280   6.698 -0.2386 -0.0340 -0.1142
 1370BOLB   C4D32880   1.641  29.012   7.024 -0.0714 -0.0519 -0.2684
 1371BOLB   NC132881  28.902  21.409  12.192 -0.0890  0.3156  0.0039
 1371BOLB   PO132882  29.024  20.953  11.963 -0.1558 -0.0723  0.0995
 1371BOLB   GL132883  29.384  20.736  12.048 -0.3164 -0.1151 -0.1004
 1371BOLB   GL232884  29.356  20.545  12.357 -0.1453  0.2010  0.1717
 1371BOLB   C1A32885  29.802  20.405  12.035  0.1601  0.0705 -0.0153
 1371BOLB   C2A32886  30.211  20.253  12.158  0.4865 -0.1065  0.1375
 1371BOLB   C3A32887  30.438  19.904  12.384 -0.2949  0.2908  0.0144
 1371BOLB   C4A32888  30.559  19.902  12.810  0.2686 -0.2239  0.1263
 1371BOLB   C1B32889  29.712  20.883  12.404 -0.3787  0.1080  0.0387
 1371BOLB   C2B32890  30.070  21.139  12.624 -0.2344  0.0580  0.1366
 1371BOLB   C3B32891  30.455  21.287  12.562 -0.1274 -0.1912  0.2543
 1371BOLB   C4B32892  30.908  21.188  12.351  0.1237 -0.1189  0.1324
 1371BOLB   NC232893  29.087  20.591  13.556  0.3055 -0.1759  0.1863
 1371BOLB   PO232894  29.060  21.088  13.456  0.0624 -0.2005  0.1219
 1371BOLB   GL332895  29.442  20.957  13.650  0.0338  0.1144  0.0893
 1371BOLB   GL432896  29.504  20.984  13.364 -0.0429  0.2530  0.1097
 1371BOLB   C1C32897  29.862  20.847  13.651  0.1323  0.1789 -0.0031
 1371BOLB   C2C32898  30.252  20.742  13.579  0.1810  0.0300  0.0009
 1371BOLB   C3C32899  30.565  20.461  13.574 -0.2392  0.2075 -0.1865
 1371BOLB   C4C32900  30.683  20.031  13.269 -0.1454  0.1973  0.1257
 1371BOLB   C1D32901  29.506  20.990  12.928  0.0265  0.0377  0.1604
 1371BOLB   C2D32902  29.463  21.241  12.648  0.2190 -0.1741  0.1476
 1371BOLB   C3D32903  29.676  21.473  12.450 -0.2000  0.0241  0.1718
 1371BOLB   C4D32904  29.866  21.417  12.096 -0.1640  0.2404  0.0020
 1372BOLB   NC132905  38.192  24.814  13.114  0.1819  0.0404  0.0506
 1372BOLB   PO132906  38.202  24.745  12.677  0.1635 -0.1376  0.0247
 1372BOLB   GL132907  37.888  25.061  12.793 -0.0998 -0.5319 -0.2780
 1372BOLB   GL232908  37.583  24.872  12.644  0.4067 -0.0959  0.1749
 1372BOLB   C1A32909  37.732  25.493  12.976 -0.1212 -0.2593 -0.1414
 1372BOLB   C2A32910  37.490  25.751  13.137  0.4094  0.2174 -0.0065
 1372BOLB   C3A32911  37.190  26.053  13.332  0.1054  0.2687  0.0768
 1372BOLB   C4A32912  36.796  26.169  13.544  0.2142 -0.1247 -0.2572
 1372BOLB   C1B32913  37.308  25.209  12.636  0.0577 -0.4323 -0.1018
 1372BOLB   C2B32914  37.180  25.719  12.657 -0.1276  0.1792 -0.1911
 1372BOLB   C3B32915  36.896  25.958  12.874  0.0153 -0.1585 -0.0873
 1372BOLB   C4B32916  36.807  26.348  13.047 -0.1077 -0.2293 -0.2408
 1372BOLB   NC232917  35.228  26.827  15.362  0.2387  0.1591  0.1125
 1372BOLB   PO232918  35.140  26.321  15.507 -0.1970 -0.0924  0.0906
 1372BOLB   GL332919  35.393  26.174  15.186 -0.0723 -0.1584  0.5034
 1372BOLB   GL432920  35.303  26.044  14.754  0.0327  0.1676  0.0568
 1372BOLB   C1C32921  35.706  26.276  14.894  0.0298 -0.1046 -0.1974
 1372BOLB   C2C32922  35.750  26.294  14.362  0.0090  0.0931  0.2700
 1372BOLB   C3C32923  36.019  26.172  14.017  0.0809 -0.3672  0.0410
 1372BOLB   C4C32924  36.399  26.127  13.774  0.1607  0.2063  0.0812
 1372BOLB   C1D32925  35.521  25.851  14.434  0.2059 -0.2815  0.2831
 1372BOLB   C2D32926  35.790  25.703  14.090  0.2150  0.1135  0.0316
 1372BOLB   C3D32927  36.027  25.335  13.918  0.0137 -0.0219 -0.0527
 1372BOLB   C4D32928  36.369  25.081  13.803 -0.1561  0.1532 -0.3173
 1373BOLB   NC132929  34.516  21.835  18.912 -0.1404 -0.0478  0.2485
 1373BOLB   PO132930  34.616  21.358  19.108 -0.0058 -0.1914 -0.1365
 1373BOLB   GL132931  34.848  21.227  18.825 -0.1535 -0.0750  0.0231
 1373BOLB   GL232932  35.089  21.395  18.544  0.2486 -0.1490  0.0221
 1373BOLB   C1A32933  34.890  20.720  18.733  0.6727  0.2054  0.0627
 1373BOLB   C2A32934  35.076  20.451  18.569  0.3415 -0.1188 -0.0872
 1373BOLB   C3A32935  35.019  20.436  18.215 -0.2011 -0.1456 -0.0549
 1373BOLB   C4A32936  34.723  20.423  17.955  0.1777  0.0354  0.1051
 1373BOLB   C1B32937  35.401  21.391  18.760  0.0528 -0.1182  0.2358
 1373BOLB   C2B32938  35.856  21.255  18.648 -0.0115 -0.2404 -0.1326
 1373BOLB   C3B32939  36.172  21.186  18.390  0.0439 -0.3261  0.1494
 1373BOLB   C4B32940  36.409  21.461  18.170 -0.2232  0.0786 -0.1715
 1373BOLB   NC232941  33.523  21.758  18.650 -0.0861 -0.0649  0.0284
 1373BOLB   PO232942  33.188  21.455  18.593  0.2563  0.3657 -0.0131
 1373BOLB   GL332943  33.251  21.041  18.471 -0.1084  0.1567  0.0880
 1373BOLB   GL432944  32.948  20.980  18.484  0.0612  0.1029  0.0451
 1373BOLB   C1C32945  33.447  20.733  18.175 -0.0602 -0.5504  0.0382
 1373BOLB   C2C32946  33.852  20.637  17.889  0.2567 -0.0873 -0.0819
 1373BOLB   C3C32947  34.130  20.628  17.578  0.0839  0.0644  0.0990
 1373BOLB   C4C32948  34.564  20.574  17.572  0.1645 -0.2033  0.1009
 1373BOLB   C1D32949  33.005  20.518  18.267 -0.1406  0.1242  0.0159
 1373BOLB   C2D32950  33.123  20.313  17.795 -0.0267  0.0206  0.2530
 1373BOLB   C3D32951  33.021  19.961  17.688 -0.2833  0.3203  0.0546
 1373BOLB   C4D32952  32.989  19.704  17.494  0.2412  0.3269 -0.0525
 1374BOLB   NC132953  11.943  15.801   6.403  0.1741  0.1554  0.2754
 1374BOLB   PO132954  11.942  15.785   6.861 -0.2148 -0.0720 -0.0554
 1374BOLB   GL132955  12.172  15.394   6.709 -0.2058 -0.0513  0.1231
 1374BOLB   GL232956  12.108  15.071   6.831 -0.3940 -0.0581 -0.2580
 1374BOLB   C1A32957  12.468  15.155   6.513 -0.1329 -0.1304 -0.2369
 1374BOLB   C2A32958  12.848  15.220   6.134  0.2918 -0.0390  0.2048
 1374BOLB   C3A32959  13.312  15.169   6.180 -0.2839 -0.0190 -0.2934
 1374BOLB   C4A32960  13.650  15.002   5.910  0.2410 -0.1266  0.0162
 1374BOLB   C1B32961  12.217  14.754   6.491  0.3330 -0.0731  0.0501
 1374BOLB   C2B32962  12.390  14.423   6.310  0.0628  0.0314 -0.4743
 1374BOLB   C3B32963  12.775  14.233   6.324  0.0445  0.0241  0.0628
 1374BOLB   C4B32964  13.275  14.199   6.125  0.2334 -0.0536 -0.1856
 1374BOLB   NC232965  15.284  14.108   4.723 -0.0400 -0.3382 -0.0688
 1374BOLB   PO232966  15.227  13.696   4.978  0.1023 -0.1649 -0.0508
 1374BOLB   GL332967  14.922  13.922   5.080 -0.1478  0.1657  0.2095
 1374BOLB   GL432968  14.737  13.780   4.845 -0.0919 -0.0830 -0.2002
 1374BOLB   C1C32969  14.468  14.076   5.293  0.0780  0.0119  0.1495
 1374BOLB   C2C32970  14.113  14.280   5.354  0.0094  0.1685 -0.1312
 1374BOLB   C3C32971  13.774  14.429   5.512 -0.0727 -0.0239  0.2853
 1374BOLB   C4C32972  13.635  14.544   5.841 -0.1016 -0.0387  0.3031
 1374BOLB   C1D32973  14.518  14.133   4.713  0.2642  0.1542  0.0269
 1374BOLB   C2D32974  14.118  14.351   4.490  0.0722 -0.0193 -0.2819
 1374BOLB   C3D32975  13.748  14.425   4.258 -0.0299  0.0603  0.1408
 1374BOLB   C4D32976  13.374  14.738   4.161 -0.3873 -0.1897 -0.0048
 1375BOLB   NC132977   4.756  14.241   5.812  0.1385 -0.1441 -0.1768
 1375BOLB   PO132978   5.012  14.054   5.468 -0.1149  0.3287 -0.0681
 1375BOLB   GL132979   4.885  13.739   5.319 -0.0076 -0.1994  0.0834
 1375BOLB   GL232980   4.983  13.621   5.016 -0.2401  0.0487  0.1693
 1375BOLB   C1A32981   4.574  13.439   5.269 -0.1343 -0.1574  0.0401
 1375BOLB   C2A32982   4.593  13.028   5.102 -0.1243  0.1269  0.0687
 1375BOLB   C3A32983   4.506  12.625   4.895 -0.2202  0.0899  0.0670
 1375BOLB   C4A32984   4.358  12.089   4.859  0.0347 -0.0473  0.1870
 1375BOLB   C1B32985   5.064  13.290   4.696 -0.2098 -0.2802  0.1453
 1375BOLB   C2B32986   4.873  12.898   4.649 -0.0059  0.1390 -0.1106
 1375BOLB   C3B32987   4.857  12.519   4.551 -0.1871  0.0918  0.0158
 1375BOLB   C4B32988   4.646  12.146   4.446 -0.3293 -0.3083  0.0504
 1375BOLB   NC232989   5.236  10.494   3.609 -0.0291  0.1402  0.1972
 1375BOLB   PO232990   4.967  10.667   3.293  0.3303  0.1572  0.0042
 1375BOLB   GL332991   5.023  10.944   3.535 -0.1305  0.2084  0.4717
 1375BOLB   GL432992   5.043  11.262   3.300 -0.3687 -0.1281 -0.1270
 1375BOLB   C1C32993   4.742  10.893   3.881  0.2769  0.2345  0.0687
 1375BOLB   C2C32994   4.376  11.172   4.053  0.1515 -0.0165  0.1557
 1375BOLB   C3C32995   4.429  11.436   4.355 -0.1578  0.1501 -0.4456
 1375BOLB   C4C32996   4.391  11.691   4.659  0.1169  0.1283 -0.0502
 1375BOLB   C1D32997   5.162  11.605   3.567 -0.3889 -0.1600 -0.0727
 1375BOLB   C2D32998   5.116  12.083   3.451  0.0870 -0.0039 -0.0710
 1375BOLB   C3D32999   4.988  12.475   3.659  0.1489  0.0905  0.1606
 1375BOLB   C4D33000   4.592  12.435   3.946 -0.3488  0.0460  0.1935
 1376BOLB   NC133001  13.918  23.783  11.843 -0.2750  0.3376  0.0303
 1376BOLB   PO133002  14.280  23.669  11.995 -0.0161  0.0741 -0.1317
 1376BOLB   GL133003  14.617  23.832  11.750 -0.2213  0.1238 -0.2068
 1376BOLB   GL233004  14.963  23.584  11.688  0.0987  0.1903 -0.0467
 1376BOLB   C1A33005  14.947  24.108  11.822  0.0920  0.0281  0.0388
 1376BOLB   C2A33006  15.302  24.302  11.581  0.1535 -0.4630 -0.3018
 1376BOLB   C3A33007  15.542  24.635  11.554  0.1012  0.1027  0.0499
 1376BOLB   C4A33008  15.890  24.748  11.346  0.1014  0.2005  0.0492
 1376BOLB   C1B33009  15.311  23.793  11.583 -0.1590  0.0434 -0.1365
 1376BOLB   C2B33010  15.675  23.955  11.588 -0.3520  0.1618  0.2101
 1376BOLB   C3B33011  16.034  23.738  11.785 -0.1070  0.1688  0.2256
 1376BOLB   C4B33012  16.220  23.355  11.888 -0.0509  0.1639 -0.3889
 1376BOLB   NC233013  17.510  26.699  11.302 -0.0361  0.0133 -0.0831
 1376BOLB   PO233014  17.712  26.411  11.226 -0.0455 -0.2354  0.0633
 1376BOLB   GL333015  17.312  26.240  11.052 -0.0411 -0.0820 -0.1707
 1376BOLB   GL433016  17.133  26.571  11.003  0.0001  0.0847 -0.0907
 1376BOLB   C1C33017  16.935  26.074  11.083 -0.3216  0.1095  0.2854
 1376BOLB   C2C33018  16.624  25.770  11.111  0.0138  0.0754  0.2047
 1376BOLB   C3C33019  16.519  25.351  11.232 -0.2169  0.2892 -0.2231
 1376BOLB   C4C33020  16.140  25.108  11.198 -0.0111  0.0310  0.0686
 1376BOLB   C1D33021  16.732  26.489  10.835 -0.1400 -0.0840 -0.4868
 1376BOLB   C2D33022  16.344  26.729  10.575 -0.1324 -0.0553 -0.0880
 1376BOLB   C3D33023  16.264  26.924  10.200  0.2627  0.3596  0.2807
 1376BOLB   C4D33024  16.296  27.224   9.858  0.0398 -0.0516 -0.1284
 1377BOLB   NC133025  14.375  23.140  12.013 -0.0694 -0.0079 -0.0526
 1377BOLB   PO133026  14.789  22.919  11.822 -0.0122 -0.3086  0.0015
 1377BOLB   GL133027  15.185  23.134  12.012  0.4114  0.0693 -0.0916
 1377BOLB   GL233028  15.183  23.068  11.610  0.0437  0.1071  0.1361
 1377BOLB   C1A33029  15.576  23.139  12.101 -0.3181  0.1330  0.1735
 1377BOLB   C2A33030  16.005  22.922  12.095  0.0176 -0.0961  0.1736
 1377BOLB   C3A33031  16.440  22.990  12.127  0.1649 -0.1532 -0.1558
 1377BOLB   C4A33032  16.704  23.325  11.983  0.0829 -0.1344  0.0111
 1377BOLB   C1B33033  15.550  23.308  11.618 -0.3024  0.2326  0.3428
 1377BOLB   C2B33034  15.831  23.586  11.350  0.0417 -0.2504  0.1350
 1377BOLB   C3B33035  16.237  23.685  11.175 -0.0866  0.1528 -0.4387
 1377BOLB   C4B33036  16.581  23.645  11.567  0.3449 -0.0313 -0.1263
 1377BOLB   NC233037  18.796  23.710  12.386  0.3271 -0.0494  0.0222
 1377BOLB   PO233038  18.939  23.809  12.876  0.2592  0.0917 -0.2284
 1377BOLB   GL333039  18.478  23.831  12.743 -0.1629  0.3007  0.0235
 1377BOLB   GL433040  18.337  23.544  12.509 -0.0499 -0.1709  0.0044
 1377BOLB   C1C33041  18.037  23.946  12.735 -0.0685  0.0919  0.0884
 1377BOLB   C2C33042  17.678  23.846  12.385 -0.3146  0.0026  0.1534
 1377BOLB   C3C33043  17.292  24.002  12.244 -0.1740 -0.1039  0.1136
 1377BOLB   C4C33044  16.854  23.791  12.056 -0.1152 -0.0091 -0.1120
 1377BOLB   C1D33045  17.931  23.479  12.646  0.0241  0.0335  0.3765
 1377BOLB   C2D33046  17.479  23.376  12.725  0.1153 -0.0002 -0.0721
 1377BOLB   C3D33047  17.279  23.031  12.606 -0.2940  0.0129 -0.4932
 1377BOLB   C4D33048  17.380  22.925  12.228  0.0967 -0.3021 -0.0541
 1378BOLB   NC133049  12.600  15.935   8.699 -0.2765 -0.3637 -0.0232
 1378BOLB   PO133050  13.026  15.858   8.773 -0.0963 -0.0727 -0.1652
 1378BOLB   GL133051  13.324  15.728   8.907 -0.1371 -0.1129 -0.3633
 1378BOLB   GL233052  13.320  15.528   9.139  0.0276  0.2364 -0.0516
 1378BOLB   C1A33053  13.661  15.596   8.686 -0.1462 -0.3933 -0.1892
 1378BOLB   C2A33054  13.894  15.528   8.343 -0.0577  0.2314  0.0470
 1378BOLB   C3A33055  14.058  15.274   8.130  0.1284 -0.0744 -0.0998
 1378BOLB   C4A33056  14.273  14.936   8.147 -0.1267  0.1688  0.1574
 1378BOLB   C1B33057  13.617  15.276   9.067  0.1422  0.2831  0.0370
 1378BOLB   C2B33058  13.768  14.967   8.978  0.4090 -0.3753  0.0377
 1378BOLB   C3B33059  13.961  14.679   8.811  0.1257  0.1085 -0.2044
 1378BOLB   C4B33060  13.883  14.228   8.800 -0.0255  0.1767 -0.0500
 1378BOLB   NC233061  15.783  13.318   6.798  0.2262 -0.0788  0.0882
 1378BOLB   PO233062  15.847  13.255   7.299  0.0407 -0.1195  0.1400
 1378BOLB   GL333063  15.761  13.760   7.456  0.0933  0.1900 -0.1102
 1378BOLB   GL433064  15.860  14.032   7.239 -0.1451  0.0207  0.0986
 1378BOLB   C1C33065  15.361  14.010   7.506 -0.1383 -0.1511 -0.0729
 1378BOLB   C2C33066  15.054  14.202   7.757  0.1143 -0.2286 -0.0149
 1378BOLB   C3C33067  14.917  14.518   7.896 -0.0595 -0.2406  0.0920
 1378BOLB   C4C33068  14.605  14.688   8.155 -0.0144  0.0044  0.3007
 1378BOLB   C1D33069  15.826  14.381   7.550  0.0832 -0.0113 -0.1120
 1378BOLB   C2D33070  15.717  14.828   7.450 -0.1545 -0.1248 -0.0609
 1378BOLB   C3D33071  15.443  15.140   7.380  0.0169 -0.0337 -0.2197
 1378BOLB   C4D33072  15.148  15.382   7.207 -0.1677 -0.1443  0.4425
 1379BOLB   NC133073   5.830  23.413   3.078 -0.0365 -0.3190 -0.2531
 1379BOLB   PO133074   5.732  22.994   2.924 -0.1865  0.1043 -0.1571
 1379BOLB   GL133075   5.508  23.292   2.666  0.0414 -0.2532 -0.1554
 1379BOLB   GL233076   5.810  23.420   2.507 -0.2801 -0.0815  0.0462
 1379BOLB   C1A33077   5.381  23.641   2.361  0.1195  0.0610  0.0541
 1379BOLB   C2A33078   5.379  23.861   2.017 -0.1228 -0.1187 -0.1450
 1379BOLB   C3A33079   5.372  23.902   1.604 -0.1194 -0.3591  0.0448
 1379BOLB   C4A33080   5.320  24.189   1.156  0.3312  0.4478  0.4399
 1379BOLB   C1B33081   5.861  23.500   2.081  0.1544 -0.1319  0.1528
 1379BOLB   C2B33082   5.714  23.585   1.685 -0.0033 -0.1972 -0.0313
 1379BOLB   C3B33083   5.655  23.588   1.228  0.0907  0.1911  0.2386
 1379BOLB   C4B33084   5.552  23.858   0.910 -0.0852  0.1352 -0.2860
 1379BOLB   NC233085   5.491  25.920  -0.842 -0.0838  0.1667  0.1172
 1379BOLB   PO233086   5.494  26.005  -0.351  0.0022  0.0502  0.3337
 1379BOLB   GL333087   5.719  25.771  -0.031 -0.0989  0.0344  0.4976
 1379BOLB   GL433088   6.005  25.870  -0.129  0.0920 -0.3125  0.0615
 1379BOLB   C1C33089   5.783  25.502   0.324 -0.2205 -0.3848  0.1325
 1379BOLB   C2C33090   5.755  25.247   0.703 -0.1209 -0.1828  0.1368
 1379BOLB   C3C33091   5.560  24.946   1.063  0.0900  0.1387 -0.0463
 1379BOLB   C4C33092   5.376  24.616   0.960 -0.2734  0.0754 -0.2516
 1379BOLB   C1D33093   6.216  25.701   0.189  0.2382  0.0557 -0.0169
 1379BOLB   C2D33094   6.291  25.489   0.527  0.0076  0.2975 -0.0678
 1379BOLB   C3D33095   6.659  25.335   0.905  0.1820  0.0283 -0.1758
 1379BOLB   C4D33096   7.072  25.156   0.822 -0.1637  0.0817  0.1554
 1380BOLB   NC133097   9.432  28.799   9.165 -0.0093 -0.3645 -0.3886
 1380BOLB   PO133098   9.101  29.085   9.359  0.0436 -0.0522 -0.0526
 1380BOLB   GL133099   9.117  29.528   9.362  0.1990 -0.2362 -0.0967
 1380BOLB   GL233100   9.014  29.704   9.699  0.0072  0.0046  0.1358
 1380BOLB   C1A33101   9.382  29.832   9.261 -0.2232  0.0127  0.2826
 1380BOLB   C2A33102   9.659  30.222   9.217  0.2344  0.1635  0.0212
 1380BOLB   C3A33103   9.664  30.642   9.096  0.0074 -0.0724  0.0047
 1380BOLB   C4A33104   9.603  31.091   9.160 -0.1596  0.1508  0.1120
 1380BOLB   C1B33105   9.163  30.157   9.612  0.0965  0.0782 -0.0700
 1380BOLB   C2B33106   9.061  30.590   9.934 -0.3205  0.2197 -0.1861
 1380BOLB   C3B33107   8.941  30.930   9.894  0.2669  0.2805 -0.1345
 1380BOLB   C4B33108   8.828  31.424   9.958  0.0495 -0.5394 -0.0863
 1380BOLB   NC233109  10.740  32.920   9.749  0.1624  0.0478 -0.2802
 1380BOLB   PO233110  10.575  32.698  10.139  0.1266 -0.5844 -0.2131
 1380BOLB   GL333111  10.161  32.503  10.120  0.0834  0.0909 -0.1997
 1380BOLB   GL433112   9.880  32.653  10.330  0.1849 -0.1374 -0.0869
 1380BOLB   C1C33113  10.044  32.154  10.109  0.1627  0.2963  0.4209
 1380BOLB   C2C33114   9.806  31.809   9.950  0.0130 -0.0797  0.0421
 1380BOLB   C3C33115   9.824  31.751   9.537 -0.1018  0.0043 -0.3739
 1380BOLB   C4C33116   9.825  31.381   9.220 -0.1530  0.0893 -0.0025
 1380BOLB   C1D33117   9.652  32.300  10.323  0.3527  0.1656  0.1084
 1380BOLB   C2D33118   9.342  32.017  10.405  0.1243 -0.0170 -0.1219
 1380BOLB   C3D33119   9.407  31.887  10.884  0.1208 -0.1122 -0.1238
 1380BOLB   C4D33120   9.837  31.875  11.096  0.0088  0.2634  0.0294
 1381BOLB   NC133121   9.118  14.670  12.050  0.2442  0.1360  0.0484
 1381BOLB   PO133122   9.016  14.261  11.911  0.1598 -0.0164  0.1726
 1381BOLB   GL133123   8.986  13.764  12.012 -0.0802 -0.0114  0.2204
 1381BOLB   GL233124   8.709  13.593  12.082 -0.3304  0.0207  0.2863
 1381BOLB   C1A33125   9.029  13.349  12.330 -0.0939 -0.3099 -0.0106
 1381BOLB   C2A33126   8.991  13.340  12.864  0.3908 -0.2269  0.0443
 1381BOLB   C3A33127   8.920  13.297  13.236  0.4623 -0.0920 -0.0357
 1381BOLB   C4A33128   9.139  12.998  13.542 -0.1332 -0.1412 -0.3197
 1381BOLB   C1B33129   8.907  13.218  11.866 -0.1886  0.1167 -0.0111
 1381BOLB   C2B33130   9.053  12.848  11.610 -0.0333  0.0545  0.2214
 1381BOLB   C3B33131   9.345  12.596  11.677 -0.3093 -0.1915 -0.0381
 1381BOLB   C4B33132   9.458  12.318  11.974 -0.2139  0.0352 -0.0730
 1381BOLB   NC233133   9.374  10.847  16.003 -0.3515 -0.2864 -0.3878
 1381BOLB   PO233134   9.557  11.025  15.580  0.3948 -0.0963  0.1146
 1381BOLB   GL333135   9.437  11.443  15.390 -0.1827  0.2368  0.1918
 1381BOLB   GL433136   9.696  11.327  15.187  0.1543 -0.0193  0.0175
 1381BOLB   C1C33137   9.335  11.663  14.918  0.2356 -0.0966  0.1121
 1381BOLB   C2C33138   9.218  11.891  14.556 -0.0413 -0.0352 -0.1438
 1381BOLB   C3C33139   9.307  12.297  14.266  0.2770  0.0467  0.1785
 1381BOLB   C4C33140   9.219  12.591  13.878 -0.0873 -0.0465  0.2716
 1381BOLB   C1D33141   9.695  11.856  15.259  0.1311 -0.3759 -0.2166
 1381BOLB   C2D33142   9.619  12.241  15.553  0.4022 -0.3729 -0.2539
 1381BOLB   C3D33143   9.369  12.654  15.625 -0.0202  0.1186 -0.1464
 1381BOLB   C4D33144   8.962  12.755  15.748  0.2850  0.1816  0.0058
 1382BOLB   NC133145  11.247  26.376  14.274 -0.1161 -0.0332 -0.0215
 1382BOLB   PO133146  11.385  26.561  13.888  0.1193  0.2081  0.0131
 1382BOLB   GL133147  11.693  26.728  14.210  0.1995 -0.3242  0.1017
 1382BOLB   GL233148  11.837  26.814  13.969  0.4427  0.3719 -0.0186
 1382BOLB   C1A33149  11.931  26.799  14.564  0.1376  0.0791 -0.3629
 1382BOLB   C2A33150  12.306  27.037  14.721 -0.1834 -0.0335 -0.0274
 1382BOLB   C3A33151  12.393  27.509  14.929 -0.1080 -0.1701  0.0354
 1382BOLB   C4A33152  12.415  27.641  15.398 -0.0015 -0.1544 -0.2567
 1382BOLB   C1B33153  12.082  27.210  14.154 -0.1237 -0.0452 -0.0640
 1382BOLB   C2B33154  12.415  27.568  14.233  0.3514 -0.1713 -0.1656
 1382BOLB   C3B33155  12.614  27.772  14.577 -0.2082 -0.1649 -0.3280
 1382BOLB   C4B33156  12.481  28.058  14.932 -0.1079  0.2235  0.1435
 1382BOLB   NC233157  13.169  29.109  17.162 -0.0581 -0.1565  0.2128
 1382BOLB   PO233158  13.438  28.680  17.121  0.1336  0.1141 -0.1984
 1382BOLB   GL333159  13.021  28.493  17.212 -0.0546  0.1473  0.1690
 1382BOLB   GL433160  12.909  28.707  17.246  0.1246 -0.0843 -0.0565
 1382BOLB   C1C33161  12.812  28.148  17.055  0.1383 -0.4251 -0.1251
 1382BOLB   C2C33162  12.572  28.110  16.668  0.2377  0.0403 -0.2991
 1382BOLB   C3C33163  12.337  27.824  16.309  0.1747 -0.1083  0.2504
 1382BOLB   C4C33164  12.296  27.827  15.868 -0.0076 -0.6022  0.0820
 1382BOLB   C1D33165  12.556  28.563  17.053  0.1752 -0.1653  0.0784
 1382BOLB   C2D33166  12.206  28.590  16.809 -0.1423  0.2262  0.3390
 1382BOLB   C3D33167  11.977  28.214  16.526 -0.2226 -0.3768 -0.0774
 1382BOLB   C4D33168  11.852  28.016  16.205  0.2055  0.1858 -0.1457
 1383BOLB   NC133169  14.845  20.345   8.350 -0.3583 -0.3719 -0.1251
 1383BOLB   PO133170  15.094  19.927   8.383 -0.0589 -0.2094  0.0715
 1383BOLB   GL133171  15.404  19.650   8.261 -0.1682  0.1383 -0.0140
 1383BOLB   GL233172  15.610  19.835   8.071  0.0974 -0.2883 -0.1339
 1383BOLB   C1A33173  15.569  19.231   8.336 -0.0680 -0.0843 -0.1049
 1383BOLB   C2A33174  16.007  19.084   8.333 -0.1628 -0.0898 -0.0355
 1383BOLB   C3A33175  16.461  19.272   8.299  0.1081 -0.0548  0.0460
 1383BOLB   C4A33176  16.825  19.297   8.403  0.0053  0.1944 -0.2263
 1383BOLB   C1B33177  15.891  19.578   8.165  0.1329  0.2493 -0.3729
 1383BOLB   C2B33178  16.132  19.767   8.449 -0.1602 -0.1974  0.3677
 1383BOLB   C3B33179  16.550  20.012   8.435  0.2837 -0.3066 -0.2985
 1383BOLB   C4B33180  16.977  20.252   8.620  0.1937  0.1459  0.0507
 1383BOLB   NC233181  19.179  19.964   8.701  0.1218  0.1209 -0.0901
 1383BOLB   PO233182  19.072  19.527   8.696 -0.0562  0.0068 -0.1567
 1383BOLB   GL333183  18.733  19.770   8.581 -0.1515 -0.1112 -0.0092
 1383BOLB   GL433184  18.713  20.122   8.539  0.0824 -0.1476  0.3792
 1383BOLB   C1C33185  18.394  19.777   8.366 -0.0117 -0.1551 -0.1537
 1383BOLB   C2C33186  18.132  19.482   8.197  0.0289  0.2134 -0.0723
 1383BOLB   C3C33187  17.705  19.426   8.058 -0.2656 -0.0027 -0.0669
 1383BOLB   C4C33188  17.307  19.413   8.274 -0.0046 -0.2769 -0.0177
 1383BOLB   C1D33189  18.433  20.458   8.212  0.0854  0.3905 -0.1395
 1383BOLB   C2D33190  18.055  20.647   8.222 -0.1255  0.2091 -0.2228
 1383BOLB   C3D33191  17.645  20.706   8.379  0.0134  0.6397  0.1354
 1383BOLB   C4D33192  17.274  20.727   8.335  0.0636 -0.0458  0.0407
 1384BOLB   NC133193   9.859  27.379  15.205 -0.2281  0.1615  0.0294
 1384BOLB   PO133194   9.474  27.473  15.414  0.1013 -0.2392  0.0534
 1384BOLB   GL133195   9.595  27.857  15.506  0.2023  0.4827 -0.0197
 1384BOLB   GL233196   9.879  27.948  15.448  0.0208  0.3401  0.0144
 1384BOLB   C1A33197   9.587  28.171  15.844 -0.1906 -0.3532 -0.0961
 1384BOLB   C2A33198   9.694  28.515  15.942  0.0889  0.1849  0.0680
 1384BOLB   C3A33199  10.074  28.699  15.896  0.1751  0.1519 -0.1240
 1384BOLB   C4A33200  10.320  29.038  15.944  0.1100 -0.5059  0.1377
 1384BOLB   C1B33201  10.066  28.029  15.770 -0.2607  0.1414 -0.0752
 1384BOLB   C2B33202  10.195  28.334  16.213  0.0070  0.2916  0.1228
 1384BOLB   C3B33203  10.113  28.617  16.602  0.0957 -0.0708 -0.0093
 1384BOLB   C4B33204   9.913  28.889  16.836 -0.3028 -0.5414  0.0716
 1384BOLB   NC233205  12.806  30.121  16.197  0.0857  0.0587 -0.3510
 1384BOLB   PO233206  12.502  29.975  15.985 -0.1279  0.2712  0.0297
 1384BOLB   GL333207  12.120  29.781  15.815 -0.0225  0.2881 -0.0754
 1384BOLB   GL433208  12.152  29.952  15.538  0.0655 -0.0332 -0.0605
 1384BOLB   C1C33209  11.955  29.453  15.689 -0.0681 -0.0399 -0.0686
 1384BOLB   C2C33210  11.537  29.330  15.783  0.1032 -0.1289  0.1911
 1384BOLB   C3C33211  11.281  28.951  15.881 -0.2762  0.0599 -0.0427
 1384BOLB   C4C33212  10.783  28.940  15.923 -0.0387  0.1059 -0.0556
 1384BOLB   C1D33213  12.008  29.644  15.208  0.2490 -0.0799  0.0359
 1384BOLB   C2D33214  11.981  29.236  15.136  0.1413  0.3700 -0.3883
 1384BOLB   C3D33215  11.890  28.839  15.088 -0.2045  0.1678  0.1501
 1384BOLB   C4D33216  11.578  28.587  15.054  0.0714  0.1621 -0.1581
 1385BOLB   NC133217  14.238  23.333   7.227 -0.0013 -0.0302  0.0852
 1385BOLB   PO133218  14.720  23.368   7.199 -0.3470 -0.1320 -0.0202
 1385BOLB   GL133219  14.988  23.685   7.393  0.0042  0.0387  0.1874
 1385BOLB   GL233220  15.144  23.540   7.722 -0.1279 -0.2945  0.0612
 1385BOLB   C1A33221  15.181  24.081   7.340 -0.1367 -0.0745 -0.1109
 1385BOLB   C2A33222  15.444  24.220   7.172  0.1230 -0.1067 -0.0941
 1385BOLB   C3A33223  15.769  24.590   7.038 -0.2159 -0.0746 -0.2494
 1385BOLB   C4A33224  16.016  24.932   6.892 -0.2429  0.0750  0.5261
 1385BOLB   C1B33225  15.415  23.945   7.713 -0.2807  0.2368 -0.0393
 1385BOLB   C2B33226  15.788  24.350   7.553  0.0960  0.1581 -0.1271
 1385BOLB   C3B33227  16.143  24.348   7.275  0.0319  0.0292 -0.0286
 1385BOLB   C4B33228  16.420  24.096   7.038  0.1025 -0.1261 -0.1659
 1385BOLB   NC233229  18.195  25.847   7.088  0.2390 -0.2201 -0.3284
 1385BOLB   PO233230  18.235  25.789   6.651  0.2935  0.0626 -0.0512
 1385BOLB   GL333231  17.750  25.838   6.537 -0.0122 -0.4376  0.0020
 1385BOLB   GL433232  17.495  25.677   6.377 -0.2104 -0.2262 -0.0608
 1385BOLB   C1C33233  17.424  25.800   6.831 -0.1433  0.1810  0.4110
 1385BOLB   C2C33234  17.001  25.616   7.080 -0.1310  0.0506 -0.1680
 1385BOLB   C3C33235  16.673  25.517   7.070  0.1817 -0.0568 -0.0157
 1385BOLB   C4C33236  16.345  25.316   7.146  0.0504  0.0527  0.2256
 1385BOLB   C1D33237  17.353  25.419   5.979  0.0748 -0.2307 -0.1606
 1385BOLB   C2D33238  17.175  25.006   5.878  0.0300  0.2654  0.0187
 1385BOLB   C3D33239  16.716  24.817   6.020  0.0455 -0.4152  0.0015
 1385BOLB   C4D33240  16.359  24.575   5.906  0.5006  0.0591  0.4261
 1386BOLB   NC133241  12.651  18.586  14.209 -0.2000 -0.0875  0.2212
 1386BOLB   PO133242  12.982  18.807  14.128  0.1460  0.1113 -0.3768
 1386BOLB   GL133243  13.146  18.474  14.353  0.1469 -0.1858 -0.2482
 1386BOLB   GL233244  13.290  18.614  14.607  0.1961 -0.3677 -0.0895
 1386BOLB   C1A33245  13.217  18.126  14.652  0.3004  0.2202  0.2410
 1386BOLB   C2A33246  13.460  17.873  14.761  0.2696 -0.3147  0.3634
 1386BOLB   C3A33247  13.761  17.748  15.004 -0.1018 -0.1902  0.0994
 1386BOLB   C4A33248  13.971  17.904  15.416 -0.1098 -0.0127  0.2099
 1386BOLB   C1B33249  13.597  18.439  14.897 -0.3175 -0.0066 -0.0910
 1386BOLB   C2B33250  13.576  18.141  15.224 -0.1198  0.1066  0.1884
 1386BOLB   C3B33251  13.253  18.158  15.699  0.0494  0.0282  0.0970
 1386BOLB   C4B33252  13.312  18.328  16.157 -0.0296  0.3002  0.0312
 1386BOLB   NC233253  15.492  16.223  15.965 -0.1275  0.1537  0.2922
 1386BOLB   PO233254  15.734  16.297  16.363 -0.0356 -0.0467  0.0368
 1386BOLB   GL333255  15.398  16.685  16.211  0.0050 -0.4338 -0.2065
 1386BOLB   GL433256  15.115  16.665  16.476 -0.0449 -0.4528  0.1063
 1386BOLB   C1C33257  15.323  17.077  16.136  0.0475  0.3325 -0.2390
 1386BOLB   C2C33258  15.176  17.439  15.926  0.0310  0.1343  0.1929
 1386BOLB   C3C33259  14.808  17.738  15.869  0.1492  0.1090 -0.3456
 1386BOLB   C4C33260  14.341  17.805  15.724 -0.2548 -0.0725 -0.2316
 1386BOLB   C1D33261  14.708  16.974  16.261  0.0527  0.0584  0.0343
 1386BOLB   C2D33262  14.377  17.322  16.161 -0.2506  0.1171  0.4094
 1386BOLB   C3D33263  14.013  17.635  16.026 -0.2136 -0.0523  0.3377
 1386BOLB   C4D33264  13.719  17.901  16.120  0.1130 -0.0512  0.0594
 1387BOLB   NC133265   9.746  27.248   6.338  0.3356 -0.1516 -0.1442
 1387BOLB   PO133266  10.032  27.053   6.210  0.2073  0.2090  0.0476
 1387BOLB   GL133267  10.046  27.314   5.816  0.0488 -0.2909  0.1034
 1387BOLB   GL233268  10.405  27.307   5.835 -0.1845  0.1243 -0.1853
 1387BOLB   C1A33269  10.200  27.764   5.608  0.0545  0.0182 -0.2088
 1387BOLB   C2A33270  10.455  28.096   5.423  0.0859  0.4212 -0.1741
 1387BOLB   C3A33271  10.578  28.410   5.200 -0.0741  0.0687 -0.1387
 1387BOLB   C4A33272  10.295  28.786   5.192  0.1770 -0.2089  0.0050
 1387BOLB   C1B33273  10.680  27.498   5.614 -0.0440  0.2041  0.2410
 1387BOLB   C2B33274  10.824  27.878   5.689  0.1183  0.1024 -0.0006
 1387BOLB   C3B33275  10.953  28.028   5.246 -0.2505 -0.1551  0.0578
 1387BOLB   C4B33276  11.365  28.085   5.052 -0.1925  0.0289 -0.0522
 1387BOLB   NC233277  11.531  30.882   4.028  0.3157 -0.1015 -0.2941
 1387BOLB   PO233278  11.488  30.510   3.876  0.0802  0.1933 -0.1085
 1387BOLB   GL333279  11.525  30.112   4.179  0.1351  0.0054  0.3259
 1387BOLB   GL433280  11.318  30.231   4.486  0.2186 -0.0061 -0.3054
 1387BOLB   C1C33281  11.357  29.745   4.549  0.0075 -0.0041  0.0159
 1387BOLB   C2C33282  11.034  29.495   4.717  0.0032  0.2774  0.1861
 1387BOLB   C3C33283  10.783  29.392   5.029  0.1317 -0.0893 -0.1009
 1387BOLB   C4C33284  10.399  29.213   5.206 -0.0963  0.1409  0.1649
 1387BOLB   C1D33285  11.307  30.140   4.906 -0.1829  0.0477  0.2573
 1387BOLB   C2D33286  11.656  30.042   5.253  0.0109  0.1416  0.1190
 1387BOLB   C3D33287  11.763  29.731   5.556 -0.5184  0.3992  0.1356
 1387BOLB   C4D33288  11.590  29.303   5.661 -0.0424  0.1840  0.1477
 1388BOLB   NC133289   1.165  21.368   5.468  0.2648  0.3164  0.0294
 1388BOLB   PO133290   1.023  20.994   5.176 -0.0417 -0.0427  0.3192
 1388BOLB   GL133291   0.675  20.917   4.889 -0.1517 -0.3161  0.1540
 1388BOLB   GL233292   0.444  21.015   5.002  0.1855 -0.4488 -0.1687
 1388BOLB   C1A33293   0.312  20.718   4.645  0.0957  0.0924 -0.0098
 1388BOLB   C2A33294  -0.013  20.790   4.294  0.0493  0.5170  0.2132
 1388BOLB   C3A33295  -0.058  20.854   3.846  0.2373 -0.0931  0.1370
 1388BOLB   C4A33296  -0.334  21.000   3.493 -0.0565  0.0161  0.1310
 1388BOLB   C1B33297   0.210  21.258   4.695 -0.1191 -0.0796 -0.1503
 1388BOLB   C2B33298  -0.138  21.405   4.358  0.0281 -0.1246  0.1251
 1388BOLB   C3B33299  -0.370  21.547   4.024  0.1253  0.3172 -0.3066
 1388BOLB   C4B33300  -0.552  21.424   3.700  0.4282  0.0953 -0.1591
 1388BOLB   NC233301  -0.847  21.353   0.800 -0.0903 -0.0038  0.0782
 1388BOLB   PO233302  -0.948  21.583   1.105  0.1352  0.3001 -0.0309
 1388BOLB   GL333303  -1.029  21.494   1.518 -0.1918  0.3111 -0.0264
 1388BOLB   GL433304  -1.228  21.422   1.804 -0.2891 -0.2850 -0.0099
 1388BOLB   C1C33305  -0.756  21.412   1.925  0.3168  0.0368 -0.0801
 1388BOLB   C2C33306  -0.666  21.356   2.330  0.3168 -0.3250  0.0444
 1388BOLB   C3C33307  -0.371  21.224   2.619 -0.0021 -0.2417  0.1227
 1388BOLB   C4C33308  -0.214  21.190   3.070  0.1495 -0.3209  0.0359
 1388BOLB   C1D33309  -1.166  21.378   2.214  0.1763 -0.0025 -0.1585
 1388BOLB   C2D33310  -1.053  21.448   2.721  0.2650 -0.0614  0.1964
 1388BOLB   C3D33311  -0.799  21.813   3.089  0.0750 -0.0049  0.2922
 1388BOLB   C4D33312  -1.011  22.061   3.532 -0.1619  0.1539 -0.2108
 1389BOLB   NC133313   8.656  27.637  14.583 -0.0764  0.2650  0.1565
 1389BOLB   PO133314   9.027  27.831  14.687 -0.4188  0.0166 -0.1147
 1389BOLB   GL133315   9.089  28.236  14.749 -0.0120 -0.1151  0.3087
 1389BOLB   GL233316   9.454  28.263  14.692 -0.1902  0.3155  0.1505
 1389BOLB   C1A33317   9.175  28.649  14.792 -0.0662  0.2533 -0.0807
 1389BOLB   C2A33318   9.047  28.891  14.632  0.2190 -0.0860 -0.0772
 1389BOLB   C3A33319   8.876  29.332  14.653  0.1395  0.0486 -0.0381
 1389BOLB   C4A33320   8.749  29.712  14.701 -0.0987 -0.1296 -0.2579
 1389BOLB   C1B33321   9.752  28.576  14.809  0.3085 -0.2374 -0.2282
 1389BOLB   C2B33322   9.708  28.996  14.927  0.1012 -0.0217 -0.0513
 1389BOLB   C3B33323   9.263  29.201  14.950  0.3226  0.0228 -0.2000
 1389BOLB   C4B33324   8.773  29.282  15.225  0.1224 -0.0291  0.2372
 1389BOLB   NC233325   9.714  31.887  15.852 -0.2291  0.0150 -0.0958
 1389BOLB   PO233326   9.612  31.941  15.457  0.1248  0.0952  0.0889
 1389BOLB   GL333327   9.537  31.622  15.146  0.0779  0.1204  0.0594
 1389BOLB   GL433328   9.743  31.525  15.145  0.0303 -0.1000  0.1833
 1389BOLB   C1C33329   9.204  31.412  14.861 -0.0505  0.3462  0.3545
 1389BOLB   C2C33330   9.060  30.965  14.838  0.0791  0.0449  0.0579
 1389BOLB   C3C33331   8.859  30.612  14.863  0.0533 -0.1589 -0.2369
 1389BOLB   C4C33332   8.873  30.142  14.872 -0.0905  0.3716  0.2045
 1389BOLB   C1D33333   9.650  31.086  14.968  0.2598  0.2502 -0.1281
 1389BOLB   C2D33334   9.480  30.695  14.838 -0.2051 -0.6464 -0.2890
 1389BOLB   C3D33335   9.295  30.343  14.579 -0.0566  0.1821 -0.0831
 1389BOLB   C4D33336   9.036  30.030  14.339 -0.0896 -0.2643 -0.2435
 1390BOLB   NC133337   2.826  27.874  12.325 -0.2060 -0.0140  0.3110
 1390BOLB   PO133338   2.571  27.838  11.873  0.2454  0.0371 -0.2484
 1390BOLB   GL133339   2.333  28.253  11.795 -0.1223 -0.0628  0.0635
 1390BOLB   GL233340   2.051  28.242  11.597  0.2233 -0.1034 -0.1859
 1390BOLB   C1A33341   2.107  28.574  12.131 -0.1861  0.2019  0.0500
 1390BOLB   C2A33342   1.973  28.897  12.371  0.0046  0.0615 -0.0907
 1390BOLB   C3A33343   1.691  29.196  12.246 -0.1470 -0.3662 -0.1647
 1390BOLB   C4A33344   1.456  29.486  11.910 -0.1926  0.2564 -0.2332
 1390BOLB   C1B33345   1.921  28.637  11.584  0.0065 -0.1382 -0.0945
 1390BOLB   C2B33346   1.970  29.014  11.806  0.0647  0.0849 -0.0912
 1390BOLB   C3B33347   1.985  29.438  11.796  0.4165  0.1209  0.2817
 1390BOLB   C4B33348   2.309  29.735  11.689 -0.4257 -0.1624  0.0756
 1390BOLB   NC233349   0.063  31.089  12.261  0.1197 -0.1467 -0.0437
 1390BOLB   PO233350   0.342  31.293  12.007 -0.2006 -0.1762  0.0682
 1390BOLB   GL333351   0.321  30.980  11.855  0.4331  0.2575  0.0401
 1390BOLB   GL433352   0.498  30.969  11.589 -0.1749  0.2069  0.2101
 1390BOLB   C1C33353   0.489  30.521  11.802  0.0942  0.1312  0.1114
 1390BOLB   C2C33354   0.530  30.269  11.432 -0.1384 -0.0385 -0.1349
 1390BOLB   C3C33355   0.841  29.878  11.383  0.1910  0.0313 -0.0796
 1390BOLB   C4C33356   1.070  29.647  11.576  0.2206 -0.1548  0.0092
 1390BOLB   C1D33357   0.830  30.839  11.799 -0.1305 -0.1141  0.3826
 1390BOLB   C2D33358   0.883  30.618  12.173 -0.1423 -0.1521  0.1734
 1390BOLB   C3D33359   0.970  30.209  12.358  0.2144 -0.1102 -0.2015
 1390BOLB   C4D33360   0.974  29.929  12.582  0.2138 -0.0476  0.3390
 1391BOLB   NC133361  11.672  20.352  16.201 -0.3964  0.1573 -0.1066
 1391BOLB   PO133362  12.004  20.233  16.037 -0.1909 -0.1129 -0.1206
 1391BOLB   GL133363  12.376  20.214  16.334  0.2603  0.2286  0.2488
 1391BOLB   GL233364  12.547  20.046  16.015 -0.3683 -0.0761 -0.3262
 1391BOLB   C1A33365  12.728  20.121  16.630  0.1269  0.1183 -0.0777
 1391BOLB   C2A33366  13.165  20.316  16.895 -0.3520  0.0772  0.2103
 1391BOLB   C3A33367  13.417  20.309  17.175  0.1813 -0.2342 -0.1351
 1391BOLB   C4A33368  13.686  20.265  17.457  0.0800  0.0611 -0.1399
 1391BOLB   C1B33369  12.758  19.757  16.242 -0.1889  0.1221 -0.2956
 1391BOLB   C2B33370  13.093  19.427  16.393 -0.3589 -0.3195  0.0602
 1391BOLB   C3B33371  13.393  19.190  16.541 -0.1406 -0.1684  0.1491
 1391BOLB   C4B33372  13.839  19.104  16.660 -0.2150  0.0680  0.0344
 1391BOLB   NC233373  15.060  19.955  19.267  0.2074  0.4552 -0.1801
 1391BOLB   PO233374  14.733  19.718  19.580  0.1556 -0.2053  0.1724
 1391BOLB   GL333375  14.560  19.912  19.194 -0.1370  0.0977 -0.0839
 1391BOLB   GL433376  14.511  20.223  19.109 -0.0417 -0.0317 -0.2481
 1391BOLB   C1C33377  14.647  19.866  18.751 -0.1723 -0.1963 -0.1886
 1391BOLB   C2C33378  14.648  19.900  18.384 -0.0118 -0.2266  0.1087
 1391BOLB   C3C33379  14.245  19.819  18.059 -0.0043 -0.0363 -0.0521
 1391BOLB   C4C33380  13.885  19.960  17.784 -0.1073 -0.0762 -0.3604
 1391BOLB   C1D33381  14.197  20.422  18.907  0.1839  0.2547 -0.2522
 1391BOLB   C2D33382  13.875  20.639  18.686  0.2298  0.0503  0.1538
 1391BOLB   C3D33383  13.573  20.740  18.422  0.0081 -0.0479  0.0142
 1391BOLB   C4D33384  13.178  20.877  18.408  0.0583  0.0150 -0.2970
 1392BOLB   NC133385   1.789  24.900  15.869 -0.3031 -0.2000  0.0829
 1392BOLB   PO133386   1.389  24.731  15.801 -0.0762 -0.2429  0.0770
 1392BOLB   GL133387   1.322  24.999  16.194 -0.0767  0.0671  0.2409
 1392BOLB   GL233388   1.085  24.831  16.282  0.0933  0.1630 -0.1847
 1392BOLB   C1A33389   1.226  25.417  16.117  0.4308 -0.0428 -0.2485
 1392BOLB   C2A33390   1.208  25.765  16.305  0.2141  0.1184  0.0377
 1392BOLB   C3A33391   0.955  26.095  16.112  0.0108 -0.1065  0.0718
 1392BOLB   C4A33392   0.859  26.471  16.316 -0.2977  0.1562 -0.1909
 1392BOLB   C1B33393   0.777  25.187  16.303  0.1472 -0.0462 -0.2516
 1392BOLB   C2B33394   0.594  25.337  16.707  0.0429 -0.1816 -0.1421
 1392BOLB   C3B33395   0.604  25.679  17.072  0.4804 -0.0057 -0.1540
 1392BOLB   C4B33396   0.563  26.154  17.135 -0.2503  0.2597 -0.1329
 1392BOLB   NC233397  -1.017  27.445  17.420  0.0676  0.2998 -0.1693
 1392BOLB   PO233398  -0.614  27.563  17.492 -0.3477 -0.1976  0.2102
 1392BOLB   GL333399  -0.470  27.237  17.265 -0.0936 -0.1138  0.0113
 1392BOLB   GL433400  -0.481  26.901  17.372 -0.0628 -0.0663  0.3287
 1392BOLB   C1C33401  -0.087  27.222  17.015 -0.1242  0.1688  0.0500
 1392BOLB   C2C33402   0.356  27.259  16.860  0.1204 -0.2093  0.1902
 1392BOLB   C3C33403   0.765  27.186  16.740 -0.0018 -0.1162 -0.0372
 1392BOLB   C4C33404   0.902  26.852  16.497 -0.0695 -0.3561 -0.2629
 1392BOLB   C1D33405  -0.288  26.824  16.962 -0.0468  0.0862  0.0657
 1392BOLB   C2D33406   0.166  26.804  16.804 -0.0770  0.2816  0.0363
 1392BOLB   C3D33407   0.346  26.869  16.408 -0.0111 -0.0951 -0.1720
 1392BOLB   C4D33408   0.637  26.840  16.093  0.1705  0.1216  0.2244
 1393BOLB   NC133409  14.650  24.176   9.015  0.2249  0.2411 -0.1747
 1393BOLB   PO133410  14.480  24.563   9.129 -0.3438 -0.0776  0.2454
 1393BOLB   GL133411  14.783  24.712   8.941 -0.2693  0.0117  0.2096
 1393BOLB   GL233412  14.949  24.894   9.144  0.0150 -0.0276  0.1020
 1393BOLB   C1A33413  15.175  24.780   8.726 -0.1397 -0.1524  0.0119
 1393BOLB   C2A33414  15.601  24.945   8.852  0.3187 -0.0286  0.2356
 1393BOLB   C3A33415  15.829  25.267   8.796 -0.0512 -0.0399  0.2757
 1393BOLB   C4A33416  16.007  25.288   8.453  0.2071 -0.0722  0.1704
 1393BOLB   C1B33417  15.019  25.373   9.106  0.0900 -0.1197 -0.0002
 1393BOLB   C2B33418  15.423  25.669   9.041  0.4121  0.0656  0.0062
 1393BOLB   C3B33419  15.885  25.736   9.203  0.2310  0.3514  0.1481
 1393BOLB   C4B33420  16.350  25.867   9.220 -0.0831  0.0517 -0.4657
 1393BOLB   NC233421  18.058  26.606   8.409  0.0315 -0.0508 -0.0642
 1393BOLB   PO233422  17.720  26.966   8.386  0.1521 -0.2043 -0.3753
 1393BOLB   GL333423  17.297  26.746   8.266  0.0117 -0.1021  0.1255
 1393BOLB   GL433424  17.233  26.758   7.858 -0.0339 -0.1059 -0.0004
 1393BOLB   C1C33425  16.877  26.465   8.102 -0.0584  0.1830  0.0612
 1393BOLB   C2C33426  16.764  26.048   8.310  0.0038  0.0009  0.0998
 1393BOLB   C3C33427  16.550  25.829   8.125  0.0781 -0.0011  0.0466
 1393BOLB   C4C33428  16.213  25.548   8.153  0.0056 -0.1313  0.0947
 1393BOLB   C1D33429  16.860  26.989   7.998 -0.1642 -0.0193 -0.2996
 1393BOLB   C2D33430  16.417  26.877   8.136  0.3168 -0.2703 -0.0731
 1393BOLB   C3D33431  15.895  26.707   8.192 -0.2069 -0.1204 -0.2237
 1393BOLB   C4D33432  15.510  26.683   7.876 -0.1901 -0.2109  0.2672
 1394BOLB   NC133433  12.258  32.147  12.498  0.1147 -0.3445  0.0489
 1394BOLB   PO133434  12.011  31.882  12.126 -0.1661 -0.2563 -0.2696
 1394BOLB   GL133435  11.847  31.473  12.073  0.1536 -0.0855 -0.0389
 1394BOLB   GL233436  11.829  31.392  11.820  0.3372 -0.3115 -0.1404
 1394BOLB   C1A33437  11.819  31.071  12.304 -0.0906  0.3283 -0.1077
 1394BOLB   C2A33438  11.669  30.567  12.463 -0.1366 -0.2037  0.0487
 1394BOLB   C3A33439  11.664  30.208  12.269 -0.0146 -0.0390  0.0955
 1394BOLB   C4A33440  11.657  29.833  12.345  0.2222  0.1668 -0.1668
 1394BOLB   C1B33441  12.009  30.997  11.813  0.0548 -0.3515 -0.2930
 1394BOLB   C2B33442  11.956  30.655  12.076  0.0536  0.0507  0.1665
 1394BOLB   C3B33443  12.001  30.293  11.959  0.0746 -0.1190  0.0870
 1394BOLB   C4B33444  11.978  29.840  11.961 -0.1640  0.1691 -0.0560
 1394BOLB   NC233445  10.577  28.109  11.845 -0.2216 -0.0306  0.1083
 1394BOLB   PO233446  10.943  27.796  11.816  0.1619  0.2882  0.3848
 1394BOLB   GL333447  11.034  28.037  12.257  0.3527 -0.0798  0.1792
 1394BOLB   GL433448  11.076  28.341  12.123 -0.0522  0.2385  0.0062
 1394BOLB   C1C33449  10.987  28.353  12.588  0.4899  0.3138  0.1722
 1394BOLB   C2C33450  11.003  28.716  12.833 -0.1743  0.2540 -0.0382
 1394BOLB   C3C33451  11.270  29.114  12.785 -0.0393  0.0442  0.2136
 1394BOLB   C4C33452  11.347  29.464  12.530 -0.0440 -0.0729 -0.0800
 1394BOLB   C1D33453  11.193  28.753  12.312  0.2493  0.1603 -0.0102
 1394BOLB   C2D33454  11.559  28.999  12.344  0.1760  0.1630  0.0784
 1394BOLB   C3D33455  11.772  29.157  12.663  0.1127 -0.3368  0.2172
 1394BOLB   C4D33456  11.842  29.611  12.798 -0.0028  0.4802  0.0862
 1395BOLB   NC133457   6.420  15.075  15.260 -0.0384  0.3202 -0.3964
 1395BOLB   PO133458   6.062  15.278  15.464 -0.0648 -0.1374 -0.2068
 1395BOLB   GL133459   6.128  14.992  15.697  0.1732 -0.2767 -0.0893
 1395BOLB   GL233460   6.510  14.931  15.692 -0.3408 -0.0469 -0.4256
 1395BOLB   C1A33461   6.197  14.738  15.974 -0.1484 -0.1518 -0.2908
 1395BOLB   C2A33462   6.124  14.632  16.424  0.0864  0.0753 -0.1538
 1395BOLB   C3A33463   5.960  14.266  16.586  0.0538  0.0280  0.0239
 1395BOLB   C4A33464   6.193  13.943  16.929 -0.1218  0.0520  0.0154
 1395BOLB   C1B33465   6.634  14.540  15.861  0.1488 -0.0301  0.1839
 1395BOLB   C2B33466   6.679  14.106  15.895  0.1780  0.0429  0.2966
 1395BOLB   C3B33467   6.601  13.806  16.021 -0.1025  0.0863 -0.0561
 1395BOLB   C4B33468   6.640  13.614  16.419 -0.3177  0.0049 -0.2260
 1395BOLB   NC233469   6.167  11.204  17.161  0.0374  0.1888 -0.0238
 1395BOLB   PO233470   6.112  11.609  17.260  0.2306 -0.0591 -0.1219
 1395BOLB   GL333471   6.246  11.986  17.165 -0.0828  0.2350 -0.5314
 1395BOLB   GL433472   6.135  12.359  17.426 -0.2378  0.0128 -0.0594
 1395BOLB   C1C33473   6.480  12.314  17.006  0.1416  0.1367 -0.0492
 1395BOLB   C2C33474   6.519  12.808  17.077  0.1230 -0.3123  0.1872
 1395BOLB   C3C33475   6.490  13.149  16.912 -0.1088  0.3331 -0.0835
 1395BOLB   C4C33476   6.296  13.532  17.040 -0.1261  0.0439  0.1792
 1395BOLB   C1D33477   6.131  12.691  17.774 -0.0224 -0.4290  0.0352
 1395BOLB   C2D33478   5.701  12.893  17.881 -0.1792 -0.1928 -0.0649
 1395BOLB   C3D33479   5.445  13.222  17.857 -0.1252  0.1733  0.0972
 1395BOLB   C4D33480   5.286  13.485  17.667  0.1795 -0.1037  0.0424
 1396BOLB   NC133481   7.654  24.073  17.620 -0.0969 -0.0587 -0.0557
 1396BOLB   PO133482   8.007  24.308  17.794 -0.1174 -0.0427  0.0179
 1396BOLB   GL133483   8.028  24.380  18.431  0.1257  0.0618  0.1276
 1396BOLB   GL233484   8.020  24.190  18.666  0.2762 -0.2234 -0.1042
 1396BOLB   C1A33485   8.247  24.554  18.905  0.2038 -0.0563  0.2620
 1396BOLB   C2A33486   8.226  24.914  19.193  0.3936 -0.2592 -0.0278
 1396BOLB   C3A33487   8.299  24.856  19.601  0.1830  0.0038 -0.0714
 1396BOLB   C4A33488   8.501  25.083  19.917 -0.0278 -0.1510 -0.0376
 1396BOLB   C1B33489   7.827  24.372  19.058  0.3141 -0.1414  0.0915
 1396BOLB   C2B33490   7.888  24.568  19.444  0.4108 -0.1990  0.1217
 1396BOLB   C3B33491   7.953  24.431  19.893  0.1722 -0.1101  0.2794
 1396BOLB   C4B33492   8.240  24.672  20.171 -0.0223  0.1629  0.0053
 1396BOLB   NC233493  10.003  26.162  22.142 -0.2959  0.1587 -0.2627
 1396BOLB   PO233494  10.106  25.943  21.743 -0.0558 -0.0357  0.2182
 1396BOLB   GL333495  10.141  25.765  21.417 -0.0195  0.1172  0.0535
 1396BOLB   GL433496  10.293  25.494  21.433 -0.0916 -0.0968  0.0930
 1396BOLB   C1C33497   9.934  25.612  21.006  0.2338  0.1620 -0.0609
 1396BOLB   C2C33498   9.574  25.636  20.615 -0.0081 -0.0779  0.1283
 1396BOLB   C3C33499   9.155  25.506  20.449  0.1860 -0.0775 -0.1302
 1396BOLB   C4C33500   8.800  25.373  20.273 -0.1889  0.2267  0.2531
 1396BOLB   C1D33501  10.345  25.256  21.045  0.1765  0.1983 -0.1327
 1396BOLB   C2D33502  10.247  24.972  20.661 -0.1327  0.0479  0.2499
 1396BOLB   C3D33503  10.179  25.023  20.229  0.0092 -0.3178  0.2776
 1396BOLB   C4D33504  10.409  24.967  19.771  0.3382 -0.4359  0.1301
 1397BOLB   NC133505  10.799  15.012  12.107 -0.2202  0.0973  0.4041
 1397BOLB   PO133506  10.803  14.740  11.796  0.4751  0.2085  0.1617
 1397BOLB   GL133507  11.090  14.442  11.848  0.3866 -0.1676 -0.0266
 1397BOLB   GL233508  11.320  14.538  12.026  0.3468  0.1022 -0.4026
 1397BOLB   C1A33509  11.059  14.010  11.999 -0.3204  0.0371 -0.0619
 1397BOLB   C2A33510  11.304  13.635  12.196 -0.1492 -0.0307  0.0640
 1397BOLB   C3A33511  11.344  13.264  12.453  0.0139 -0.1371 -0.0251
 1397BOLB   C4A33512  11.556  12.851  12.484 -0.0072 -0.1348 -0.0163
 1397BOLB   C1B33513  11.565  14.257  11.927 -0.0685 -0.0050  0.2242
 1397BOLB   C2B33514  11.786  13.847  11.929  0.3353 -0.1892  0.2585
 1397BOLB   C3B33515  12.122  13.652  12.035 -0.0010  0.2415  0.1543
 1397BOLB   C4B33516  12.305  13.505  12.329 -0.1100 -0.2199  0.0157
 1397BOLB   NC233517  12.078  10.818  13.641  0.0939  0.1239  0.1259
 1397BOLB   PO233518  11.836  11.237  13.542  0.1750  0.0102  0.0639
 1397BOLB   GL333519  11.527  11.519  13.572  0.1012  0.2665 -0.0116
 1397BOLB   GL433520  11.491  11.753  13.913 -0.1739 -0.2796 -0.1392
 1397BOLB   C1C33521  11.215  11.721  13.369  0.0737  0.1758  0.0658
 1397BOLB   C2C33522  11.203  11.641  12.915 -0.0265  0.0572  0.1611
 1397BOLB   C3C33523  11.257  12.026  12.516  0.0044  0.3471  0.3009
 1397BOLB   C4C33524  11.573  12.408  12.449  0.0485  0.1434 -0.0529
 1397BOLB   C1D33525  11.625  12.103  13.951 -0.4428 -0.2247 -0.1250
 1397BOLB   C2D33526  11.951  12.390  13.816  0.0503  0.3530 -0.0378
 1397BOLB   C3D33527  12.324  12.442  13.801  0.0838  0.4325  0.0259
 1397BOLB   C4D33528  12.536  12.347  13.461  0.1224  0.1149 -0.0844
 1398BOLB   NC133529   2.265  20.355  17.742 -0.0878  0.1846 -0.2356
 1398BOLB   PO133530   2.523  20.074  18.062  0.0258  0.4142 -0.1111
 1398BOLB   GL133531   2.366  19.942  18.382  0.2690  0.2839 -0.0910
 1398BOLB   GL233532   2.442  19.627  18.418 -0.0243  0.0263 -0.2471
 1398BOLB   C1A33533   2.404  20.069  18.838 -0.0003  0.0149  0.2115
 1398BOLB   C2A33534   2.245  20.091  19.233 -0.1187 -0.0189 -0.0476
 1398BOLB   C3A33535   2.237  19.997  19.642  0.1153  0.1607  0.0787
 1398BOLB   C4A33536   2.258  19.666  19.941 -0.0458 -0.0575 -0.0012
 1398BOLB   C1B33537   2.245  19.400  18.692  0.0997  0.2864 -0.0378
 1398BOLB   C2B33538   1.861  19.264  18.939  0.1050 -0.3447 -0.0927
 1398BOLB   C3B33539   1.612  18.988  19.149 -0.1153 -0.0535 -0.0609
 1398BOLB   C4B33540   1.136  18.919  19.189  0.1064  0.2141 -0.3080
 1398BOLB   NC233541   2.488  19.244  22.146 -0.1765 -0.1875  0.2354
 1398BOLB   PO233542   2.653  19.686  22.214 -0.2675 -0.1208 -0.1114
 1398BOLB   GL333543   2.677  19.950  21.789 -0.0342 -0.0120 -0.0864
 1398BOLB   GL433544   2.422  20.077  21.532 -0.4034  0.1545  0.1877
 1398BOLB   C1C33545   2.842  19.774  21.396 -0.0090  0.0997  0.1650
 1398BOLB   C2C33546   2.584  19.765  21.051 -0.0527  0.2514  0.3017
 1398BOLB   C3C33547   2.338  19.744  20.733  0.1603 -0.1501  0.0839
 1398BOLB   C4C33548   2.203  19.528  20.312 -0.0225 -0.2049  0.1160
 1398BOLB   C1D33549   2.351  20.236  21.102  0.0358  0.3723  0.0758
 1398BOLB   C2D33550   2.511  20.352  20.672 -0.1345 -0.1867 -0.1092
 1398BOLB   C3D33551   2.829  20.435  20.330 -0.2591  0.0609 -0.1123
 1398BOLB   C4D33552   3.129  20.090  20.150  0.0836  0.1172  0.0932
 1399BOLB   NC133553  18.195  18.666  12.767 -0.0025  0.4695 -0.0135
 1399BOLB   PO133554  18.392  18.455  12.460  0.2548 -0.0681 -0.0054
 1399BOLB   GL133555  18.029  18.722  12.274  0.1150 -0.1695 -0.2167
 1399BOLB   GL233556  18.010  18.547  12.028  0.0778  0.1990 -0.3653
 1399BOLB   C1A33557  17.667  19.017  12.260  0.2036 -0.0561 -0.3985
 1399BOLB   C2A33558  17.378  19.063  11.959 -0.1119  0.4367 -0.1040
 1399BOLB   C3A33559  16.898  18.900  11.888  0.1727 -0.2687 -0.0881
 1399BOLB   C4A33560  16.419  19.192  12.053 -0.0350  0.1434  0.0238
 1399BOLB   C1B33561  17.641  18.664  11.751 -0.2406 -0.2396 -0.0688
 1399BOLB   C2B33562  17.223  18.642  11.624 -0.0146 -0.2568 -0.0345
 1399BOLB   C3B33563  16.898  18.311  11.660  0.0551 -0.0964 -0.0232
 1399BOLB   C4B33564  16.855  17.871  11.813 -0.0551 -0.0591  0.1152
 1399BOLB   NC233565  14.263  20.569  11.352 -0.2253  0.0441 -0.1243
 1399BOLB   PO233566  14.550  20.308  11.687 -0.2069  0.0304 -0.1388
 1399BOLB   GL333567  15.036  20.248  11.584 -0.2198 -0.2592 -0.0604
 1399BOLB   GL433568  15.121  20.415  11.435 -0.0069 -0.0545  0.0161
 1399BOLB   C1C33569  15.410  20.107  11.820  0.2580 -0.0415 -0.2303
 1399BOLB   C2C33570  15.705  20.004  12.229  0.3546  0.5090  0.0498
 1399BOLB   C3C33571  15.879  19.640  12.317 -0.1610 -0.2352  0.1025
 1399BOLB   C4C33572  16.006  19.225  12.217  0.0377 -0.1962 -0.1383
 1399BOLB   C1D33573  15.509  20.226  11.367 -0.1373  0.0779 -0.1822
 1399BOLB   C2D33574  15.907  20.096  11.504  0.0522  0.2610  0.0436
 1399BOLB   C3D33575  16.235  20.005  11.387 -0.1317  0.1802  0.2612
 1399BOLB   C4D33576  16.480  19.910  11.004  0.0921  0.2054  0.0115
 1400BOLB   NC133577  10.548  25.025  17.439 -0.0141  0.1263  0.1459
 1400BOLB   PO133578  10.819  24.987  17.087  0.0746 -0.0734  0.1695
 1400BOLB   GL133579  10.921  25.308  17.229 -0.1390 -0.1473 -0.0366
 1400BOLB   GL233580  10.708  25.549  17.436 -0.1304  0.0148 -0.0355
 1400BOLB   C1A33581  11.213  25.406  17.385  0.0817 -0.1633  0.0384
 1400BOLB   C2A33582  11.206  25.551  17.804 -0.2467 -0.0230 -0.3008
 1400BOLB   C3A33583  11.375  25.369  18.141  0.2859 -0.1633 -0.0481
 1400BOLB   C4A33584  11.628  25.261  18.485  0.0937 -0.1256  0.0536
 1400BOLB   C1B33585  10.629  25.671  17.835  0.4644  0.2390  0.0188
 1400BOLB   C2B33586  10.850  25.748  18.328 -0.0190 -0.1329 -0.0522
 1400BOLB   C3B33587  11.037  25.958  18.750 -0.3475  0.1817  0.0639
 1400BOLB   C4B33588  11.029  25.958  19.237  0.1513  0.2398  0.1205
 1400BOLB   NC233589  13.565  25.395  19.904 -0.0692 -0.0922 -0.2252
 1400BOLB   PO233590  13.386  25.790  20.016 -0.1418 -0.0977 -0.0928
 1400BOLB   GL333591  13.187  25.560  19.631 -0.3681 -0.2807 -0.0216
 1400BOLB   GL433592  13.181  25.808  19.401  0.0492  0.1489 -0.0595
 1400BOLB   C1C33593  12.949  25.338  19.485  0.2011 -0.0431  0.0537
 1400BOLB   C2C33594  12.775  25.333  19.073  0.3219 -0.1348  0.1815
 1400BOLB   C3C33595  12.444  25.377  18.760 -0.0932  0.0391  0.1838
 1400BOLB   C4C33596  12.002  25.328  18.577  0.0552 -0.0567  0.2995
 1400BOLB   C1D33597  13.200  25.597  19.050  0.1028 -0.0047  0.0703
 1400BOLB   C2D33598  13.075  25.549  18.649 -0.0859 -0.1876  0.1429
 1400BOLB   C3D33599  12.940  25.454  18.236 -0.2095  0.3123  0.1057
 1400BOLB   C4D33600  12.697  25.093  18.161 -0.0338  0.0275  0.1388
 1401BOLB   NC133601   3.291  19.841   3.447 -0.1590  0.1128 -0.0607
 1401BOLB   PO133602   3.122  19.720   2.963 -0.2587 -0.1156 -0.2157
 1401BOLB   GL133603   2.858  19.641   2.573  0.0493  0.3546  0.1866
 1401BOLB   GL233604   2.506  19.583   2.641  0.2043  0.1283 -0.0308
 1401BOLB   C1A33605   2.716  19.751   2.142  0.1000  0.2338 -0.1252
 1401BOLB   C2A33606   2.460  19.697   1.779  0.1417  0.2885 -0.2057
 1401BOLB   C3A33607   2.428  19.528   1.337  0.3192 -0.1177 -0.2413
 1401BOLB   C4A33608   2.200  19.515   1.055  0.1390 -0.2773  0.0938
 1401BOLB   C1B33609   2.200  19.668   2.192  0.1321 -0.1873 -0.1152
 1401BOLB   C2B33610   1.950  19.497   1.896 -0.1279  0.0862 -0.1918
 1401BOLB   C3B33611   1.878  19.239   1.581  0.3046  0.0951 -0.0200
 1401BOLB   C4B33612   1.873  19.063   1.188  0.0391  0.0117 -0.2216
 1401BOLB   NC233613   1.238  19.185  -1.173 -0.1190  0.0394 -0.1957
 1401BOLB   PO233614   1.323  19.489  -0.951  0.2563  0.2503 -0.0624
 1401BOLB   GL333615   1.536  19.632  -0.526  0.1320 -0.1192 -0.0805
 1401BOLB   GL433616   1.343  19.769  -0.188 -0.0158  0.3135 -0.0172
 1401BOLB   C1C33617   1.721  19.322  -0.175  0.0169  0.1353  0.2269
 1401BOLB   C2C33618   1.736  19.242   0.310  0.1515 -0.1188 -0.0587
 1401BOLB   C3C33619   1.605  19.493   0.552  0.0654 -0.0445 -0.1478
 1401BOLB   C4C33620   1.846  19.478   0.942  0.1595  0.1184  0.2655
 1401BOLB   C1D33621   1.656  19.723   0.089 -0.0793 -0.0321  0.2411
 1401BOLB   C2D33622   2.111  19.513   0.102  0.0996  0.2497  0.1050
 1401BOLB   C3D33623   2.548  19.658   0.117 -0.1206  0.1427  0.0913
 1401BOLB   C4D33624   2.814  19.890  -0.043  0.1336  0.0773  0.0751
 1402BOLB   NC133625   2.047  25.493   5.811  0.3812 -0.0268 -0.1699
 1402BOLB   PO133626   1.774  25.821   5.871  0.0836 -0.1058 -0.1623
 1402BOLB   GL133627   1.444  25.980   5.727  0.3933 -0.2151  0.0964
 1402BOLB   GL233628   1.198  25.785   5.665  0.1504  0.0900 -0.0957
 1402BOLB   C1A33629   1.427  26.222   5.410  0.3251 -0.0820  0.1714
 1402BOLB   C2A33630   1.268  26.508   5.222 -0.1336 -0.0155  0.0894
 1402BOLB   C3A33631   1.451  26.810   4.932  0.1834  0.2886 -0.1784
 1402BOLB   C4A33632   1.400  27.159   4.638 -0.4058  0.2072 -0.0023
 1402BOLB   C1B33633   0.970  26.198   5.606 -0.0197  0.1252  0.2384
 1402BOLB   C2B33634   0.843  26.656   5.715  0.2957  0.1531  0.2244
 1402BOLB   C3B33635   0.706  27.044   5.720 -0.1743 -0.0064 -0.3175
 1402BOLB   C4B33636   0.329  27.246   5.781  0.0068  0.1223 -0.2137
 1402BOLB   NC233637  -0.654  28.792   3.921 -0.1963 -0.2321  0.0403
 1402BOLB   PO233638  -0.670  28.596   4.320  0.1426  0.0302 -0.0300
 1402BOLB   GL333639  -0.552  28.245   4.457  0.1996 -0.1368 -0.1023
 1402BOLB   GL433640  -0.557  27.898   4.368 -0.0652 -0.0316  0.0023
 1402BOLB   C1C33641  -0.130  28.138   4.451  0.2225  0.4792 -0.0589
 1402BOLB   C2C33642   0.280  27.792   4.480  0.1113  0.1863  0.0984
 1402BOLB   C3C33643   0.589  27.506   4.423  0.4443  0.0136 -0.0886
 1402BOLB   C4C33644   0.955  27.383   4.491 -0.0880 -0.2510  0.0442
 1402BOLB   C1D33645  -0.219  27.668   4.595 -0.0419 -0.0269  0.0098
 1402BOLB   C2D33646  -0.044  27.303   4.910  0.2030 -0.0421  0.0949
 1402BOLB   C3D33647   0.278  26.934   5.054 -0.0873 -0.2008 -0.1437
 1402BOLB   C4D33648   0.404  26.807   5.431  0.2352  0.2054  0.0574
 1403BOLB   NC133649   6.072  26.428  16.609 -0.0028  0.1709  0.1268
 1403BOLB   PO133650   5.753  26.594  16.814 -0.1984  0.0200 -0.0735
 1403BOLB   GL133651   5.463  26.784  17.026  0.2075 -0.0999 -0.3250
 1403BOLB   GL233652   5.201  27.047  16.926  0.1100  0.3295 -0.0684
 1403BOLB   C1A33653   5.344  26.979  17.418 -0.1422 -0.1304  0.0536
 1403BOLB   C2A33654   5.199  27.214  17.674  0.1376  0.0501 -0.1846
 1403BOLB   C3A33655   5.382  27.493  18.008 -0.2593  0.2202 -0.1156
 1403BOLB   C4A33656   5.511  27.953  18.164  0.2434  0.3951 -0.1509
 1403BOLB   C1B33657   4.899  27.312  17.139 -0.1501  0.1405 -0.2371
 1403BOLB   C2B33658   4.726  27.295  17.497  0.0878  0.1206 -0.1915
 1403BOLB   C3B33659   4.755  27.308  17.880  0.2035 -0.3290 -0.3786
 1403BOLB   C4B33660   4.621  27.198  18.329 -0.1117 -0.5808 -0.1485
 1403BOLB   NC233661   6.840  30.062  19.815 -0.0257 -0.2021  0.0802
 1403BOLB   PO233662   6.752  29.668  19.660  0.0765  0.0205  0.0210
 1403BOLB   GL333663   6.504  29.389  19.398 -0.2850  0.4179 -0.4351
 1403BOLB   GL433664   6.748  29.463  19.192  0.2551 -0.0818  0.0518
 1403BOLB   C1C33665   6.203  29.009  19.335 -0.1663 -0.1746 -0.0030
 1403BOLB   C2C33666   6.160  28.760  18.943  0.1688  0.2780  0.2020
 1403BOLB   C3C33667   5.943  28.586  18.619 -0.2459 -0.1612  0.2324
 1403BOLB   C4C33668   5.688  28.324  18.270 -0.0856  0.0589  0.3305
 1403BOLB   C1D33669   6.580  29.102  19.009 -0.0897  0.2601 -0.0967
 1403BOLB   C2D33670   6.774  28.760  18.781 -0.1501 -0.0976 -0.1107
 1403BOLB   C3D33671   7.226  28.551  18.771  0.1594 -0.0379 -0.0592
 1403BOLB   C4D33672   7.681  28.582  18.635 -0.0669  0.1686 -0.0726
 1404BOLB   NC133673   0.017  25.177  12.541 -0.2429  0.0418  0.2242
 1404BOLB   PO133674  -0.050  25.297  12.907  0.1646 -0.1429  0.3036
 1404BOLB   GL133675  -0.325  25.289  13.271  0.1657  0.1691 -0.0563
 1404BOLB   GL233676  -0.282  25.202  13.714  0.1432 -0.0863 -0.1575
 1404BOLB   C1A33677  -0.685  25.408  13.437  0.1320  0.2091  0.3980
 1404BOLB   C2A33678  -1.121  25.536  13.543 -0.1582  0.0014  0.1666
 1404BOLB   C3A33679  -1.369  25.626  13.901  0.1615  0.1695  0.1270
 1404BOLB   C4A33680  -1.630  25.905  14.144 -0.2429 -0.1517  0.0679
 1404BOLB   C1B33681  -0.556  25.501  13.957 -0.2364 -0.1276 -0.2366
 1404BOLB   C2B33682  -0.939  25.718  14.141 -0.1995  0.0455 -0.0870
 1404BOLB   C3B33683  -1.226  26.048  14.333 -0.3473  0.1576  0.0278
 1404BOLB   C4B33684  -1.395  26.407  14.594  0.2319 -0.1481  0.0468
 1404BOLB   NC233685  -2.252  27.134  16.052  0.3585  0.3174 -0.0084
 1404BOLB   PO233686  -2.559  26.915  15.757  0.0819  0.2526  0.2214
 1404BOLB   GL333687  -2.689  26.690  15.401  0.0588  0.0059 -0.0404
 1404BOLB   GL433688  -2.748  26.401  15.537  0.2484 -0.3196 -0.0704
 1404BOLB   C1C33689  -2.451  26.674  15.037 -0.1682 -0.0119  0.0088
 1404BOLB   C2C33690  -2.244  26.507  14.814  0.2620  0.0493  0.1428
 1404BOLB   C3C33691  -2.201  26.279  14.486 -0.2508 -0.0251  0.3563
 1404BOLB   C4C33692  -1.768  26.172  14.482  0.1820  0.1420  0.0304
 1404BOLB   C1D33693  -2.337  26.269  15.362  0.0486 -0.3075  0.4612
 1404BOLB   C2D33694  -1.982  26.257  15.418 -0.1105  0.0452  0.2348
 1404BOLB   C3D33695  -1.670  26.376  15.715 -0.3397  0.2964  0.1767
 1404BOLB   C4D33696  -1.655  26.657  16.032 -0.1667  0.1312 -0.0600
 1405BOLB   NC133697   6.132  19.585   2.080 -0.0724 -0.0980  0.3362
 1405BOLB   PO133698   6.468  19.322   2.030 -0.2941 -0.1045  0.2036
 1405BOLB   GL133699   6.357  19.243   1.671 -0.3822  0.0610  0.1284
 1405BOLB   GL233700   6.500  18.997   1.601 -0.1531  0.2267 -0.2069
 1405BOLB   C1A33701   6.132  19.368   1.327 -0.0715  0.1063  0.1502
 1405BOLB   C2A33702   6.285  19.598   1.003 -0.0449 -0.2672 -0.3084
 1405BOLB   C3A33703   6.032  19.854   0.864 -0.0356  0.2314 -0.1742
 1405BOLB   C4A33704   5.974  20.159   0.483 -0.0183 -0.0271 -0.2522
 1405BOLB   C1B33705   6.426  18.580   1.211 -0.1622 -0.2414  0.0254
 1405BOLB   C2B33706   6.133  18.351   1.003 -0.0998 -0.0830 -0.0523
 1405BOLB   C3B33707   5.933  18.183   0.743  0.1904 -0.1743  0.2073
 1405BOLB   C4B33708   5.844  17.997   0.303 -0.1069  0.0462 -0.3376
 1405BOLB   NC233709   5.871  19.733  -1.701 -0.2043  0.3078  0.0744
 1405BOLB   PO233710   6.136  20.059  -1.745 -0.0170  0.1518  0.0595
 1405BOLB   GL333711   6.159  20.213  -1.355 -0.0144 -0.1501  0.0249
 1405BOLB   GL433712   6.467  20.306  -1.274  0.1882  0.0989 -0.1774
 1405BOLB   C1C33713   6.066  19.991  -1.107  0.0858  0.3444 -0.2653
 1405BOLB   C2C33714   5.983  19.900  -0.745 -0.0170 -0.2708 -0.2957
 1405BOLB   C3C33715   6.017  19.997  -0.381  0.0271 -0.3192 -0.2489
 1405BOLB   C4C33716   6.018  20.144  -0.006  0.0617 -0.2080  0.1764
 1405BOLB   C1D33717   6.404  20.286  -0.863  0.2610  0.5506  0.1961
 1405BOLB   C2D33718   6.334  20.400  -0.388 -0.0363 -0.2855  0.0441
 1405BOLB   C3D33719   6.003  20.616  -0.057 -0.0892  0.0689  0.0405
 1405BOLB   C4D33720   5.875  20.680   0.330  0.2241  0.2443  0.1713
 1406BOLB   NC133721  11.116  19.809   3.368  0.3114  0.2052  0.0804
 1406BOLB   PO133722  11.056  20.159   3.034  0.0787  0.0567 -0.1747
 1406BOLB   GL133723  11.078  20.332   2.592 -0.0725  0.1375  0.0641
 1406BOLB   GL233724  10.944  20.554   2.327 -0.3640 -0.0346 -0.0163
 1406BOLB   C1A33725  11.214  20.150   2.273 -0.3992  0.0773  0.0668
 1406BOLB   C2A33726  11.153  20.368   1.903 -0.4617 -0.1079 -0.3719
 1406BOLB   C3A33727  11.485  20.518   1.613  0.1827  0.1311  0.2774
 1406BOLB   C4A33728  11.783  20.474   1.186 -0.3204  0.0556  0.1623
 1406BOLB   C1B33729  10.963  20.806   1.855  0.4012  0.0526  0.1766
 1406BOLB   C2B33730  10.897  20.649   1.436  0.3234  0.1090  0.2018
 1406BOLB   C3B33731  11.056  20.359   1.218 -0.3696 -0.0194  0.2086
 1406BOLB   C4B33732  11.293  20.426   0.921  0.2101  0.2563  0.1362
 1406BOLB   NC233733  13.406  19.830  -1.085  0.0593 -0.1538 -0.0317
 1406BOLB   PO233734  13.357  19.704  -0.767  0.0956  0.1700  0.4132
 1406BOLB   GL333735  13.161  19.788  -0.381  0.0032  0.0914 -0.1060
 1406BOLB   GL433736  13.388  19.987  -0.285  0.5007 -0.1570 -0.2475
 1406BOLB   C1C33737  12.889  20.029  -0.120 -0.0407 -0.0609 -0.1331
 1406BOLB   C2C33738  12.540  20.155   0.209  0.0218  0.0259 -0.1841
 1406BOLB   C3C33739  12.203  20.293   0.520 -0.1065 -0.1791 -0.1172
 1406BOLB   C4C33740  11.979  20.358   0.832  0.0111  0.0859 -0.1256
 1406BOLB   C1D33741  13.331  20.080   0.150 -0.1193  0.2024  0.0023
 1406BOLB   C2D33742  13.492  19.909   0.560 -0.1300  0.1249  0.5764
 1406BOLB   C3D33743  13.668  19.980   0.984 -0.1854  0.5052  0.0557
 1406BOLB   C4D33744  13.939  20.114   1.327 -0.2682  0.0916 -0.0639
 1407BOLB   NC133745   6.125  13.487  10.197 -0.4905 -0.1286 -0.1968
 1407BOLB   PO133746   5.852  13.315  10.429 -0.0146  0.0364 -0.0940
 1407BOLB   GL133747   5.753  12.765  10.351 -0.2403 -0.3315 -0.0508
 1407BOLB   GL233748   5.560  12.739  10.061 -0.0869 -0.0844 -0.2417
 1407BOLB   C1A33749   5.831  12.373  10.280  0.2277 -0.0034  0.3281
 1407BOLB   C2A33750   5.852  11.967  10.303  0.0997  0.1920 -0.1993
 1407BOLB   C3A33751   5.684  11.665  10.529  0.0837 -0.3152 -0.2040
 1407BOLB   C4A33752   5.978  11.310  10.648 -0.1587 -0.1729  0.0292
 1407BOLB   C1B33753   5.352  12.433   9.838  0.1164 -0.1128 -0.0073
 1407BOLB   C2B33754   5.200  12.059   9.800  0.1608  0.2923  0.2248
 1407BOLB   C3B33755   4.987  11.697   9.731 -0.1097 -0.0296 -0.1150
 1407BOLB   C4B33756   4.588  11.518   9.608 -0.2997 -0.0204  0.3520
 1407BOLB   NC233757   7.111   9.130  11.479 -0.2137 -0.4779 -0.0436
 1407BOLB   PO233758   6.718   8.970  11.346  0.3350  0.0440 -0.3315
 1407BOLB   GL333759   6.658   9.420  11.119  0.0582  0.1304 -0.0884
 1407BOLB   GL433760   6.934   9.568  10.975  0.3713  0.1156  0.2268
 1407BOLB   C1C33761   6.576   9.820  11.189 -0.3610  0.1253  0.3805
 1407BOLB   C2C33762   6.333  10.227  11.197  0.0265 -0.2363 -0.1235
 1407BOLB   C3C33763   6.194  10.657  11.043  0.1270 -0.0188  0.1832
 1407BOLB   C4C33764   6.138  10.877  10.668 -0.3187  0.2621  0.1310
 1407BOLB   C1D33765   6.856   9.881  10.715 -0.2015  0.1261  0.0023
 1407BOLB   C2D33766   6.695  10.287  10.858  0.1432  0.1645  0.3188
 1407BOLB   C3D33767   6.663  10.740  10.841 -0.2157  0.2697 -0.0693
 1407BOLB   C4D33768   6.843  11.190  10.848 -0.2229  0.1560 -0.1601
 1408BOLB   NC133769   9.364  28.665   8.185 -0.2717  0.3328  0.1203
 1408BOLB   PO133770   9.060  28.617   7.735 -0.1982  0.2990 -0.0393
 1408BOLB   GL133771   9.230  28.979   7.719 -0.0980  0.1896 -0.1021
 1408BOLB   GL233772   9.563  29.025   7.940 -0.0653  0.1616 -0.4314
 1408BOLB   C1A33773   9.527  29.370   7.607  0.1293 -0.0919 -0.2483
 1408BOLB   C2A33774   9.646  29.568   7.318  0.1577  0.1809  0.1211
 1408BOLB   C3A33775   9.954  29.912   7.100  0.3699  0.1713  0.2527
 1408BOLB   C4A33776  10.286  30.107   7.021  0.2042  0.2094 -0.2566
 1408BOLB   C1B33777   9.777  29.474   8.085 -0.0672 -0.3192 -0.4158
 1408BOLB   C2B33778   9.697  29.767   7.961  0.2456 -0.1264 -0.0533
 1408BOLB   C3B33779   9.598  30.017   7.606  0.0233  0.1876  0.0333
 1408BOLB   C4B33780   9.485  30.431   7.620 -0.0427 -0.0505  0.2996
 1408BOLB   NC233781  11.609  32.078   8.736 -0.2920  0.3521 -0.1744
 1408BOLB   PO233782  11.339  31.835   8.523 -0.1679  0.0573 -0.0771
 1408BOLB   GL333783  11.006  31.541   8.382 -0.1265 -0.0683  0.1412
 1408BOLB   GL433784  10.869  31.609   8.031 -0.2584  0.3975  0.0897
 1408BOLB   C1C33785  10.783  31.138   8.207  0.1501 -0.2462 -0.1314
 1408BOLB   C2C33786  10.772  30.914   7.775 -0.2001 -0.2463 -0.0685
 1408BOLB   C3C33787  10.694  30.579   7.596  0.2399 -0.0858  0.1831
 1408BOLB   C4C33788  10.577  30.463   7.124 -0.1826  0.1394 -0.2434
 1408BOLB   C1D33789  10.440  31.475   8.181 -0.3351 -0.3085 -0.0922
 1408BOLB   C2D33790  10.028  31.344   8.173 -0.1419 -0.3372  0.2404
 1408BOLB   C3D33791   9.590  31.397   8.007 -0.2158  0.1739 -0.3129
 1408BOLB   C4D33792   9.253  31.037   7.976  0.2173 -0.0136 -0.0877
 1409BOLB   NC133793   5.833  13.484   7.498  0.0237 -0.1260 -0.0588
 1409BOLB   PO133794   5.522  13.188   7.369 -0.0758  0.3731 -0.0787
 1409BOLB   GL133795   5.351  12.764   7.514 -0.0997 -0.0116  0.0334
 1409BOLB   GL233796   5.533  12.608   7.371  0.2756  0.1443 -0.2884
 1409BOLB   C1A33797   5.172  12.298   7.454 -0.0517 -0.0930 -0.0963
 1409BOLB   C2A33798   5.063  11.853   7.377  0.0990  0.0163 -0.0191
 1409BOLB   C3A33799   5.084  11.535   6.949 -0.1225  0.1268 -0.2344
 1409BOLB   C4A33800   5.303  11.243   6.729  0.1379 -0.0386 -0.2398
 1409BOLB   C1B33801   5.644  12.202   7.282  0.1352 -0.0770 -0.1820
 1409BOLB   C2B33802   5.938  11.970   7.164  0.1067 -0.1017  0.0753
 1409BOLB   C3B33803   5.934  11.530   7.357  0.0630  0.0108  0.0477
 1409BOLB   C4B33804   5.749  11.235   7.548  0.0980 -0.2023 -0.0464
 1409BOLB   NC233805   6.912   9.310   5.687 -0.2086 -0.0447  0.0359
 1409BOLB   PO233806   6.515   9.398   5.520 -0.0826  0.0465  0.0257
 1409BOLB   GL333807   6.262   9.709   5.752  0.1033 -0.0619 -0.0092
 1409BOLB   GL433808   6.419   9.992   5.565  0.4741  0.1241  0.2080
 1409BOLB   C1C33809   6.032   9.922   6.020  0.0305 -0.0936 -0.0835
 1409BOLB   C2C33810   5.690  10.243   5.934  0.2122  0.1393 -0.3280
 1409BOLB   C3C33811   5.589  10.569   6.107  0.2606 -0.0983 -0.2433
 1409BOLB   C4C33812   5.349  10.807   6.524 -0.0213 -0.0506  0.1262
 1409BOLB   C1D33813   6.437  10.267   5.921 -0.1666  0.0190 -0.2993
 1409BOLB   C2D33814   6.119  10.471   6.140  0.2223  0.1269  0.2081
 1409BOLB   C3D33815   6.051  10.559   6.503 -0.1052  0.1655  0.1938
 1409BOLB   C4D33816   5.914  10.722   6.869 -0.0561 -0.1122 -0.0210
 1410BOLB   NC133817  13.195  18.412  13.020  0.0652 -0.3584  0.1381
 1410BOLB   PO133818  13.337  18.745  12.999  0.4661 -0.1399 -0.2046
 1410BOLB   GL133819  13.671  18.591  13.196  0.2656  0.2993 -0.1023
 1410BOLB   GL233820  13.838  18.799  13.340 -0.0519 -0.1667 -0.1056
 1410BOLB   C1A33821  13.956  18.351  13.517 -0.1194  0.3867  0.1041
 1410BOLB   C2A33822  14.349  18.174  13.669 -0.0013 -0.0624 -0.0916
 1410BOLB   C3A33823  14.522  18.043  13.997  0.2760  0.2377 -0.0186
 1410BOLB   C4A33824  14.822  18.001  14.347 -0.1446 -0.1893 -0.1216
 1410BOLB   C1B33825  14.219  18.884  13.436 -0.0213  0.0900 -0.3352
 1410BOLB   C2B33826  14.367  18.681  13.740 -0.0902  0.2380  0.0723
 1410BOLB   C3B33827  14.783  18.591  13.956  0.2724  0.2763 -0.1131
 1410BOLB   C4B33828  15.075  18.360  14.151  0.1164 -0.0350 -0.2115
 1410BOLB   NC233829  16.911  17.231  15.800  0.3919 -0.0968  0.1468
 1410BOLB   PO233830  17.017  17.537  15.434  0.0287 -0.0713 -0.0505
 1410BOLB   GL333831  16.612  17.768  15.196  0.0877  0.2302 -0.0591
 1410BOLB   GL433832  16.414  17.583  15.087 -0.0686 -0.1177  0.0099
 1410BOLB   C1C33833  16.273  18.086  15.026  0.2874  0.0953  0.0238
 1410BOLB   C2C33834  16.028  18.115  14.716  0.0078 -0.1935 -0.1470
 1410BOLB   C3C33835  15.645  17.967  14.682 -0.1217 -0.5845 -0.0262
 1410BOLB   C4C33836  15.255  18.074  14.547 -0.1934 -0.3556  0.0872
 1410BOLB   C1D33837  16.163  17.626  14.620  0.1070 -0.1970 -0.2215
 1410BOLB   C2D33838  15.941  17.353  14.280 -0.3117  0.1061  0.2142
 1410BOLB   C3D33839  15.720  17.440  13.983  0.0714  0.0675  0.0119
 1410BOLB   C4D33840  15.539  17.390  13.620 -0.0795 -0.0993  0.1686
 1411BOLB   NC133841   2.722  27.009  12.367  0.0856  0.0874  0.1083
 1411BOLB   PO133842   2.603  27.357  12.226  0.2565 -0.1535  0.3997
 1411BOLB   GL133843   2.370  27.686  12.296 -0.4280  0.1340 -0.2985
 1411BOLB   GL233844   2.073  27.705  12.323  0.0054  0.3941  0.1446
 1411BOLB   C1A33845   2.327  28.150  12.410 -0.2748 -0.3122 -0.3005
 1411BOLB   C2A33846   2.067  28.407  12.697  0.1633 -0.2671  0.0160
 1411BOLB   C3A33847   1.840  28.810  12.921 -0.1973  0.0580  0.3051
 1411BOLB   C4A33848   1.740  29.203  13.206  0.1795 -0.3260 -0.2451
 1411BOLB   C1B33849   1.953  28.078  12.062 -0.1013 -0.1399  0.0053
 1411BOLB   C2B33850   1.674  28.342  11.946 -0.1849  0.1987 -0.1071
 1411BOLB   C3B33851   1.540  28.697  11.958 -0.0128  0.4297  0.0886
 1411BOLB   C4B33852   1.210  29.071  11.734 -0.0459 -0.1887 -0.0773
 1411BOLB   NC233853   0.396  31.244  14.012  0.1628  0.1809  0.2341
 1411BOLB   PO233854   0.302  30.797  14.089  0.3046  0.2275  0.1758
 1411BOLB   GL333855   0.558  30.367  14.149  0.5292 -0.0196 -0.0645
 1411BOLB   GL433856   0.480  30.052  14.209  0.2796 -0.0022 -0.3243
 1411BOLB   C1C33857   0.931  30.136  14.200  0.1677  0.2612 -0.0303
 1411BOLB   C2C33858   1.122  29.850  14.076  0.0848  0.2860  0.2108
 1411BOLB   C3C33859   1.250  29.407  13.928  0.0125  0.1910  0.0348
 1411BOLB   C4C33860   1.551  29.364  13.632 -0.2428 -0.0530 -0.1582
 1411BOLB   C1D33861   0.199  29.827  13.983 -0.0470 -0.0260 -0.2019
 1411BOLB   C2D33862  -0.111  29.526  13.970  0.0560 -0.1556  0.1832
 1411BOLB   C3D33863  -0.492  29.225  13.885 -0.0368  0.0291  0.0223
 1411BOLB   C4D33864  -0.573  28.983  13.529  0.2433 -0.0177  0.4105
 1412BOLB   NC133865   4.824  27.006  15.191 -0.3787  0.0418 -0.0038
 1412BOLB   PO133866   5.000  27.467  15.191  0.1259  0.1690 -0.4068
 1412BOLB   GL133867   4.716  27.823  15.334 -0.0251 -0.1928 -0.4746
 1412BOLB   GL233868   4.477  27.806  15.435  0.0520 -0.1751  0.0895
 1412BOLB   C1A33869   4.758  28.394  15.298 -0.1325 -0.1043 -0.0750
 1412BOLB   C2A33870   4.393  28.692  15.193  0.0759  0.1563 -0.1057
 1412BOLB   C3A33871   4.026  28.774  15.441 -0.0442  0.0313 -0.1537
 1412BOLB   C4A33872   3.789  29.158  15.519  0.1926  0.3593 -0.0671
 1412BOLB   C1B33873   4.287  28.249  15.536  0.1195 -0.2535 -0.1134
 1412BOLB   C2B33874   4.517  28.586  15.676  0.1579 -0.2898 -0.1574
 1412BOLB   C3B33875   4.560  28.967  15.553  0.0317 -0.0877  0.0469
 1412BOLB   C4B33876   4.633  29.378  15.226  0.3125  0.1247  0.1227
 1412BOLB   NC233877   2.484  31.037  16.959 -0.0135  0.2042 -0.0684
 1412BOLB   PO233878   2.646  30.911  16.524 -0.4428  0.2100 -0.2300
 1412BOLB   GL333879   2.757  30.618  16.221  0.0007 -0.2695  0.1970
 1412BOLB   GL433880   2.530  30.550  15.916  0.0009 -0.0137  0.1125
 1412BOLB   C1C33881   3.044  30.412  16.062  0.2434  0.2497 -0.0128
 1412BOLB   C2C33882   3.156  29.950  15.952 -0.0490  0.3459  0.0146
 1412BOLB   C3C33883   3.543  29.781  15.946  0.2536  0.1603 -0.0081
 1412BOLB   C4C33884   3.641  29.329  15.868  0.0796 -0.1775  0.0287
 1412BOLB   C1D33885   2.568  30.153  16.103  0.2038  0.0152  0.2880
 1412BOLB   C2D33886   2.674  29.751  15.916  0.4533  0.0374 -0.1090
 1412BOLB   C3D33887   2.997  29.428  15.836 -0.2839 -0.1054 -0.3595
 1412BOLB   C4D33888   3.277  29.032  16.000  0.5883 -0.0280  0.0001
 1413BOLB   NC133889  30.884  15.580   6.332 -0.0994 -0.3712 -0.0397
 1413BOLB   PO133890  30.737  15.699   6.713  0.0523  0.0701  0.0916
 1413BOLB   GL133891  31.079  16.002   6.870  0.1280 -0.0589  0.1407
 1413BOLB   GL233892  31.114  16.009   7.172 -0.1119 -0.0955  0.2269
 1413BOLB   C1A33893  31.361  16.438   6.742  0.1491 -0.0658  0.2543
 1413BOLB   C2A33894  31.819  16.598   6.716  0.0510  0.0224  0.4670
 1413BOLB   C3A33895  32.197  16.914   6.807  0.1922  0.3054 -0.0460
 1413BOLB   C4A33896  32.345  17.345   6.786 -0.3853  0.2183 -0.0054
 1413BOLB   C1B33897  31.583  16.087   7.222  0.2656 -0.1098 -0.2704
 1413BOLB   C2B33898  31.813  16.307   7.603 -0.0959  0.1575  0.0581
 1413BOLB   C3B33899  32.168  16.411   7.666 -0.0553  0.0446 -0.3208
 1413BOLB   C4B33900  32.574  16.221   7.829  0.2796 -0.0281 -0.1169
 1413BOLB   NC233901  30.440  17.691   5.827 -0.1595  0.0179 -0.0642
 1413BOLB   PO233902  30.531  17.271   5.533  0.0195 -0.3351  0.0824
 1413BOLB   GL333903  30.927  17.408   5.779  0.2647 -0.0847 -0.2262
 1413BOLB   GL433904  30.898  17.621   5.972  0.1562  0.0441  0.1264
 1413BOLB   C1C33905  31.310  17.576   5.703  0.0868  0.1199 -0.1000
 1413BOLB   C2C33906  31.722  17.648   5.756  0.0303  0.0755 -0.3420
 1413BOLB   C3C33907  32.108  17.515   5.995  0.1211 -0.0534 -0.1229
 1413BOLB   C4C33908  32.317  17.584   6.422 -0.0328  0.0051  0.1662
 1413BOLB   C1D33909  31.211  17.836   6.125  0.1755  0.1287 -0.2465
 1413BOLB   C2D33910  31.400  18.235   6.344  0.1558 -0.0638  0.1670
 1413BOLB   C3D33911  31.543  18.552   6.595 -0.1066 -0.1422  0.2780
 1413BOLB   C4D33912  31.196  18.768   6.841  0.1832 -0.0643  0.0096
 1414BOLB   NC133913  11.714  26.668  13.457 -0.1591 -0.2394  0.1295
 1414BOLB   PO133914  11.355  26.860  13.186  0.1803  0.0096 -0.0225
 1414BOLB   GL133915  11.644  27.219  13.284  0.0277 -0.0024 -0.5039
 1414BOLB   GL233916  11.847  27.166  13.531 -0.1215  0.0087 -0.1171
 1414BOLB   C1A33917  11.686  27.649  13.186 -0.1976 -0.1105  0.0140
 1414BOLB   C2A33918  12.027  27.890  13.176  0.1330  0.0842 -0.3543
 1414BOLB   C3A33919  12.230  28.184  13.310 -0.4866  0.1842  0.0855
 1414BOLB   C4A33920  12.631  28.345  13.508  0.0989 -0.1248 -0.1011
 1414BOLB   C1B33921  11.895  27.461  13.835 -0.0849  0.0160  0.0959
 1414BOLB   C2B33922  11.847  27.832  14.110 -0.1904 -0.0070  0.0803
 1414BOLB   C3B33923  12.221  28.091  14.313 -0.3429 -0.3571 -0.0015
 1414BOLB   C4B33924  12.660  28.299  14.530  0.2026 -0.1147 -0.1498
 1414BOLB   NC233925  13.622  30.140  14.601 -0.0049  0.0829  0.4402
 1414BOLB   PO233926  13.996  29.981  14.566  0.0520  0.0002  0.1361
 1414BOLB   GL333927  13.836  29.606  14.548  0.3885 -0.0530  0.1807
 1414BOLB   GL433928  13.844  29.514  14.794 -0.0081 -0.0150 -0.2805
 1414BOLB   C1C33929  13.513  29.325  14.345  0.0400 -0.3100 -0.0605
 1414BOLB   C2C33930  13.348  28.939  14.197  0.2026 -0.1140 -0.0250
 1414BOLB   C3C33931  13.143  28.682  13.867  0.3543 -0.1543 -0.0174
 1414BOLB   C4C33932  13.000  28.409  13.708  0.0952 -0.0939 -0.1874
 1414BOLB   C1D33933  13.747  29.088  14.746  0.0475  0.0704 -0.1574
 1414BOLB   C2D33934  13.413  28.880  14.679 -0.2188  0.1611  0.0571
 1414BOLB   C3D33935  13.134  28.474  14.556 -0.3165  0.2125 -0.3152
 1414BOLB   C4D33936  13.140  28.312  14.249 -0.1472 -0.0290 -0.2626
 1415BOLB   NC133937  31.303  23.464  16.251 -0.3898  0.1370  0.0539
 1415BOLB   PO133938  31.086  23.318  15.928 -0.0877  0.0569 -0.1049
 1415BOLB   GL133939  31.523  23.082  15.897  0.0038  0.0254  0.3308
 1415BOLB   GL233940  31.852  23.149  15.811  0.3055 -0.0960  0.0680
 1415BOLB   C1A33941  31.652  22.737  15.657 -0.1510 -0.0190 -0.0029
 1415BOLB   C2A33942  31.831  22.521  15.297 -0.1631 -0.0243 -0.1711
 1415BOLB   C3A33943  32.270  22.637  15.066  0.0847 -0.0441 -0.2138
 1415BOLB   C4A33944  32.553  22.805  14.791  0.2376  0.1942  0.2844
 1415BOLB   C1B33945  31.967  23.064  15.369  0.0264  0.1921 -0.1086
 1415BOLB   C2B33946  31.924  22.940  14.815 -0.0149 -0.0459  0.0024
 1415BOLB   C3B33947  32.015  22.986  14.386  0.2705 -0.3955  0.2437
 1415BOLB   C4B33948  32.135  22.857  13.978 -0.1201  0.4040 -0.0969
 1415BOLB   NC233949  31.580  24.950  14.199 -0.2076 -0.2061 -0.0920
 1415BOLB   PO233950  31.809  25.155  14.482 -0.2337  0.2814 -0.0682
 1415BOLB   GL333951  32.071  24.802  14.396 -0.2072 -0.1791 -0.4588
 1415BOLB   GL433952  32.357  24.800  14.232  0.0730  0.1112  0.1734
 1415BOLB   C1C33953  32.163  24.457  14.602 -0.0812  0.2629 -0.0772
 1415BOLB   C2C33954  32.244  23.942  14.608 -0.2185 -0.0621 -0.0503
 1415BOLB   C3C33955  32.475  23.643  14.698 -0.2850 -0.1839  0.2553
 1415BOLB   C4C33956  32.779  23.137  14.759  0.1596 -0.0899 -0.4096
 1415BOLB   C1D33957  32.719  24.630  14.448  0.2426 -0.1537 -0.1705
 1415BOLB   C2D33958  32.661  24.372  14.858  0.4147 -0.0713  0.2123
 1415BOLB   C3D33959  32.718  24.290  15.306 -0.0673 -0.2568 -0.2257
 1415BOLB   C4D33960  32.857  24.187  15.700  0.1975 -0.2614  0.0600
 1416BOLB   NC133961   4.446  28.510   0.655 -0.0333 -0.3609  0.4419
 1416BOLB   PO133962   4.567  28.205   0.925 -0.1214  0.2586  0.2274
 1416BOLB   GL133963   4.718  27.866   1.250 -0.0835  0.2833  0.0355
 1416BOLB   GL233964   4.662  27.847   1.475 -0.2919  0.0253 -0.0034
 1416BOLB   C1A33965   5.015  27.530   1.325 -0.0903 -0.0604 -0.0058
 1416BOLB   C2A33966   5.206  27.125   1.506  0.1862  0.0290  0.2456
 1416BOLB   C3A33967   5.428  26.910   1.906 -0.0935  0.3520 -0.2543
 1416BOLB   C4A33968   5.372  26.681   2.266  0.3054 -0.3421 -0.0316
 1416BOLB   C1B33969   4.875  27.646   1.794 -0.3381 -0.0292 -0.0251
 1416BOLB   C2B33970   5.245  27.441   1.825  0.1869 -0.0120  0.0473
 1416BOLB   C3B33971   5.668  27.510   1.869 -0.7102 -0.3310 -0.2211
 1416BOLB   C4B33972   6.128  27.485   1.618  0.0803  0.1982  0.0502
 1416BOLB   NC233973   5.618  24.833   3.935 -0.2026 -0.1706 -0.0285
 1416BOLB   PO233974   5.351  25.128   3.963  0.2980 -0.2829  0.0695
 1416BOLB   GL333975   5.262  25.446   3.701  0.1329 -0.0177 -0.0837
 1416BOLB   GL433976   5.204  25.241   3.458  0.1805 -0.1141  0.2925
 1416BOLB   C1C33977   5.024  25.741   3.516  0.1214  0.1649  0.0900
 1416BOLB   C2C33978   5.175  26.203   3.416 -0.0093  0.1972 -0.2603
 1416BOLB   C3C33979   5.420  26.283   3.067 -0.0676  0.1998  0.0075
 1416BOLB   C4C33980   5.298  26.406   2.706 -0.1974 -0.2076 -0.0250
 1416BOLB   C1D33981   5.072  25.360   3.158 -0.3873  0.2874 -0.2212
 1416BOLB   C2D33982   5.096  25.308   2.748  0.2952 -0.3704  0.1969
 1416BOLB   C3D33983   5.065  25.207   2.247 -0.1294  0.2049 -0.1831
 1416BOLB   C4D33984   5.315  25.255   1.913  0.1930 -0.0619  0.2607
 1417BOLB   NC133985   3.568  24.701   4.044 -0.2291 -0.0493  0.1128
 1417BOLB   PO133986   3.978  25.002   4.015 -0.1131  0.0383  0.3450
 1417BOLB   GL133987   3.701  25.137   3.733  0.0425 -0.4470  0.1431
 1417BOLB   GL233988   3.607  25.019   3.571 -0.2118 -0.0903 -0.1108
 1417BOLB   C1A33989   3.622  25.579   3.557  0.0267 -0.2478  0.1987
 1417BOLB   C2A33990   3.580  25.675   3.205 -0.0330  0.2461  0.1169
 1417BOLB   C3A33991   3.558  25.837   2.753  0.1310 -0.4481 -0.0797
 1417BOLB   C4A33992   3.481  26.283   2.524  0.2518  0.0335 -0.0287
 1417BOLB   C1B33993   3.302  25.132   3.162  0.1289 -0.0087 -0.0859
 1417BOLB   C2B33994   3.110  25.474   2.953 -0.0337 -0.0110 -0.0743
 1417BOLB   C3B33995   3.093  25.583   2.584  0.1925 -0.1009  0.1460
 1417BOLB   C4B33996   3.229  25.896   2.273 -0.0688 -0.3708 -0.0283
 1417BOLB   NC233997   2.033  26.875   0.706 -0.0676 -0.1952  0.0698
 1417BOLB   PO233998   1.869  26.985   1.016  0.1181  0.1628  0.0275
 1417BOLB   GL333999   2.068  26.905   1.376  0.2882  0.2719  0.3298
 1417BOLB   GL434000   2.045  26.955   1.652 -0.1827 -0.0161 -0.2423
 1417BOLB   C1C34001   2.454  26.703   1.555 -0.1270 -0.0141  0.3859
 1417BOLB   C2C34002   2.734  26.370   1.719 -0.0004  0.0597 -0.4284
 1417BOLB   C3C34003   2.990  26.163   1.981  0.1360 -0.1339 -0.0337
 1417BOLB   C4C34004   3.201  26.460   2.184 -0.1125 -0.2293  0.3246
 1417BOLB   C1D34005   2.077  26.628   1.978  0.0808 -0.2431 -0.1301
 1417BOLB   C2D34006   2.273  26.215   1.879 -0.0310 -0.1083  0.1354
 1417BOLB   C3D34007   2.492  25.987   2.224  0.0345  0.0984  0.2798
 1417BOLB   C4D34008   2.604  25.734   2.508  0.1350  0.1462 -0.0078
 1418BOLB   NC134009   0.222  22.697   5.399  0.0476  0.4513 -0.0432
 1418BOLB   PO134010   0.389  22.333   5.259 -0.0273 -0.1468  0.0932
 1418BOLB   GL134011   0.282  22.413   4.867  0.1040  0.0420  0.5508
 1418BOLB   GL234012   0.051  22.588   4.918  0.3362  0.1783 -0.2555
 1418BOLB   C1A34013   0.012  22.417   4.460  0.0809 -0.0485 -0.0109
 1418BOLB   C2A34014   0.025  22.723   4.135 -0.0046 -0.0242  0.0837
 1418BOLB   C3A34015  -0.348  22.741   3.855  0.0416 -0.0610 -0.1494
 1418BOLB   C4A34016  -0.612  22.845   3.519  0.1663 -0.2874  0.2597
 1418BOLB   C1B34017  -0.152  22.888   4.705 -0.3338  0.2791 -0.3850
 1418BOLB   C2B34018  -0.447  22.855   4.380  0.6162  0.3627 -0.1704
 1418BOLB   C3B34019  -0.760  22.900   4.136 -0.1177  0.2249  0.0919
 1418BOLB   C4B34020  -1.050  22.985   3.743  0.0552 -0.0390 -0.0827
 1418BOLB   NC234021  -2.133  23.607   1.232 -0.1374 -0.0087  0.2176
 1418BOLB   PO234022  -2.143  23.288   1.551  0.1683 -0.0631 -0.2384
 1418BOLB   GL334023  -2.054  23.024   1.960  0.2384  0.0291  0.3613
 1418BOLB   GL434024  -2.145  22.712   1.948  0.1498 -0.2333 -0.0284
 1418BOLB   C1C34025  -2.029  23.007   2.366  0.0755  0.1290  0.1028
 1418BOLB   C2C34026  -1.766  23.052   2.764 -0.2144 -0.3859 -0.0139
 1418BOLB   C3C34027  -1.421  22.822   3.047  0.1771 -0.0602  0.1123
 1418BOLB   C4C34028  -1.101  22.715   3.285 -0.0121 -0.1708 -0.4427
 1418BOLB   C1D34029  -1.997  22.503   2.296 -0.0963  0.0879  0.2913
 1418BOLB   C2D34030  -1.619  22.595   2.644  0.2890  0.3559 -0.0309
 1418BOLB   C3D34031  -1.150  22.481   2.767  0.0629  0.0346 -0.0165
 1418BOLB   C4D34032  -0.843  22.282   2.928  0.3121  0.0334 -0.0980
 1419BOLB   NC134033  14.228  23.737   6.602 -0.0636 -0.3521 -0.3049
 1419BOLB   PO134034  14.466  23.632   6.851  0.4115 -0.2450  0.0674
 1419BOLB   GL134035  14.857  23.732   6.767 -0.3229 -0.2389  0.1071
 1419BOLB   GL234036  14.842  24.037   6.926  0.0518 -0.2219 -0.2451
 1419BOLB   C1A34037  15.320  23.724   6.906  0.3288  0.2771 -0.2394
 1419BOLB   C2A34038  15.694  23.840   7.067  0.0686 -0.1618  0.1374
 1419BOLB   C3A34039  15.958  24.180   6.828 -0.0415  0.3942  0.1214
 1419BOLB   C4A34040  15.895  24.526   6.554  0.1645 -0.1682  0.0456
 1419BOLB   C1B34041  15.213  24.230   6.725  0.2568 -0.1288 -0.0981
 1419BOLB   C2B34042  15.581  24.012   6.626  0.1575  0.1343  0.1063
 1419BOLB   C3B34043  15.656  23.645   6.456  0.0004  0.3015  0.0034
 1419BOLB   C4B34044  16.077  23.397   6.237  0.0017 -0.2247 -0.0796
 1419BOLB   NC234045  17.369  26.477   5.757  0.2523  0.2037 -0.0596
 1419BOLB   PO234046  17.540  26.046   5.655 -0.2346 -0.1280 -0.2680
 1419BOLB   GL334047  17.285  26.009   5.979 -0.0106 -0.1611  0.2928
 1419BOLB   GL434048  16.942  26.222   5.964  0.0097  0.1795  0.0728
 1419BOLB   C1C34049  17.040  25.734   6.182  0.1638  0.2329 -0.3805
 1419BOLB   C2C34050  16.828  25.352   6.138  0.0426  0.1435 -0.0539
 1419BOLB   C3C34051  16.430  25.136   6.278  0.2081  0.1138  0.1338
 1419BOLB   C4C34052  16.191  24.778   6.345  0.1754  0.0395  0.2570
 1419BOLB   C1D34053  16.546  26.428   5.996  0.3254 -0.2731 -0.1190
 1419BOLB   C2D34054  16.112  26.518   6.080 -0.2615  0.0614 -0.0100
 1419BOLB   C3D34055  15.810  26.307   6.202 -0.1142 -0.1814 -0.2327
 1419BOLB   C4D34056  15.360  26.217   6.261  0.0613 -0.0299  0.0994
 1420BOLB   NC134057  11.188  21.710  17.983  0.2008  0.4007 -0.0178
 1420BOLB   PO134058  11.340  21.881  17.606  0.0694 -0.0236  0.1486
 1420BOLB   GL134059  11.345  22.351  17.710  0.1752 -0.0799  0.1883
 1420BOLB   GL234060  11.581  22.504  17.917 -0.3373  0.3184  0.0513
 1420BOLB   C1A34061  11.182  22.517  18.162  0.0039 -0.0162 -0.4010
 1420BOLB   C2A34062  11.266  22.292  18.549 -0.0939 -0.0606  0.1070
 1420BOLB   C3A34063  11.441  22.261  18.971 -0.1896 -0.0443 -0.0643
 1420BOLB   C4A34064  11.773  21.964  19.242 -0.1439 -0.0416 -0.0885
 1420BOLB   C1B34065  11.795  22.441  18.402 -0.1628  0.1577 -0.2171
 1420BOLB   C2B34066  12.193  22.460  18.471  0.0730  0.1493  0.0127
 1420BOLB   C3B34067  12.448  22.342  18.795 -0.2681  0.1744 -0.3021
 1420BOLB   C4B34068  12.633  22.580  19.025 -0.1197  0.1745  0.0251
 1420BOLB   NC234069  13.118  22.056  21.156 -0.0154 -0.0486 -0.1436
 1420BOLB   PO234070  12.627  21.977  21.232 -0.1356  0.0349  0.0365
 1420BOLB   GL334071  12.396  21.864  20.895  0.0836 -0.2232  0.3175
 1420BOLB   GL434072  12.607  21.854  20.709  0.0804  0.1286  0.0098
 1420BOLB   C1C34073  12.174  21.817  20.499 -0.2803 -0.0593 -0.1212
 1420BOLB   C2C34074  12.237  21.721  20.099 -0.0665 -0.1317  0.1034
 1420BOLB   C3C34075  12.346  21.725  19.686 -0.1777  0.1528 -0.0172
 1420BOLB   C4C34076  12.034  21.973  19.567  0.1923 -0.0259 -0.4197
 1420BOLB   C1D34077  12.691  22.119  20.410 -0.0293  0.2311  0.3228
 1420BOLB   C2D34078  13.104  22.217  20.149 -0.0742  0.1002 -0.1606
 1420BOLB   C3D34079  13.167  22.090  19.681  0.0149  0.0835  0.0241
 1420BOLB   C4D34080  13.332  21.998  19.235 -0.0358  0.0629 -0.0571
 1421BOLB   NC134081  11.373  25.492   5.449  0.2236 -0.1479 -0.1186
 1421BOLB   PO134082  11.710  25.526   5.791 -0.2774 -0.1624  0.0708
 1421BOLB   GL134083  11.762  25.806   5.402 -0.1903 -0.3402 -0.0737
 1421BOLB   GL234084  11.976  25.814   5.368 -0.1134  0.0982 -0.0295
 1421BOLB   C1A34085  11.670  26.016   4.994  0.0547 -0.0980 -0.0821
 1421BOLB   C2A34086  11.872  26.429   4.750  0.0205 -0.2076 -0.2920
 1421BOLB   C3A34087  12.315  26.704   4.664 -0.0247  0.3043  0.1133
 1421BOLB   C4A34088  12.728  26.663   4.556  0.2015  0.1176 -0.0161
 1421BOLB   C1B34089  12.141  26.215   5.145  0.4762  0.3626  0.0885
 1421BOLB   C2B34090  12.519  26.347   4.947 -0.0424 -0.1098 -0.0911
 1421BOLB   C3B34091  12.965  26.482   4.947  0.3287 -0.1828 -0.2266
 1421BOLB   C4B34092  13.337  26.571   5.179  0.0518  0.1331  0.2244
 1421BOLB   NC234093  14.028  27.603   2.484 -0.0236  0.3204  0.1786
 1421BOLB   PO234094  13.684  27.456   2.668 -0.0789 -0.4067  0.1505
 1421BOLB   GL334095  13.724  27.022   2.923  0.0031  0.3031 -0.1719
 1421BOLB   GL434096  13.706  26.630   2.930  0.2183  0.1319  0.0160
 1421BOLB   C1C34097  13.767  26.891   3.383  0.0146  0.1514 -0.2700
 1421BOLB   C2C34098  13.426  26.944   3.652  0.0718  0.1553  0.0076
 1421BOLB   C3C34099  13.218  26.889   4.068  0.1280 -0.4256  0.0661
 1421BOLB   C4C34100  13.026  26.676   4.321 -0.0492  0.2712  0.0962
 1421BOLB   C1D34101  13.476  26.358   3.220  0.1008 -0.0303  0.0017
 1421BOLB   C2D34102  13.230  26.110   3.503  0.1098 -0.2780 -0.0314
 1421BOLB   C3D34103  12.873  26.042   3.536  0.0238  0.4145  0.1223
 1421BOLB   C4D34104  12.491  26.294   3.215  0.0948 -0.0538 -0.2701
 1422BOLB   NC134105   1.617  21.665   3.719 -0.0443  0.4089 -0.3494
 1422BOLB   PO134106   1.285  21.452   3.990  0.2233  0.1070  0.2094
 1422BOLB   GL134107   1.112  21.830   3.751  0.1581 -0.0335 -0.2676
 1422BOLB   GL234108   1.230  21.814   3.491 -0.1392  0.2145  0.0402
 1422BOLB   C1A34109   0.789  21.990   3.365 -0.1930 -0.4899 -0.2543
 1422BOLB   C2A34110   0.804  22.149   2.987  0.3469 -0.1561  0.4080
 1422BOLB   C3A34111   0.880  22.290   2.475 -0.1319  0.0989  0.0521
 1422BOLB   C4A34112   0.877  22.294   2.028  0.2318 -0.2671 -0.0599
 1422BOLB   C1B34113   0.921  21.500   3.306  0.2781  0.1803  0.2223
 1422BOLB   C2B34114   0.758  21.679   2.985 -0.0459  0.0795 -0.1243
 1422BOLB   C3B34115   0.593  21.854   2.651 -0.2579  0.0585  0.1408
 1422BOLB   C4B34116   0.488  22.046   2.241 -0.1073  0.2793  0.1797
 1422BOLB   NC234117  -1.265  22.810   1.361  0.0686 -0.1240  0.1978
 1422BOLB   PO234118  -0.942  23.031   1.129 -0.0073 -0.0474  0.2225
 1422BOLB   GL334119  -0.686  22.741   1.473  0.0818  0.0988 -0.2530
 1422BOLB   GL434120  -0.905  22.643   1.627  0.0064 -0.0077  0.3150
 1422BOLB   C1C34121  -0.413  22.468   1.663 -0.0277 -0.1164  0.3888
 1422BOLB   C2C34122  -0.215  22.112   1.771  0.0494  0.1856  0.0412
 1422BOLB   C3C34123   0.182  21.942   1.877 -0.2098 -0.3243 -0.2795
 1422BOLB   C4C34124   0.648  22.049   1.811  0.1933  0.4591  0.2855
 1422BOLB   C1D34125  -0.762  22.265   1.827  0.2479 -0.0532 -0.1699
 1422BOLB   C2D34126  -0.493  22.138   2.151 -0.4453  0.0395  0.0370
 1422BOLB   C3D34127  -0.391  22.295   2.597 -0.1866 -0.0989  0.0967
 1422BOLB   C4D34128  -0.214  22.153   3.017 -0.2736 -0.0345 -0.3561
 1423BOLB   NC134129   2.773  17.771   3.995 -0.2148 -0.1409 -0.0818
 1423BOLB   PO134130   2.659  18.147   3.864  0.1860  0.0646  0.0215
 1423BOLB   GL134131   2.627  17.886   3.510  0.0394  0.1763 -0.2004
 1423BOLB   GL234132   2.730  18.107   3.198  0.4669 -0.1336 -0.2412
 1423BOLB   C1A34133   2.474  17.506   3.355  0.1677 -0.2297  0.1358
 1423BOLB   C2A34134   2.448  17.335   2.905 -0.0869  0.2857 -0.2203
 1423BOLB   C3A34135   2.311  17.237   2.536  0.0668 -0.1007 -0.0739
 1423BOLB   C4A34136   2.441  17.032   2.166  0.0318  0.0409 -0.4050
 1423BOLB   C1B34137   2.625  17.839   2.879  0.3967  0.0380  0.0354
 1423BOLB   C2B34138   2.468  17.739   2.477  0.0666 -0.3672  0.4688
 1423BOLB   C3B34139   2.209  17.869   2.124 -0.1439 -0.0306 -0.3072
 1423BOLB   C4B34140   2.253  18.198   1.834 -0.0697 -0.1452 -0.0330
 1423BOLB   NC234141   2.272  16.662  -0.773  0.0404 -0.0238 -0.0406
 1423BOLB   PO234142   2.387  16.416  -0.422 -0.0002 -0.3168 -0.0500
 1423BOLB   GL334143   2.379  16.546   0.014  0.2254 -0.1056 -0.1156
 1423BOLB   GL434144   2.055  16.608   0.014 -0.0658 -0.1583  0.0311
 1423BOLB   C1C34145   2.514  16.591   0.482 -0.0044 -0.3842 -0.3091
 1423BOLB   C2C34146   2.389  16.734   0.817  0.0313  0.1681 -0.1918
 1423BOLB   C3C34147   2.346  16.730   1.306  0.1231 -0.0550 -0.1151
 1423BOLB   C4C34148   2.404  16.911   1.811  0.0722 -0.0862 -0.0389
 1423BOLB   C1D34149   2.089  16.861   0.431  0.1809  0.1131  0.1428
 1423BOLB   C2D34150   1.950  17.090   0.884  0.0783  0.0870 -0.0337
 1423BOLB   C3D34151   1.899  17.272   1.252 -0.1001 -0.0907  0.1079
 1423BOLB   C4D34152   2.033  17.070   1.506  0.0775 -0.1073  0.2874
 1424BOLB   NC134153   4.439  25.857  16.988 -0.1959  0.0943  0.1085
 1424BOLB   PO134154   4.256  25.733  16.596  0.7049  0.1703  0.1688
 1424BOLB   GL134155   3.917  25.885  16.878 -0.0379 -0.4577 -0.0396
 1424BOLB   GL234156   4.046  26.160  16.902  0.2989  0.1655  0.0490
 1424BOLB   C1A34157   3.714  25.900  17.177 -0.0047 -0.1542  0.3075
 1424BOLB   C2A34158   3.478  26.073  17.487  0.2436  0.1602  0.1832
 1424BOLB   C3A34159   3.409  26.089  17.933  0.3543 -0.0634 -0.1115
 1424BOLB   C4A34160   3.290  26.515  18.184  0.4093  0.1531  0.0421
 1424BOLB   C1B34161   3.786  26.597  16.960 -0.0742  0.0657  0.1277
 1424BOLB   C2B34162   3.529  26.965  17.109 -0.1835  0.2784 -0.3029
 1424BOLB   C3B34163   3.247  27.282  17.381 -0.0685 -0.0091  0.3389
 1424BOLB   C4B34164   2.828  27.412  17.440  0.0124 -0.1753 -0.0443
 1424BOLB   NC234165   2.718  28.336  19.984 -0.2428  0.0815  0.0242
 1424BOLB   PO234166   2.441  28.000  19.923 -0.3117  0.1241  0.1567
 1424BOLB   GL334167   2.571  27.801  19.503 -0.0867 -0.1734 -0.0474
 1424BOLB   GL434168   2.885  27.966  19.439  0.2768  0.2256 -0.3161
 1424BOLB   C1C34169   2.511  27.482  19.198  0.1886  0.3357 -0.2247
 1424BOLB   C2C34170   2.799  27.271  18.833  0.0784 -0.0071  0.1967
 1424BOLB   C3C34171   2.947  27.138  18.493  0.4844 -0.1386  0.0272
 1424BOLB   C4C34172   3.216  26.931  18.180  0.1280  0.0566 -0.0387
 1424BOLB   C1D34173   3.077  27.658  19.230  0.1643 -0.1860  0.0320
 1424BOLB   C2D34174   3.298  27.365  19.014 -0.1011 -0.4275 -0.0517
 1424BOLB   C3D34175   3.477  27.321  18.548  0.0278 -0.0260 -0.0423
 1424BOLB   C4D34176   3.807  27.080  18.696 -0.1945 -0.1759 -0.0248
 1425BOLB   NC134177   1.952  26.158  14.253 -0.1252  0.3494 -0.1676
 1425BOLB   PO134178   2.061  26.332  14.669  0.0594 -0.0217 -0.0453
 1425BOLB   GL134179   2.009  26.645  14.949  0.3279 -0.1491  0.0358
 1425BOLB   GL234180   2.162  26.881  15.091 -0.2110  0.0795  0.0882
 1425BOLB   C1A34181   1.626  26.581  15.224  0.0528  0.0331  0.0762
 1425BOLB   C2A34182   1.423  26.526  15.633  0.4868  0.2043  0.1100
 1425BOLB   C3A34183   0.917  26.450  15.603  0.1359  0.2384  0.2375
 1425BOLB   C4A34184   0.519  26.659  15.602 -0.2365  0.0549 -0.0625
 1425BOLB   C1B34185   1.868  27.160  15.144 -0.1471 -0.2671  0.0400
 1425BOLB   C2B34186   1.449  27.422  14.920 -0.0089 -0.0620  0.1171
 1425BOLB   C3B34187   1.328  27.729  14.994  0.1473  0.0909  0.2387
 1425BOLB   C4B34188   1.207  27.912  15.427  0.2523 -0.1181 -0.0877
 1425BOLB   NC234189  -0.368  28.648  16.824  0.1493  0.4047  0.1946
 1425BOLB   PO234190  -0.546  28.404  16.904 -0.0204  0.1433 -0.1240
 1425BOLB   GL334191  -0.219  28.050  16.875 -0.1293 -0.0429  0.0567
 1425BOLB   GL434192  -0.365  27.721  17.052  0.3147  0.3016  0.0317
 1425BOLB   C1C34193   0.053  27.725  16.656  0.4408  0.0559 -0.1732
 1425BOLB   C2C34194   0.144  27.414  16.420 -0.1078 -0.0329 -0.1206
 1425BOLB   C3C34195   0.229  27.279  16.062  0.0999  0.2160 -0.1465
 1425BOLB   C4C34196   0.245  27.017  15.737 -0.1010  0.0077  0.0231
 1425BOLB   C1D34197  -0.410  27.726  16.534 -0.1682 -0.1507  0.1975
 1425BOLB   C2D34198  -0.600  27.924  16.101 -0.0118  0.2681  0.0518
 1425BOLB   C3D34199  -0.669  28.124  15.741  0.1548 -0.2297 -0.2601
 1425BOLB   C4D34200  -0.753  28.174  15.268 -0.1080 -0.1184 -0.0825
 1426BOLB   NC134201  11.914  17.867  15.474  0.1493 -0.4147 -0.2608
 1426BOLB   PO134202  11.674  17.784  15.822 -0.0483  0.0898  0.0666
 1426BOLB   GL134203  12.134  17.745  16.097 -0.2662  0.0630 -0.0656
 1426BOLB   GL234204  12.413  17.564  15.927  0.2536  0.0695 -0.1981
 1426BOLB   C1A34205  12.076  17.561  16.494  0.2878  0.0150 -0.0366
 1426BOLB   C2A34206  12.411  17.606  16.807  0.0617  0.3480 -0.0047
 1426BOLB   C3A34207  12.695  17.665  17.120 -0.2511 -0.1456  0.0982
 1426BOLB   C4A34208  13.045  17.376  17.244 -0.1605 -0.2702  0.0314
 1426BOLB   C1B34209  12.599  17.623  16.222  0.0155 -0.2682 -0.1889
 1426BOLB   C2B34210  12.953  17.583  16.467 -0.0790 -0.2246  0.1532
 1426BOLB   C3B34211  13.299  17.972  16.491 -0.0509  0.2690 -0.1129
 1426BOLB   C4B34212  13.626  18.285  16.543  0.0844 -0.0007 -0.3479
 1426BOLB   NC234213  13.146  15.874  18.723  0.2227  0.0942 -0.0114
 1426BOLB   PO234214  13.037  15.652  18.323 -0.3012  0.1188 -0.0799
 1426BOLB   GL334215  13.064  16.069  18.255 -0.4447 -0.1209  0.3838
 1426BOLB   GL434216  12.764  16.071  17.897  0.3696 -0.0337 -0.2921
 1426BOLB   C1C34217  13.337  16.322  18.042 -0.0515  0.0523 -0.0435
 1426BOLB   C2C34218  13.400  16.662  17.988  0.1087  0.0178 -0.1578
 1426BOLB   C3C34219  13.487  16.958  17.695  0.2402  0.5136  0.1496
 1426BOLB   C4C34220  13.450  17.286  17.396 -0.0903  0.1047  0.0004
 1426BOLB   C1D34221  12.421  16.293  17.867  0.2634 -0.0092 -0.2473
 1426BOLB   C2D34222  11.944  16.448  17.749  0.2244 -0.0644 -0.0072
 1426BOLB   C3D34223  11.567  16.695  17.923 -0.1522  0.1900 -0.1032
 1426BOLB   C4D34224  11.647  16.809  18.359  0.0819  0.1777  0.0977
 1427BOLB   NC134225  13.313  23.362  14.858 -0.1073 -0.1055 -0.0954
 1427BOLB   PO134226  13.642  23.593  14.711  0.2237 -0.0030 -0.1831
 1427BOLB   GL134227  13.960  23.925  14.679 -0.2468  0.0022 -0.3071
 1427BOLB   GL234228  14.042  23.916  14.307 -0.1116  0.1611 -0.2449
 1427BOLB   C1A34229  14.369  24.093  14.975  0.2308  0.1627 -0.3180
 1427BOLB   C2A34230  14.682  24.322  15.240 -0.1241 -0.0717  0.1945
 1427BOLB   C3A34231  14.925  24.400  15.713  0.0888  0.2514  0.2346
 1427BOLB   C4A34232  14.970  24.029  15.972  0.3638  0.1500  0.1575
 1427BOLB   C1B34233  14.462  23.988  14.531  0.0643  0.1876 -0.0426
 1427BOLB   C2B34234  14.916  23.947  14.670  0.0204  0.0098  0.0620
 1427BOLB   C3B34235  15.285  23.716  14.444  0.0760 -0.0866  0.0185
 1427BOLB   C4B34236  15.577  23.466  14.138  0.1627 -0.0391 -0.1778
 1427BOLB   NC234237  17.060  23.716  17.699 -0.0638  0.1903 -0.1003
 1427BOLB   PO234238  16.751  23.764  17.376  0.3658  0.0633 -0.2295
 1427BOLB   GL334239  16.395  23.760  17.092 -0.0170 -0.0515  0.0321
 1427BOLB   GL434240  16.410  23.964  16.867 -0.2708 -0.4439 -0.1851
 1427BOLB   C1C34241  16.278  23.531  16.823 -0.4176  0.0084 -0.1484
 1427BOLB   C2C34242  16.050  23.816  16.552  0.0106 -0.2443  0.0497
 1427BOLB   C3C34243  15.705  23.867  16.309  0.1643  0.4039 -0.1701
 1427BOLB   C4C34244  15.286  23.896  16.259 -0.0006  0.1175 -0.0614
 1427BOLB   C1D34245  16.007  24.137  16.901  0.0353  0.0699 -0.1311
 1427BOLB   C2D34246  15.713  24.317  17.145  0.1216  0.1881 -0.2922
 1427BOLB   C3D34247  15.249  24.294  17.149 -0.0335  0.1451  0.0868
 1427BOLB   C4D34248  14.754  24.385  17.215 -0.0842  0.2882  0.0361
 1428BOLB   NC134249  38.241  25.668   9.327  0.0727  0.0747 -0.1531
 1428BOLB   PO134250  38.334  26.048   9.384 -0.0176 -0.1751  0.0390
 1428BOLB   GL134251  37.876  25.966   9.443 -0.0647 -0.1175  0.2000
 1428BOLB   GL234252  37.778  26.368   9.339 -0.0354 -0.0477 -0.1373
 1428BOLB   C1A34253  37.464  26.011   9.656  0.1071  0.0207  0.0719
 1428BOLB   C2A34254  37.280  26.249   9.968  0.1469 -0.1596  0.0370
 1428BOLB   C3A34255  37.088  26.313  10.211  0.0966  0.0063  0.2750
 1428BOLB   C4A34256  36.842  26.569  10.520 -0.1060  0.0091  0.0001
 1428BOLB   C1B34257  37.476  26.340   9.160  0.2213 -0.0648  0.2194
 1428BOLB   C2B34258  37.202  26.397   8.840 -0.1881  0.1986  0.1495
 1428BOLB   C3B34259  37.271  26.454   8.322  0.1658 -0.1935  0.0400
 1428BOLB   C4B34260  36.918  26.821   8.081  0.2137  0.2509 -0.2087
 1428BOLB   NC234261  34.519  28.615  11.230  0.1665 -0.2073 -0.2249
 1428BOLB   PO234262  35.039  28.534  11.202 -0.0419 -0.1392  0.0827
 1428BOLB   GL334263  35.429  28.272  11.168  0.0177  0.0915  0.1282
 1428BOLB   GL434264  35.743  28.338  11.260  0.1149  0.1209 -0.0431
 1428BOLB   C1C34265  35.680  27.805  11.119  0.2660  0.4895  0.0010
 1428BOLB   C2C34266  36.052  27.449  11.000 -0.1573  0.0346 -0.1077
 1428BOLB   C3C34267  36.329  27.170  10.959 -0.1514  0.2635  0.1815
 1428BOLB   C4C34268  36.457  26.820  10.576 -0.0139  0.2980 -0.0701
 1428BOLB   C1D34269  35.774  28.347  10.782 -0.0390  0.3796  0.1523
 1428BOLB   C2D34270  35.661  28.016  10.374  0.4108 -0.0003 -0.1121
 1428BOLB   C3D34271  35.736  27.819  10.001 -0.3217 -0.1000 -0.0891
 1428BOLB   C4D34272  36.003  27.380   9.995  0.0810 -0.0403 -0.1246
 1429BOLB   NC134273  10.237  14.383   6.941 -0.0533 -0.0616 -0.0555
 1429BOLB   PO134274  10.437  14.550   7.222  0.0240 -0.1273  0.0927
 1429BOLB   GL134275  10.677  14.135   7.070 -0.0080 -0.3423  0.0483
 1429BOLB   GL234276  10.741  13.856   7.273  0.1903  0.2702 -0.2187
 1429BOLB   C1A34277  10.885  13.912   6.761 -0.1214  0.1624  0.0602
 1429BOLB   C2A34278  11.088  13.651   6.463  0.3743 -0.0430 -0.0277
 1429BOLB   C3A34279  11.365  13.424   6.253  0.1174  0.2425  0.1625
 1429BOLB   C4A34280  11.596  13.122   6.180 -0.5043  0.1937 -0.0433
 1429BOLB   C1B34281  10.610  13.569   6.980  0.1668  0.1747 -0.5621
 1429BOLB   C2B34282  10.572  13.128   6.869 -0.3006  0.4265  0.0365
 1429BOLB   C3B34283  10.564  12.841   6.613  0.1781  0.3794 -0.1742
 1429BOLB   C4B34284  10.854  12.545   6.433  0.0807 -0.2920 -0.0161
 1429BOLB   NC234285  11.925  10.459   6.367  0.3316 -0.0573 -0.2003
 1429BOLB   PO234286  11.627  10.698   6.135  0.2820  0.0579  0.0071
 1429BOLB   GL334287  11.702  11.095   5.962  0.2231  0.0875  0.1813
 1429BOLB   GL434288  11.565  11.256   5.678  0.1293 -0.0066  0.2504
 1429BOLB   C1C34289  11.819  11.512   6.102 -0.1819  0.1689  0.1226
 1429BOLB   C2C34290  11.826  11.918   6.119  0.1062  0.2878 -0.0133
 1429BOLB   C3C34291  11.740  12.360   6.283 -0.1365  0.0348  0.2203
 1429BOLB   C4C34292  11.809  12.771   6.176 -0.2522 -0.3048  0.3173
 1429BOLB   C1D34293  11.372  11.616   5.842 -0.6343 -0.3390  0.1825
 1429BOLB   C2D34294  11.380  12.087   5.973  0.1277 -0.1933 -0.2194
 1429BOLB   C3D34295  11.474  12.465   5.752  0.2808  0.0749  0.2275
 1429BOLB   C4D34296  11.541  12.942   5.711  0.2483  0.1850  0.1891
 1430BOLB   NC134297   3.119  22.521   3.376 -0.0226 -0.1017 -0.0296
 1430BOLB   PO134298   3.356  23.023   3.375 -0.2696 -0.2203 -0.0675
 1430BOLB   GL134299   3.369  22.886   2.941  0.1289  0.3928  0.1750
 1430BOLB   GL234300   3.018  22.838   2.904 -0.0084 -0.0079 -0.0266
 1430BOLB   C1A34301   3.270  22.774   2.456  0.0975 -0.0955 -0.1193
 1430BOLB   C2A34302   3.172  22.879   1.990  0.0178  0.0696 -0.2658
 1430BOLB   C3A34303   2.953  23.022   1.599  0.1040 -0.0877 -0.3587
 1430BOLB   C4A34304   2.985  23.239   1.275  0.0665 -0.2585 -0.3700
 1430BOLB   C1B34305   2.880  23.053   2.639 -0.1144  0.0322 -0.2247
 1430BOLB   C2B34306   2.760  23.047   2.199  0.0738 -0.3083  0.0546
 1430BOLB   C3B34307   2.638  23.264   1.847  0.1313 -0.0583 -0.1549
 1430BOLB   C4B34308   2.410  23.373   1.507 -0.0614 -0.0607 -0.1231
 1430BOLB   NC234309   2.773  25.034  -0.683  0.3189  0.1895  0.2630
 1430BOLB   PO234310   2.965  24.699  -0.840  0.0080 -0.0902 -0.2730
 1430BOLB   GL334311   3.167  24.544  -0.449  0.3508  0.0054 -0.1790
 1430BOLB   GL434312   3.184  24.766  -0.329 -0.0544  0.1775 -0.0545
 1430BOLB   C1C34313   3.241  24.112  -0.111  0.2325 -0.2822 -0.1631
 1430BOLB   C2C34314   3.303  23.871   0.316  0.1840  0.1891  0.1503
 1430BOLB   C3C34315   3.300  23.639   0.658  0.0393 -0.2079 -0.0180
 1430BOLB   C4C34316   3.337  23.390   1.022  0.1644  0.1912  0.1867
 1430BOLB   C1D34317   3.254  24.863   0.055  0.1396 -0.3040  0.0091
 1430BOLB   C2D34318   3.544  24.977   0.162  0.0562  0.1882 -0.2864
 1430BOLB   C3D34319   4.057  24.977   0.029 -0.1651 -0.0278  0.0850
 1430BOLB   C4D34320   4.369  25.092  -0.284 -0.0725 -0.0021  0.1624
 1431BOLB   NC134321  13.008  19.232   4.386 -0.0209  0.0364 -0.2221
 1431BOLB   PO134322  13.152  19.181   4.018 -0.0092 -0.0286  0.0682
 1431BOLB   GL134323  13.648  19.240   3.973  0.1248  0.3356  0.0499
 1431BOLB   GL234324  13.879  19.057   4.246  0.1620  0.2367  0.2639
 1431BOLB   C1A34325  14.067  19.419   3.857  0.0434  0.0728 -0.0380
 1431BOLB   C2A34326  14.432  19.599   3.638 -0.2742 -0.3159  0.5378
 1431BOLB   C3A34327  14.763  19.716   3.360 -0.1175 -0.1510 -0.1069
 1431BOLB   C4A34328  15.166  19.833   3.268 -0.0934  0.0650  0.1130
 1431BOLB   C1B34329  14.173  18.972   3.969 -0.3494  0.2054 -0.4507
 1431BOLB   C2B34330  14.320  18.967   3.601  0.0198 -0.1931  0.0916
 1431BOLB   C3B34331  14.515  18.679   3.313  0.0574  0.0043  0.2880
 1431BOLB   C4B34332  14.693  18.327   3.224 -0.1204 -0.0605  0.2717
 1431BOLB   NC234333  17.071  18.485   2.320  0.0738  0.2693 -0.2571
 1431BOLB   PO234334  17.220  18.504   2.764 -0.1902  0.4349 -0.0633
 1431BOLB   GL334335  16.756  18.699   2.708 -0.3044 -0.0683 -0.1975
 1431BOLB   GL434336  16.714  19.081   2.602 -0.1413  0.5918 -0.1334
 1431BOLB   C1C34337  16.394  18.903   2.912  0.0109 -0.0630 -0.1191
 1431BOLB   C2C34338  16.183  19.271   3.131 -0.0722  0.1423  0.1538
 1431BOLB   C3C34339  15.929  19.565   3.218 -0.2723 -0.2338 -0.2279
 1431BOLB   C4C34340  15.590  19.753   3.421 -0.0526 -0.0561 -0.1956
 1431BOLB   C1D34341  16.678  19.435   2.872 -0.0675 -0.0793  0.0923
 1431BOLB   C2D34342  16.557  19.810   2.653 -0.0479 -0.2722 -0.0223
 1431BOLB   C3D34343  16.138  20.104   2.668  0.0946 -0.1712  0.2645
 1431BOLB   C4D34344  15.672  20.142   2.581 -0.0602  0.1300 -0.1750
 1432BOLB   NC134345   8.351  18.557   3.116 -0.2622  0.0366 -0.0500
 1432BOLB   PO134346   8.718  18.509   2.755 -0.1008  0.0207  0.2117
 1432BOLB   GL134347   8.951  18.315   2.371 -0.3213 -0.2169  0.1955
 1432BOLB   GL234348   8.838  18.040   2.340 -0.1867  0.2005 -0.2744
 1432BOLB   C1A34349   9.195  18.288   1.963  0.2339 -0.2028  0.1836
 1432BOLB   C2A34350   9.400  18.236   1.541  0.0227  0.3584 -0.0756
 1432BOLB   C3A34351   9.526  18.339   1.070  0.5630 -0.0875  0.2934
 1432BOLB   C4A34352   9.384  18.483   0.656  0.1475  0.3513 -0.1890
 1432BOLB   C1B34353   8.769  18.007   1.907 -0.0359  0.0299 -0.2701
 1432BOLB   C2B34354   8.842  17.618   1.698 -0.1700  0.0076  0.1671
 1432BOLB   C3B34355   9.061  17.409   1.448  0.4351 -0.2080 -0.1493
 1432BOLB   C4B34356   9.188  17.297   1.046 -0.1447 -0.1860  0.0812
 1432BOLB   NC234357  10.227  18.205  -2.052  0.0328 -0.1698 -0.1657
 1432BOLB   PO234358  10.054  18.182  -1.660  0.2726  0.1067 -0.2292
 1432BOLB   GL334359  10.083  18.316  -1.262 -0.0580 -0.0949  0.0300
 1432BOLB   GL434360  10.319  18.186  -1.112  0.0931  0.1586 -0.1649
 1432BOLB   C1C34361   9.853  18.499  -0.867 -0.1719 -0.1163  0.1830
 1432BOLB   C2C34362   9.791  18.647  -0.490 -0.1655  0.3045 -0.3677
 1432BOLB   C3C34363   9.739  18.506  -0.048 -0.2055 -0.0065 -0.2864
 1432BOLB   C4C34364   9.661  18.585   0.260  0.0540  0.1615  0.1708
 1432BOLB   C1D34365  10.242  18.230  -0.663  0.1338 -0.1653 -0.2644
 1432BOLB   C2D34366  10.264  18.512  -0.218 -0.0775 -0.2694  0.2342
 1432BOLB   C3D34367  10.198  18.596   0.167  0.0779 -0.3491 -0.0823
 1432BOLB   C4D34368   9.960  18.536   0.674  0.0568 -0.2534  0.1158
 1433BOLB   NC134369   3.965  17.010  25.201 -0.1245  0.0250 -0.2708
 1433BOLB   PO134370   3.758  16.624  25.442  0.1831 -0.0727 -0.0530
 1433BOLB   GL134371   3.683  16.661  25.896  0.1211  0.1221 -0.0252
 1433BOLB   GL234372   3.855  16.507  26.154 -0.1251 -0.4222 -0.0058
 1433BOLB   C1A34373   3.676  16.989  26.302  0.1875 -0.1474 -0.0344
 1433BOLB   C2A34374   3.799  17.246  26.581 -0.0013  0.0128 -0.2317
 1433BOLB   C3A34375   3.809  17.367  27.041 -0.0198  0.2989 -0.0757
 1433BOLB   C4A34376   3.910  17.559  27.420  0.1149  0.3244  0.0590
 1433BOLB   C1B34377   3.940  16.582  26.589  0.2568 -0.2194 -0.4638
 1433BOLB   C2B34378   4.039  16.830  26.930 -0.3385  0.1053  0.1669
 1433BOLB   C3B34379   3.923  16.965  27.303 -0.0472 -0.2579  0.0840
 1433BOLB   C4B34380   4.007  17.096  27.642 -0.1849 -0.0230  0.4056
 1433BOLB   NC234381   4.979  17.256  30.125 -0.0255 -0.1656  0.2293
 1433BOLB   PO234382   4.787  17.217  29.669 -0.0075  0.2638 -0.0573
 1433BOLB   GL334383   4.762  17.108  29.252  0.0028  0.0921 -0.4036
 1433BOLB   GL434384   4.766  16.760  29.148 -0.1137 -0.0076 -0.0849
 1433BOLB   C1C34385   4.572  17.271  28.859  0.2487  0.2412  0.1948
 1433BOLB   C2C34386   4.135  17.205  28.742 -0.2311  0.2599 -0.1113
 1433BOLB   C3C34387   3.957  17.178  28.232  0.1731 -0.3473 -0.3335
 1433BOLB   C4C34388   3.892  17.566  27.876  0.0024  0.2846 -0.3947
 1433BOLB   C1D34389   4.541  16.763  28.798  0.0236  0.0263  0.1938
 1433BOLB   C2D34390   4.441  17.017  28.412  0.4212  0.0111 -0.2362
 1433BOLB   C3D34391   4.282  16.863  28.048  0.1714  0.2993 -0.1338
 1433BOLB   C4D34392   4.130  16.404  28.006 -0.2161  0.0195  0.5132
 1434BOLB   NC134393   6.932  20.542   2.145  0.0732  0.0897  0.1309
 1434BOLB   PO134394   6.562  20.412   2.263  0.0073 -0.0783 -0.1633
 1434BOLB   GL134395   6.498  20.592   1.821  0.0188  0.2962  0.3894
 1434BOLB   GL234396   6.542  20.315   1.554 -0.2909 -0.0209  0.1996
 1434BOLB   C1A34397   6.222  20.666   1.447 -0.0288 -0.2360  0.0882
 1434BOLB   C2A34398   6.021  20.682   1.150 -0.0178 -0.0304  0.1424
 1434BOLB   C3A34399   6.144  20.580   0.753  0.1055  0.0860 -0.0248
 1434BOLB   C4A34400   6.318  20.536   0.364 -0.0892 -0.2131 -0.1166
 1434BOLB   C1B34401   6.587  20.457   1.127 -0.2186  0.0615 -0.2719
 1434BOLB   C2B34402   6.708  20.613   0.739 -0.2964  0.4029  0.2135
 1434BOLB   C3B34403   6.967  20.936   0.502  0.0490  0.2128 -0.1571
 1434BOLB   C4B34404   7.389  20.807   0.362  0.1699  0.0065  0.1593
 1434BOLB   NC234405   6.518  20.430  -1.782  0.0561  0.0364  0.1414
 1434BOLB   PO234406   6.250  20.686  -1.882  0.2867 -0.2688  0.1416
 1434BOLB   GL334407   6.203  20.789  -1.450  0.0382 -0.2130 -0.0813
 1434BOLB   GL434408   6.535  20.761  -1.435  0.0574  0.1081 -0.0599
 1434BOLB   C1C34409   6.352  20.793  -1.002  0.0265  0.0246 -0.0170
 1434BOLB   C2C34410   6.688  20.837  -0.646  0.1220  0.1332  0.0026
 1434BOLB   C3C34411   6.738  20.656  -0.295 -0.1143 -0.2682 -0.1476
 1434BOLB   C4C34412   6.520  20.465   0.050  0.1396 -0.2565  0.1558
 1434BOLB   C1D34413   6.795  20.630  -1.099 -0.4157  0.1552  0.0255
 1434BOLB   C2D34414   6.953  20.318  -0.838  0.1127  0.1937 -0.1341
 1434BOLB   C3D34415   6.732  19.990  -0.663 -0.2147 -0.1974 -0.0921
 1434BOLB   C4D34416   6.445  19.743  -0.873  0.1260 -0.2157  0.0281
 1435BOLB   NC134417  14.625  19.559   5.794 -0.2495 -0.2035  0.1234
 1435BOLB   PO134418  14.672  19.971   5.615 -0.0343 -0.1835 -0.3983
 1435BOLB   GL134419  15.076  19.982   5.510  0.1562 -0.4747 -0.0833
 1435BOLB   GL234420  15.222  20.106   5.670 -0.2106 -0.2748  0.3101
 1435BOLB   C1A34421  15.392  19.866   5.194 -0.2142  0.1135  0.1212
 1435BOLB   C2A34422  15.784  19.661   4.948  0.1062 -0.0537  0.1367
 1435BOLB   C3A34423  15.805  19.580   4.425 -0.1352  0.2741  0.1612
 1435BOLB   C4A34424  16.144  19.331   4.176  0.3565 -0.5090  0.0015
 1435BOLB   C1B34425  15.605  20.225   5.529 -0.3197 -0.0730  0.1395
 1435BOLB   C2B34426  16.119  20.290   5.414 -0.0439  0.0339 -0.1598
 1435BOLB   C3B34427  16.423  20.184   5.175  0.1551  0.0746  0.2723
 1435BOLB   C4B34428  16.803  20.000   4.927 -0.2008  0.3506 -0.3433
 1435BOLB   NC234429  16.880  17.083   3.740  0.0202  0.0984 -0.1148
 1435BOLB   PO234430  17.116  17.284   3.322  0.3141 -0.0431 -0.1145
 1435BOLB   GL334431  16.757  17.614   3.409  0.0204  0.1161 -0.1094
 1435BOLB   GL434432  16.874  17.862   3.154  0.0396 -0.3216 -0.3090
 1435BOLB   C1C34433  16.657  17.884   3.607  0.1207 -0.3385 -0.0558
 1435BOLB   C2C34434  16.533  18.372   3.675  0.2996  0.2744  0.7532
 1435BOLB   C3C34435  16.670  18.693   3.821  0.2087  0.1025 -0.2023
 1435BOLB   C4C34436  16.443  18.987   4.167  0.1354  0.0758  0.4771
 1435BOLB   C1D34437  16.699  18.244   3.242  0.1869  0.3628 -0.1759
 1435BOLB   C2D34438  16.277  18.574   3.285  0.1526  0.0597 -0.3551
 1435BOLB   C3D34439  15.869  18.793   3.274  0.0669 -0.1935  0.0680
 1435BOLB   C4D34440  15.693  19.191   3.498 -0.0008  0.0480 -0.0059
 1436BOLB   NC134441  37.624  23.803  13.472 -0.0090 -0.0123  0.2022
 1436BOLB   PO134442  37.968  23.538  13.747  0.1735 -0.0699 -0.3757
 1436BOLB   GL134443  37.613  23.809  13.959  0.2754  0.0521  0.1073
 1436BOLB   GL234444  37.653  24.034  14.115 -0.2122 -0.2407  0.4001
 1436BOLB   C1A34445  37.138  23.850  14.072  0.1755  0.1946  0.1301
 1436BOLB   C2A34446  36.651  24.098  14.162  0.2971 -0.1163  0.1087
 1436BOLB   C3A34447  36.426  24.301  14.497  0.2937 -0.3188  0.1640
 1436BOLB   C4A34448  36.183  24.341  14.851  0.0571 -0.1468 -0.0904
 1436BOLB   C1B34449  37.351  24.418  14.066 -0.1569 -0.0188 -0.0629
 1436BOLB   C2B34450  37.289  24.744  14.372 -0.0561 -0.2038 -0.3304
 1436BOLB   C3B34451  37.069  24.951  14.772 -0.4172  0.2014 -0.5275
 1436BOLB   C4B34452  37.223  25.188  15.054  0.0443 -0.2827 -0.0558
 1436BOLB   NC234453  34.870  26.381  14.883  0.0560 -0.0027  0.1923
 1436BOLB   PO234454  34.481  26.203  15.124  0.0094 -0.1198  0.2677
 1436BOLB   GL334455  34.558  25.829  14.810  0.2038  0.3296  0.0084
 1436BOLB   GL434456  34.485  25.791  14.523 -0.2589 -0.0573  0.1545
 1436BOLB   C1C34457  34.967  25.639  14.776 -0.0597 -0.1692 -0.1152
 1436BOLB   C2C34458  35.097  25.209  14.794 -0.3092  0.2552  0.3107
 1436BOLB   C3C34459  35.450  24.959  14.908  0.2270  0.1301 -0.2776
 1436BOLB   C4C34460  35.816  24.620  14.973  0.3099 -0.0405  0.1316
 1436BOLB   C1D34461  34.647  25.420  14.435  0.0091  0.2706 -0.0753
 1436BOLB   C2D34462  34.653  25.101  14.035 -0.0863 -0.1518 -0.1370
 1436BOLB   C3D34463  34.488  24.775  13.763 -0.1683  0.1655  0.0661
 1436BOLB   C4D34464  34.461  24.599  13.359  0.0649 -0.1142 -0.1697
 1437BOLB   NC134465   9.027  27.842   7.723  0.1418 -0.2510 -0.2283
 1437BOLB   PO134466   9.263  28.214   7.934 -0.0347 -0.0352  0.0707
 1437BOLB   GL134467   9.542  28.519   7.671  0.0862  0.3764  0.0302
 1437BOLB   GL234468   9.867  28.503   7.778  0.0382  0.0408 -0.0665
 1437BOLB   C1A34469   9.650  28.920   7.442  0.1818 -0.3735 -0.2067
 1437BOLB   C2A34470   9.994  29.109   7.637  0.0090 -0.3270  0.0703
 1437BOLB   C3A34471  10.146  29.530   7.711 -0.1078  0.0649 -0.0059
 1437BOLB   C4A34472  10.112  29.857   7.584 -0.0734  0.3442  0.1596
 1437BOLB   C1B34473  10.103  28.651   7.453 -0.1370 -0.0997 -0.2981
 1437BOLB   C2B34474  10.361  28.699   7.122  0.0071 -0.1673  0.0746
 1437BOLB   C3B34475  10.754  28.494   6.835  0.4271 -0.0838  0.1196
 1437BOLB   C4B34476  11.059  28.503   6.496 -0.2638  0.2468 -0.0128
 1437BOLB   NC234477  11.279  31.840   6.688 -0.1740  0.0650  0.0687
 1437BOLB   PO234478  11.088  32.015   7.094  0.0047 -0.0516  0.0732
 1437BOLB   GL334479  11.160  31.571   7.239 -0.1019 -0.0970 -0.0968
 1437BOLB   GL434480  11.242  31.407   7.592  0.1516 -0.3749 -0.0608
 1437BOLB   C1C34481  10.802  31.259   7.372 -0.1735 -0.1873 -0.3674
 1437BOLB   C2C34482  10.472  30.967   7.312  0.2602 -0.0971  0.0975
 1437BOLB   C3C34483  10.216  30.711   7.478  0.2786 -0.4336  0.1505
 1437BOLB   C4C34484  10.296  30.241   7.530  0.0093 -0.1346  0.0536
 1437BOLB   C1D34485  11.336  31.000   7.725  0.1840  0.2063 -0.2238
 1437BOLB   C2D34486  11.536  30.707   7.916  0.1186  0.1595  0.1332
 1437BOLB   C3D34487  11.872  30.455   7.982  0.1468  0.0777 -0.3183
 1437BOLB   C4D34488  12.040  30.100   8.038 -0.0151  0.1284  0.1794
 1438BOLB   NC134489   6.746  27.778   6.538 -0.1723  0.0933 -0.0641
 1438BOLB   PO134490   6.638  28.196   6.386 -0.0825  0.0183 -0.3804
 1438BOLB   GL134491   6.634  28.581   6.196 -0.1438 -0.2491  0.1215
 1438BOLB   GL234492   6.399  28.572   6.105  0.2281  0.0030  0.2163
 1438BOLB   C1A34493   6.647  29.027   6.046  0.1760  0.1680  0.0659
 1438BOLB   C2A34494   6.317  29.428   5.884  0.1214  0.1682 -0.1829
 1438BOLB   C3A34495   6.268  29.850   5.752  0.3012  0.2036  0.0753
 1438BOLB   C4A34496   6.639  30.223   5.728 -0.1556  0.0761 -0.0342
 1438BOLB   C1B34497   6.282  28.672   5.766 -0.0048 -0.0639  0.2953
 1438BOLB   C2B34498   6.309  29.021   5.546 -0.0014 -0.0668  0.0729
 1438BOLB   C3B34499   6.048  29.363   5.346  0.0655 -0.0385 -0.2361
 1438BOLB   C4B34500   5.811  29.418   5.083  0.0933 -0.2115 -0.0607
 1438BOLB   NC234501   6.670  32.832   6.336  0.1189 -0.0208  0.0432
 1438BOLB   PO234502   6.969  32.422   6.345 -0.1381 -0.1993 -0.1213
 1438BOLB   GL334503   6.972  32.001   6.317  0.0919 -0.2258  0.1166
 1438BOLB   GL434504   6.873  31.920   5.967  0.1933  0.0478  0.0152
 1438BOLB   C1C34505   7.026  31.618   6.360 -0.1897  0.2936 -0.0780
 1438BOLB   C2C34506   6.689  31.272   6.218 -0.0911 -0.3014  0.0771
 1438BOLB   C3C34507   6.924  30.931   6.220  0.3431  0.1883 -0.0953
 1438BOLB   C4C34508   6.844  30.526   6.085  0.2973  0.1092 -0.0336
 1438BOLB   C1D34509   6.903  31.586   5.897  0.1641  0.3834  0.1637
 1438BOLB   C2D34510   7.077  31.131   5.724  0.2043  0.2757  0.0033
 1438BOLB   C3D34511   7.321  30.798   5.839 -0.0044 -0.0696  0.3691
 1438BOLB   C4D34512   7.608  30.480   5.886 -0.1489 -0.0353 -0.1911
 1439BOLB   NC134513  12.645  26.025  13.533 -0.0367  0.0262  0.1217
 1439BOLB   PO134514  12.325  25.918  13.771 -0.1305  0.0887 -0.4369
 1439BOLB   GL134515  12.442  26.345  13.913 -0.0931  0.3434 -0.2337
 1439BOLB   GL234516  12.248  26.549  14.125 -0.2294 -0.0107 -0.0108
 1439BOLB   C1A34517  12.689  26.494  14.179  0.0896  0.0597 -0.0761
 1439BOLB   C2A34518  13.120  26.726  14.375  0.1485 -0.0071  0.2206
 1439BOLB   C3A34519  13.223  26.989  14.695 -0.0546 -0.0185  0.0106
 1439BOLB   C4A34520  13.609  27.103  14.808 -0.2922 -0.2485 -0.0624
 1439BOLB   C1B34521  12.358  26.808  14.290 -0.1223 -0.2245  0.0657
 1439BOLB   C2B34522  12.750  27.036  14.371 -0.0631 -0.1182  0.2755
 1439BOLB   C3B34523  12.823  27.309  14.638 -0.2416  0.0435  0.0795
 1439BOLB   C4B34524  12.873  27.448  14.952 -0.2159  0.0401  0.1290
 1439BOLB   NC234525  14.786  28.009  16.432  0.0097  0.0285 -0.0365
 1439BOLB   PO234526  15.109  28.219  16.149 -0.1148  0.0319  0.0639
 1439BOLB   GL334527  14.744  27.965  15.875 -0.1688  0.1959  0.3258
 1439BOLB   GL434528  14.467  28.091  16.009  0.1646 -0.0546  0.1496
 1439BOLB   C1C34529  14.501  27.673  15.604  0.1176  0.1101  0.0243
 1439BOLB   C2C34530  14.487  27.326  15.444 -0.1651 -0.1616 -0.0600
 1439BOLB   C3C34531  14.193  26.958  15.448  0.3166 -0.1143 -0.0634
 1439BOLB   C4C34532  13.892  26.905  15.189  0.3255 -0.0996 -0.0776
 1439BOLB   C1D34533  14.198  28.144  15.603 -0.0514  0.2394 -0.4240
 1439BOLB   C2D34534  13.898  28.254  15.208  0.1862  0.2205 -0.1124
 1439BOLB   C3D34535  13.780  27.966  14.890  0.0242 -0.3824  0.0190
 1439BOLB   C4D34536  13.728  27.736  14.559  0.1733 -0.3301 -0.1186
 1440BOLB   NC134537   6.789  28.372  14.212 -0.1150  0.5001  0.2971
 1440BOLB   PO134538   6.832  28.207  14.597 -0.1279  0.2261  0.0277
 1440BOLB   GL134539   6.748  28.643  14.623 -0.1703 -0.2931 -0.1344
 1440BOLB   GL234540   6.536  28.814  14.579  0.2033  0.0180 -0.0691
 1440BOLB   C1A34541   6.744  29.063  14.976  0.1667  0.0830 -0.0504
 1440BOLB   C2A34542   6.570  29.568  14.941  0.0103 -0.0480 -0.1275
 1440BOLB   C3A34543   6.743  29.873  15.258  0.4165  0.1095  0.1715
 1440BOLB   C4A34544   6.712  30.219  15.487 -0.1062  0.0773 -0.0512
 1440BOLB   C1B34545   6.504  29.352  14.500 -0.0971 -0.1045 -0.3319
 1440BOLB   C2B34546   6.652  29.746  14.324 -0.1246  0.0017  0.1361
 1440BOLB   C3B34547   6.510  29.957  14.003  0.2220 -0.0226 -0.0472
 1440BOLB   C4B34548   6.530  30.437  13.971  0.0768  0.0397 -0.0976
 1440BOLB   NC234549   5.581  32.451  16.179  0.1262 -0.4909  0.1834
 1440BOLB   PO234550   5.549  32.277  15.714  0.1208  0.0382 -0.0285
 1440BOLB   GL334551   5.660  31.819  15.633  0.2071  0.0071 -0.0901
 1440BOLB   GL434552   5.471  31.527  15.750 -0.3846 -0.2418 -0.1844
 1440BOLB   C1C34553   5.947  31.512  15.446  0.0263  0.0140  0.3342
 1440BOLB   C2C34554   6.062  31.176  15.209 -0.1342  0.1996 -0.0491
 1440BOLB   C3C34555   6.452  30.958  15.199  0.1892 -0.1531  0.0319
 1440BOLB   C4C34556   6.534  30.535  15.373 -0.0198 -0.0382 -0.2362
 1440BOLB   C1D34557   5.450  31.324  15.333 -0.0216 -0.2515  0.3183
 1440BOLB   C2D34558   5.254  31.177  14.945 -0.1435  0.2876 -0.0764
 1440BOLB   C3D34559   5.046  31.216  14.501  0.2468  0.0417 -0.2536
 1440BOLB   C4D34560   5.087  31.202  14.095  0.2672 -0.0657  0.2028
 1441BOLB   NC134561   4.817  17.788  17.593 -0.2739  0.0239 -0.3080
 1441BOLB   PO134562   4.797  17.418  17.494 -0.3384 -0.1447  0.1618
 1441BOLB   GL134563   4.873  17.298  17.960  0.1656 -0.0419  0.1092
 1441BOLB   GL234564   4.655  17.510  18.154 -0.1551 -0.0306  0.2664
 1441BOLB   C1A34565   5.125  17.234  18.290  0.0193 -0.3689  0.0569
 1441BOLB   C2A34566   5.297  17.046  18.717  0.0235  0.1603 -0.0211
 1441BOLB   C3A34567   5.459  16.994  19.148 -0.0436  0.0374  0.1593
 1441BOLB   C4A34568   5.977  16.859  19.293 -0.0239 -0.0985  0.0476
 1441BOLB   C1B34569   4.528  17.298  18.439 -0.0266  0.0882  0.0048
 1441BOLB   C2B34570   4.665  17.207  18.890 -0.0204  0.2002 -0.2764
 1441BOLB   C3B34571   4.620  17.170  19.259 -0.2125 -0.0193  0.0439
 1441BOLB   C4B34572   4.303  17.107  19.522  0.0759  0.0775 -0.1863
 1441BOLB   NC234573   5.988  15.020  20.768  0.0704  0.1286  0.0005
 1441BOLB   PO234574   6.325  15.351  21.084  0.2544  0.4051  0.1589
 1441BOLB   GL334575   6.383  15.336  20.689  0.1220 -0.4551  0.2510
 1441BOLB   GL434576   6.028  15.477  20.658  0.1633  0.1386  0.2660
 1441BOLB   C1C34577   6.438  15.691  20.452  0.0794 -0.0252  0.4388
 1441BOLB   C2C34578   6.200  16.013  20.258 -0.1712 -0.3035  0.0540
 1441BOLB   C3C34579   6.117  16.283  19.972  0.0984 -0.0030 -0.1711
 1441BOLB   C4C34580   6.093  16.563  19.650 -0.0654 -0.1121 -0.1615
 1441BOLB   C1D34581   5.980  15.444  20.262 -0.1609 -0.3076  0.1758
 1441BOLB   C2D34582   5.887  15.733  19.987  0.2596  0.0055 -0.1363
 1441BOLB   C3D34583   5.987  15.968  19.624 -0.0158  0.1891 -0.2705
 1441BOLB   C4D34584   6.153  15.821  19.240  0.1323  0.1309  0.1323
 1442BOLB   NC134585  38.229  23.877  15.051 -0.2045  0.1497 -0.0123
 1442BOLB   PO134586  38.151  23.529  14.629  0.1125  0.1077  0.0925
 1442BOLB   GL134587  37.720  23.554  14.739 -0.3370 -0.0475 -0.0369
 1442BOLB   GL234588  37.420  23.812  14.544  0.0874  0.1580 -0.2541
 1442BOLB   C1A34589  37.244  23.605  14.968  0.1468  0.1101 -0.0376
 1442BOLB   C2A34590  36.918  23.722  15.180  0.3881  0.1696  0.3956
 1442BOLB   C3A34591  36.554  23.815  15.092 -0.0368  0.0179  0.0273
 1442BOLB   C4A34592  36.376  24.141  15.234 -0.5630  0.0301 -0.0331
 1442BOLB   C1B34593  37.271  24.207  14.497  0.1133  0.0684  0.0530
 1442BOLB   C2B34594  36.956  24.475  14.527 -0.0006  0.0324 -0.0434
 1442BOLB   C3B34595  36.676  24.765  14.456  0.0412  0.1552 -0.2518
 1442BOLB   C4B34596  36.586  25.225  14.546  0.0666  0.3242  0.0538
 1442BOLB   NC234597  35.933  26.552  16.864 -0.1625  0.0985  0.0844
 1442BOLB   PO234598  35.791  26.163  16.515  0.0684 -0.3931 -0.0920
 1442BOLB   GL334599  36.031  25.803  16.389 -0.0222 -0.0630 -0.1414
 1442BOLB   GL434600  36.080  25.830  16.093 -0.2779  0.3463 -0.2625
 1442BOLB   C1C34601  36.078  25.308  16.341 -0.0852 -0.0847 -0.2254
 1442BOLB   C2C34602  35.910  25.064  15.995  0.0181  0.1323 -0.1088
 1442BOLB   C3C34603  36.124  24.888  15.594  0.3497 -0.3131  0.1430
 1442BOLB   C4C34604  36.200  24.528  15.315 -0.1944  0.1283 -0.2627
 1442BOLB   C1D34605  36.222  25.881  15.673 -0.0555  0.1431 -0.0629
 1442BOLB   C2D34606  36.638  25.824  15.466  0.2882 -0.1012  0.0743
 1442BOLB   C3D34607  36.834  25.590  15.288 -0.0714 -0.1930 -0.0636
 1442BOLB   C4D34608  36.763  25.353  14.972 -0.2817  0.0102 -0.3835
 1443BOLB   NC134609   4.605  19.664  18.114 -0.0742 -0.0242 -0.3928
 1443BOLB   PO134610   4.762  19.527  18.441  0.0448  0.1321  0.0770
 1443BOLB   GL134611   4.703  19.335  18.759  0.0867 -0.1456 -0.0645
 1443BOLB   GL234612   4.948  19.080  18.926 -0.0468 -0.0365 -0.0991
 1443BOLB   C1A34613   4.598  19.518  19.203 -0.0736  0.1889 -0.2279
 1443BOLB   C2A34614   4.682  19.398  19.653 -0.2941  0.3385  0.0569
 1443BOLB   C3A34615   4.917  19.361  20.067  0.0799 -0.3285 -0.1687
 1443BOLB   C4A34616   5.157  19.378  20.388 -0.2926 -0.0173  0.2207
 1443BOLB   C1B34617   4.878  19.099  19.293 -0.0870  0.1283  0.0982
 1443BOLB   C2B34618   4.851  18.944  19.653 -0.3781  0.0017 -0.0888
 1443BOLB   C3B34619   5.000  18.858  20.092  0.1800  0.0648  0.1508
 1443BOLB   C4B34620   4.926  18.874  20.475 -0.1038 -0.0217 -0.3224
 1443BOLB   NC234621   5.875  18.982  22.182 -0.0070  0.2036 -0.0949
 1443BOLB   PO234622   5.478  18.754  22.049  0.0191  0.2247  0.1197
 1443BOLB   GL334623   5.278  18.949  21.676 -0.2064  0.2196  0.1072
 1443BOLB   GL434624   5.061  19.072  21.867 -0.1265  0.1517 -0.3158
 1443BOLB   C1C34625   5.494  18.869  21.265  0.2998 -0.0348  0.0462
 1443BOLB   C2C34626   5.857  18.911  21.035 -0.0403  0.1039 -0.3992
 1443BOLB   C3C34627   5.897  19.172  20.684  0.3415 -0.1904 -0.0944
 1443BOLB   C4C34628   5.568  19.357  20.473 -0.2263 -0.1679  0.1946
 1443BOLB   C1D34629   4.772  19.344  21.714 -0.1854  0.1160 -0.4548
 1443BOLB   C2D34630   4.616  19.556  21.355  0.3099  0.0359 -0.1043
 1443BOLB   C3D34631   4.763  19.534  20.915  0.0636  0.1779 -0.4584
 1443BOLB   C4D34632   4.665  19.544  20.501 -0.3507 -0.0578  0.2084
 1444BOLB   NC134633   2.175  26.871   8.304  0.2033  0.1424  0.2309
 1444BOLB   PO134634   1.876  27.197   8.241  0.2849  0.1693  0.2917
 1444BOLB   GL134635   1.948  27.584   7.901 -0.1663  0.1834  0.0068
 1444BOLB   GL234636   2.226  27.603   7.638  0.1710  0.0206  0.2067
 1444BOLB   C1A34637   1.635  27.899   7.639 -0.0988  0.2882  0.0423
 1444BOLB   C2A34638   1.320  27.797   7.393 -0.0565  0.0285  0.1585
 1444BOLB   C3A34639   0.969  27.799   7.291  0.0676 -0.1226  0.0057
 1444BOLB   C4A34640   0.546  27.953   7.403 -0.0225 -0.0185  0.1317
 1444BOLB   C1B34641   2.010  27.838   7.366  0.2182  0.0596 -0.0824
 1444BOLB   C2B34642   1.880  28.190   7.196 -0.0608  0.0837 -0.0166
 1444BOLB   C3B34643   1.792  28.590   7.278  0.2521 -0.1060  0.2963
 1444BOLB   C4B34644   2.237  28.657   7.357  0.1846 -0.0981  0.1092
 1444BOLB   NC234645  -0.748  29.942   5.913  0.4260  0.0095  0.1166
 1444BOLB   PO234646  -0.542  29.678   6.243  0.0716  0.0207  0.0621
 1444BOLB   GL334647  -0.281  29.316   6.365  0.0309 -0.0039  0.1195
 1444BOLB   GL434648   0.013  29.433   6.287  0.2610  0.1503  0.0774
 1444BOLB   C1C34649  -0.234  28.949   6.537 -0.0140 -0.0211 -0.0445
 1444BOLB   C2C34650  -0.291  28.835   7.074 -0.0606  0.1817  0.0004
 1444BOLB   C3C34651  -0.172  28.431   7.340 -0.1632 -0.0943  0.1397
 1444BOLB   C4C34652   0.112  28.047   7.343 -0.0915 -0.2135 -0.0624
 1444BOLB   C1D34653   0.293  29.169   6.573 -0.0519 -0.0933  0.0264
 1444BOLB   C2D34654   0.293  29.044   6.805 -0.0041 -0.2989 -0.1812
 1444BOLB   C3D34655   0.354  28.866   7.218 -0.0678 -0.3330 -0.2033
 1444BOLB   C4D34656   0.390  28.464   7.369  0.1886  0.0324  0.1332
 1445BOLB   NC134657  14.193  24.537   9.533 -0.2724  0.0315 -0.1013
 1445BOLB   PO134658  14.309  24.174   9.418 -0.2003  0.0795 -0.0575
 1445BOLB   GL134659  14.698  24.371   9.548 -0.1162 -0.0086 -0.2926
 1445BOLB   GL234660  14.885  24.398   9.382  0.2039 -0.2544  0.1300
 1445BOLB   C1A34661  15.029  24.807   9.684  0.1433  0.0648  0.1335
 1445BOLB   C2A34662  15.363  25.004   9.489 -0.2497  0.1380 -0.0949
 1445BOLB   C3A34663  15.784  25.155   9.545  0.0436 -0.0899 -0.1183
 1445BOLB   C4A34664  16.239  25.240   9.341 -0.0546 -0.1428 -0.0380
 1445BOLB   C1B34665  15.343  24.603   9.177  0.5119  0.0202  0.4404
 1445BOLB   C2B34666  15.752  24.736   9.266 -0.2290 -0.2227 -0.0861
 1445BOLB   C3B34667  16.107  24.920   8.956 -0.0056  0.1100  0.1993
 1445BOLB   C4B34668  16.581  24.877   8.866  0.2309 -0.3487 -0.1874
 1445BOLB   NC234669  17.646  27.170   9.037 -0.4065  0.1999  0.3329
 1445BOLB   PO234670  17.500  27.141   9.476  0.2470 -0.0398  0.0974
 1445BOLB   GL334671  17.404  26.708   9.200 -0.1602 -0.0151 -0.0717
 1445BOLB   GL434672  17.445  26.700   8.846  0.2555 -0.1500 -0.1582
 1445BOLB   C1C34673  17.280  26.235   9.044 -0.0161 -0.0959  0.1111
 1445BOLB   C2C34674  17.154  25.828   8.907 -0.1140 -0.0170  0.0935
 1445BOLB   C3C34675  16.816  25.483   9.046 -0.1676  0.4968  0.1975
 1445BOLB   C4C34676  16.554  25.347   9.266  0.1029  0.1362 -0.2689
 1445BOLB   C1D34677  17.075  26.446   8.627  0.0489 -0.0370 -0.1037
 1445BOLB   C2D34678  16.794  26.132   8.777 -0.1369  0.0688  0.0184
 1445BOLB   C3D34679  16.639  25.622   8.618  0.1741  0.0091 -0.2688
 1445BOLB   C4D34680  16.316  25.467   8.883  0.2167 -0.0365  0.3698
 1446BOLB   NC134681   2.630  19.862   3.043 -0.2423 -0.2661  0.2259
 1446BOLB   PO134682   2.556  20.289   3.178 -0.2522 -0.1907  0.0975
 1446BOLB   GL134683   2.411  20.275   2.814  0.0337 -0.2558  0.1170
 1446BOLB   GL234684   2.650  20.266   2.617 -0.0312 -0.0013 -0.1831
 1446BOLB   C1A34685   2.236  20.012   2.532 -0.0591  0.0938 -0.1009
 1446BOLB   C2A34686   1.802  20.033   2.385 -0.0509 -0.2780 -0.0402
 1446BOLB   C3A34687   1.536  19.945   1.976 -0.0926  0.4041  0.0004
 1446BOLB   C4A34688   1.320  19.919   1.597  0.1814 -0.0083 -0.1484
 1446BOLB   C1B34689   2.291  20.553   2.406 -0.1951 -0.3089 -0.0278
 1446BOLB   C2B34690   2.196  20.734   2.056 -0.2281 -0.0448 -0.0582
 1446BOLB   C3B34691   2.197  20.544   1.643 -0.1388 -0.2475  0.0094
 1446BOLB   C4B34692   2.413  20.828   1.250 -0.2200  0.1904 -0.1426
 1446BOLB   NC234693   1.009  18.994  -0.168  0.0750 -0.1234  0.2033
 1446BOLB   PO234694   1.008  19.429  -0.261 -0.2029  0.0300  0.0339
 1446BOLB   GL334695   1.035  19.472   0.097 -0.0797 -0.0457  0.1746
 1446BOLB   GL434696   1.196  19.176   0.214 -0.0887  0.0002  0.2723
 1446BOLB   C1C34697   1.082  19.854   0.302  0.0544  0.1089  0.2222
 1446BOLB   C2C34698   0.890  20.173   0.584 -0.2388  0.1545  0.1786
 1446BOLB   C3C34699   1.033  20.323   0.955  0.0335  0.1129 -0.0160
 1446BOLB   C4C34700   1.216  20.197   1.338  0.0364  0.1346 -0.0332
 1446BOLB   C1D34701   0.968  19.431   0.623 -0.6553 -0.1134  0.2726
 1446BOLB   C2D34702   0.957  19.794   0.875 -0.0321  0.4212  0.4713
 1446BOLB   C3D34703   0.838  19.895   1.272 -0.3033  0.0868  0.1404
 1446BOLB   C4D34704   0.784  20.146   1.617 -0.3648 -0.1398 -0.0982
 1447BOLB   NC134705  12.302  26.155   8.274 -0.4371  0.1101  0.0241
 1447BOLB   PO134706  12.718  26.071   8.281  0.2025  0.1015 -0.0748
 1447BOLB   GL134707  13.019  26.443   8.242 -0.0483  0.0746  0.4098
 1447BOLB   GL234708  13.110  26.642   8.506 -0.1770 -0.1779 -0.0256
 1447BOLB   C1A34709  13.390  26.552   7.951 -0.2079  0.0863  0.0075
 1447BOLB   C2A34710  13.597  26.946   7.886  0.0450  0.1736 -0.1687
 1447BOLB   C3A34711  13.792  27.345   7.717 -0.0348  0.3984 -0.3693
 1447BOLB   C4A34712  14.285  27.482   7.707  0.0616 -0.0921  0.1253
 1447BOLB   C1B34713  13.263  27.025   8.225 -0.0706 -0.0370 -0.4707
 1447BOLB   C2B34714  13.764  27.232   8.277 -0.1187 -0.1760 -0.3295
 1447BOLB   C3B34715  14.185  27.407   8.196  0.0030  0.2066 -0.0934
 1447BOLB   C4B34716  14.631  27.375   8.092  0.0293  0.0784 -0.4144
 1447BOLB   NC234717  16.310  29.560   8.227  0.1631  0.2570 -0.0855
 1447BOLB   PO234718  15.929  29.275   8.144 -0.2262  0.0839 -0.0080
 1447BOLB   GL334719  15.634  28.991   8.154  0.0340 -0.1136 -0.0928
 1447BOLB   GL434720  15.435  28.966   8.277 -0.2911  0.0433  0.0683
 1447BOLB   C1C34721  15.516  28.545   8.094 -0.2210  0.3929 -0.0906
 1447BOLB   C2C34722  15.377  28.281   7.771  0.1860  0.3563  0.1916
 1447BOLB   C3C34723  14.985  28.083   7.586  0.0281 -0.1095 -0.0546
 1447BOLB   C4C34724  14.612  27.816   7.603  0.2686  0.0959 -0.4590
 1447BOLB   C1D34725  15.125  28.884   8.029 -0.0894  0.1696  0.0004
 1447BOLB   C2D34726  14.889  28.602   7.828  0.2225 -0.1688 -0.0064
 1447BOLB   C3D34727  14.703  28.263   7.966 -0.2887  0.2327  0.0481
 1447BOLB   C4D34728  14.802  27.911   8.062  0.1069  0.1914  0.1846
 1448BOLB   NC134729   9.338  28.214   9.644 -0.0590  0.1917  0.1443
 1448BOLB   PO134730   9.699  28.427   9.301 -0.3195  0.2544 -0.3237
 1448BOLB   GL134731   9.917  28.857   9.459 -0.1134 -0.1769  0.6076
 1448BOLB   GL234732   9.605  29.138   9.636 -0.1082 -0.1222  0.0010
 1448BOLB   C1A34733  10.172  29.279   9.396  0.0657 -0.1405 -0.2976
 1448BOLB   C2A34734  10.401  29.632   9.429 -0.2197  0.1368 -0.4978
 1448BOLB   C3A34735  10.528  30.122   9.397 -0.1492  0.2466  0.3647
 1448BOLB   C4A34736  10.546  30.525   9.638  0.1142  0.2011  0.0248
 1448BOLB   C1B34737   9.763  29.473   9.577  0.1141  0.0291  0.3491
 1448BOLB   C2B34738   9.979  29.916   9.499 -0.0775  0.0840 -0.2076
 1448BOLB   C3B34739  10.081  30.335   9.496 -0.1204  0.3811 -0.1361
 1448BOLB   C4B34740  10.342  30.552   9.159 -0.0068 -0.0238 -0.2414
 1448BOLB   NC234741  11.859  32.336   9.748 -0.0064  0.0550  0.1700
 1448BOLB   PO234742  12.239  32.053   9.651 -0.0859  0.1389 -0.3153
 1448BOLB   GL334743  12.066  31.638   9.521  0.4696  0.2998  0.0426
 1448BOLB   GL434744  11.797  31.815   9.537  0.2315 -0.3236 -0.1334
 1448BOLB   C1C34745  11.897  31.338   9.759 -0.2557 -0.1343  0.1558
 1448BOLB   C2C34746  11.509  31.188  10.011  0.1451  0.0688  0.1202
 1448BOLB   C3C34747  11.090  31.042   9.849  0.0281  0.0226  0.0756
 1448BOLB   C4C34748  11.050  30.699   9.695  0.1361 -0.3379  0.0216
 1448BOLB   C1D34749  11.420  31.607   9.741 -0.2632  0.0885  0.3668
 1448BOLB   C2D34750  11.133  31.489   9.416  0.2047 -0.0154  0.0835
 1448BOLB   C3D34751  10.982  31.026   9.288  0.3933 -0.0913  0.0586
 1448BOLB   C4D34752  10.836  30.669   9.084 -0.2751 -0.3234 -0.0423
 1449BOLB   NC134753  14.643  22.056  13.335  0.3419 -0.1048  0.0346
 1449BOLB   PO134754  14.950  22.089  12.910  0.0874  0.1151 -0.2408
 1449BOLB   GL134755  15.160  21.948  13.082  0.2724  0.1639 -0.1355
 1449BOLB   GL234756  15.123  21.938  13.443  0.0020 -0.0119  0.1304
 1449BOLB   C1A34757  15.568  21.802  13.173 -0.1546 -0.0657 -0.0371
 1449BOLB   C2A34758  16.052  21.742  13.107  0.1062 -0.3387  0.0304
 1449BOLB   C3A34759  16.435  21.790  13.056 -0.0759 -0.2060 -0.3166
 1449BOLB   C4A34760  16.871  22.016  13.147  0.1543  0.1305  0.4847
 1449BOLB   C1B34761  15.379  21.946  13.923  0.0844  0.0976 -0.1008
 1449BOLB   C2B34762  15.686  22.118  14.179  0.0446  0.0572  0.2655
 1449BOLB   C3B34763  15.862  22.340  14.407  0.2555 -0.3399 -0.2564
 1449BOLB   C4B34764  16.017  22.783  14.431 -0.1835 -0.1370 -0.2332
 1449BOLB   NC234765  18.935  21.307  13.061  0.1889  0.0858 -0.0018
 1449BOLB   PO234766  18.845  20.992  13.373 -0.1989 -0.1673 -0.2839
 1449BOLB   GL334767  18.489  20.755  13.261 -0.1003  0.1562 -0.1278
 1449BOLB   GL434768  18.412  20.499  13.271 -0.1855  0.3428 -0.1654
 1449BOLB   C1C34769  18.015  20.733  13.019 -0.0081  0.1106  0.0500
 1449BOLB   C2C34770  17.633  21.091  12.950  0.1723 -0.1188  0.0613
 1449BOLB   C3C34771  17.335  21.443  13.060 -0.4091  0.1133 -0.1543
 1449BOLB   C4C34772  17.278  21.871  13.156 -0.1654  0.0848  0.0751
 1449BOLB   C1D34773  18.303  20.201  12.834  0.1415 -0.1935  0.0003
 1449BOLB   C2D34774  17.846  20.340  12.749 -0.0356 -0.0267 -0.1801
 1449BOLB   C3D34775  17.579  20.606  12.878 -0.1930  0.1876 -0.0575
 1449BOLB   C4D34776  17.152  20.577  13.148 -0.5252 -0.2988 -0.0554
 1450BOLB   NC134777   5.035  16.801   3.126  0.1005  0.1584 -0.2934
 1450BOLB   PO134778   5.447  16.672   3.148  0.1017 -0.3351  0.2392
 1450BOLB   GL134779   5.300  16.501   2.790 -0.0940  0.0042  0.3361
 1450BOLB   GL234780   5.183  16.169   2.830 -0.0523  0.3137 -0.2723
 1450BOLB   C1A34781   4.944  16.408   2.418 -0.1096  0.0415  0.1270
 1450BOLB   C2A34782   4.989  16.643   2.041  0.3798  0.2880 -0.1342
 1450BOLB   C3A34783   4.875  16.701   1.711 -0.0823 -0.0323  0.0448
 1450BOLB   C4A34784   4.896  16.601   1.357 -0.0940 -0.0218  0.1270
 1450BOLB   C1B34785   5.477  16.003   2.553 -0.0844  0.1641 -0.1141
 1450BOLB   C2B34786   5.519  15.839   2.113  0.1978  0.1486  0.0054
 1450BOLB   C3B34787   5.692  15.569   1.788 -0.2530  0.4344  0.1661
 1450BOLB   C4B34788   5.652  15.166   1.583  0.0099 -0.2614 -0.0303
 1450BOLB   NC234789   4.855  16.892  -1.459 -0.1566 -0.1366 -0.2106
 1450BOLB   PO234790   4.778  16.761  -1.041  0.2122 -0.1615  0.0049
 1450BOLB   GL334791   4.622  16.745  -0.607  0.1290  0.0424  0.0132
 1450BOLB   GL434792   4.607  16.417  -0.566 -0.3056  0.2518 -0.4073
 1450BOLB   C1C34793   4.731  16.780  -0.128  0.2772 -0.0768  0.3069
 1450BOLB   C2C34794   4.865  16.993   0.113  0.4236 -0.1542  0.1511
 1450BOLB   C3C34795   4.693  16.942   0.578 -0.4112 -0.6253 -0.1178
 1450BOLB   C4C34796   4.911  16.763   0.940  0.0356 -0.0560  0.3186
 1450BOLB   C1D34797   4.424  16.377  -0.089  0.0962  0.0410 -0.0574
 1450BOLB   C2D34798   4.443  16.572   0.289 -0.1278  0.0435  0.4059
 1450BOLB   C3D34799   4.424  16.604   0.681 -0.1568  0.0209  0.1046
 1450BOLB   C4D34800   4.431  16.777   1.080 -0.0149  0.4858  0.0785
 1451BOLB   NC134801   3.238  16.659  16.289 -0.2505  0.0189 -0.0685
 1451BOLB   PO134802   3.467  16.305  16.141  0.2121  0.1565  0.1122
 1451BOLB   GL134803   3.450  15.889  16.381  0.3617  0.3260 -0.3082
 1451BOLB   GL234804   3.488  15.854  16.703  0.1148 -0.0654 -0.2532
 1451BOLB   C1A34805   3.224  15.457  16.487  0.0263 -0.0689  0.0242
 1451BOLB   C2A34806   2.992  15.533  16.845  0.2361 -0.1757 -0.0354
 1451BOLB   C3A34807   3.042  15.371  17.224 -0.0369  0.0073 -0.3902
 1451BOLB   C4A34808   2.993  15.221  17.704  0.3817  0.3093  0.2108
 1451BOLB   C1B34809   3.491  15.643  16.997 -0.1567 -0.0227  0.1665
 1451BOLB   C2B34810   3.712  15.385  17.253 -0.0926  0.2677 -0.0383
 1451BOLB   C3B34811   3.775  15.026  17.584 -0.3830  0.1590  0.1107
 1451BOLB   C4B34812   3.536  14.691  17.811  0.0319 -0.1258 -0.1525
 1451BOLB   NC234813   3.550  14.819  20.187 -0.0479  0.2034  0.2303
 1451BOLB   PO234814   3.103  14.652  20.173  0.3698 -0.2687  0.2144
 1451BOLB   GL334815   3.233  14.605  19.728 -0.3625 -0.0512 -0.2534
 1451BOLB   GL434816   3.324  14.868  19.609  0.0405  0.1316 -0.0276
 1451BOLB   C1C34817   3.003  14.659  19.273 -0.1060  0.1013  0.0325
 1451BOLB   C2C34818   3.123  14.861  18.956 -0.1107  0.3218  0.1871
 1451BOLB   C3C34819   3.129  14.976  18.557  0.0872  0.1460 -0.1441
 1451BOLB   C4C34820   3.007  15.159  18.217  0.0734  0.3047  0.5538
 1451BOLB   C1D34821   3.574  14.646  19.309 -0.0406 -0.1401 -0.0051
 1451BOLB   C2D34822   3.596  14.831  18.895 -0.1321 -0.1688 -0.3441
 1451BOLB   C3D34823   3.818  15.160  18.728  0.2434 -0.0948 -0.2704
 1451BOLB   C4D34824   4.096  15.443  18.517  0.1472 -0.3147 -0.1549
 1452BOLB   NC134825   5.727  17.210   2.958 -0.1136  0.1809 -0.0168
 1452BOLB   PO134826   6.100  17.181   2.765 -0.2614  0.2454  0.0784
 1452BOLB   GL134827   5.996  16.866   2.468  0.4241  0.4124  0.2725
 1452BOLB   GL234828   5.821  16.734   2.703 -0.0821 -0.1477 -0.1103
 1452BOLB   C1A34829   5.857  16.797   2.001  0.2396 -0.0846  0.1906
 1452BOLB   C2A34830   5.858  16.907   1.580 -0.1509 -0.0746 -0.1056
 1452BOLB   C3A34831   5.804  16.815   1.145 -0.1807  0.0840 -0.0458
 1452BOLB   C4A34832   5.908  16.387   0.927 -0.0252 -0.0721 -0.2562
 1452BOLB   C1B34833   5.911  16.389   2.472 -0.3062 -0.1146 -0.2462
 1452BOLB   C2B34834   5.919  16.233   2.041  0.2295 -0.1108 -0.1791
 1452BOLB   C3B34835   5.876  16.325   1.556 -0.3419 -0.0691  0.2658
 1452BOLB   C4B34836   5.738  16.051   1.286  0.2965  0.1693 -0.1885
 1452BOLB   NC234837   6.049  14.904  -1.045 -0.0709  0.0580  0.4214
 1452BOLB   PO234838   6.169  14.470  -0.834 -0.0613 -0.1850 -0.3090
 1452BOLB   GL334839   6.107  14.635  -0.349 -0.0137 -0.0633 -0.0848
 1452BOLB   GL434840   5.993  14.434  -0.014 -0.2634  0.1692  0.3363
 1452BOLB   C1C34841   6.006  15.034  -0.063 -0.1714  0.0272  0.1139
 1452BOLB   C2C34842   6.146  15.409   0.115 -0.0233  0.0578  0.2754
 1452BOLB   C3C34843   6.125  15.789   0.485  0.2032 -0.3061 -0.0534
 1452BOLB   C4C34844   6.038  16.183   0.651 -0.1685 -0.0263 -0.0779
 1452BOLB   C1D34845   6.415  14.661   0.139  0.1750  0.3755  0.2872
 1452BOLB   C2D34846   6.602  14.678   0.610 -0.3589 -0.0048 -0.1255
 1452BOLB   C3D34847   6.454  14.742   0.999 -0.0276  0.1437  0.1554
 1452BOLB   C4D34848   6.375  15.157   1.111 -0.0047  0.3310  0.1222
 1453BOLB   NC134849   7.459  21.279  18.239 -0.0049 -0.4343  0.0923
 1453BOLB   PO134850   7.127  21.056  18.378  0.1245 -0.0912  0.2112
 1453BOLB   GL134851   7.137  21.045  18.852 -0.1323  0.0527 -0.0239
 1453BOLB   GL234852   7.316  21.341  18.959  0.2105  0.1508  0.0620
 1453BOLB   C1A34853   7.224  20.948  19.407 -0.2381 -0.1136  0.3664
 1453BOLB   C2A34854   7.206  20.855  19.842 -0.1237  0.0783  0.1026
 1453BOLB   C3A34855   7.238  21.121  20.266 -0.1135  0.1285  0.0215
 1453BOLB   C4A34856   6.861  21.284  20.423  0.1652  0.6358 -0.1382
 1453BOLB   C1B34857   7.366  21.530  19.245 -0.0433 -0.2369 -0.2424
 1453BOLB   C2B34858   7.247  21.823  19.700 -0.3608  0.0304  0.1527
 1453BOLB   C3B34859   7.376  21.899  20.077  0.2045  0.0387  0.0415
 1453BOLB   C4B34860   7.572  22.107  20.355  0.3222 -0.1395 -0.1942
 1453BOLB   NC234861   5.675  21.557  22.527  0.1407  0.2239  0.0215
 1453BOLB   PO234862   6.143  21.762  22.660 -0.6096  0.0609  0.0930
 1453BOLB   GL334863   5.924  21.862  22.197 -0.4805 -0.3820  0.1965
 1453BOLB   GL434864   6.111  22.099  22.061  0.1184 -0.2811 -0.0821
 1453BOLB   C1C34865   6.030  21.610  21.763 -0.2244 -0.3853  0.1213
 1453BOLB   C2C34866   6.189  21.786  21.318  0.0557  0.2299 -0.2122
 1453BOLB   C3C34867   6.254  21.567  20.998 -0.1630  0.0977 -0.0030
 1453BOLB   C4C34868   6.524  21.488  20.714 -0.0963  0.0882  0.1643
 1453BOLB   C1D34869   6.358  22.004  21.756  0.0491 -0.0625 -0.2456
 1453BOLB   C2D34870   6.580  21.556  21.634 -0.0215 -0.0762 -0.1466
 1453BOLB   C3D34871   6.679  21.365  21.183  0.1323 -0.1124  0.2970
 1453BOLB   C4D34872   6.854  21.025  20.880  0.1169 -0.3150 -0.1640
 1454BOLB   NC134873  13.928  24.073  13.839 -0.0606  0.1512 -0.0353
 1454BOLB   PO134874  13.574  24.133  14.025  0.1568  0.0351  0.1162
 1454BOLB   GL134875  13.972  24.464  14.186  0.2549  0.3719  0.0445
 1454BOLB   GL234876  14.199  24.379  14.097  0.1346 -0.4105 -0.1294
 1454BOLB   C1A34877  14.228  24.490  14.595  0.1426  0.1146 -0.2620
 1454BOLB   C2A34878  14.672  24.376  14.713  0.0149 -0.0632  0.5214
 1454BOLB   C3A34879  15.232  24.374  14.680 -0.2664 -0.4415 -0.2753
 1454BOLB   C4A34880  15.686  24.469  14.809 -0.0366  0.0806  0.0289
 1454BOLB   C1B34881  14.603  24.225  14.054  0.0163  0.0974 -0.0134
 1454BOLB   C2B34882  15.026  24.260  14.233 -0.1434  0.0523 -0.1217
 1454BOLB   C3B34883  15.344  24.467  14.188  0.2504  0.2037  0.5572
 1454BOLB   C4B34884  15.446  24.765  14.507 -0.1113  0.2165  0.1552
 1454BOLB   NC234885  18.627  24.928  14.696 -0.0730  0.0011 -0.1049
 1454BOLB   PO234886  18.041  24.935  14.783  0.0295 -0.0903 -0.3180
 1454BOLB   GL334887  17.765  24.562  14.706  0.0453 -0.0608  0.3223
 1454BOLB   GL434888  17.531  24.296  14.967  0.1043 -0.1750 -0.0165
 1454BOLB   C1C34889  17.316  24.540  14.542 -0.0693  0.0151 -0.1895
 1454BOLB   C2C34890  16.904  24.485  14.656  0.1394  0.1194 -0.0039
 1454BOLB   C3C34891  16.668  24.349  14.939  0.1336  0.2227  0.1884
 1454BOLB   C4C34892  16.162  24.470  14.989 -0.1715  0.0309  0.0902
 1454BOLB   C1D34893  17.207  23.987  14.976  0.0700  0.0719 -0.1053
 1454BOLB   C2D34894  16.907  23.990  14.669 -0.0982 -0.0018 -0.1397
 1454BOLB   C3D34895  16.679  24.191  14.272 -0.0430  0.1440 -0.2139
 1454BOLB   C4D34896  16.336  24.213  13.990 -0.0266  0.1048 -0.0811
 1455BOLB   NC134897   2.565  24.282  16.974  0.0320  0.2164 -0.3688
 1455BOLB   PO134898   2.672  24.750  16.898 -0.0451  0.1499  0.0556
 1455BOLB   GL134899   2.511  24.861  17.254  0.0155 -0.3161  0.0279
 1455BOLB   GL234900   2.679  24.610  17.390  0.1009  0.1245  0.4045
 1455BOLB   C1A34901   2.301  25.152  17.569  0.0531  0.1996 -0.0348
 1455BOLB   C2A34902   2.279  25.138  18.002 -0.1153 -0.1534  0.0160
 1455BOLB   C3A34903   2.258  25.258  18.494 -0.0319  0.0371 -0.1775
 1455BOLB   C4A34904   2.431  25.161  18.942 -0.2382 -0.0949 -0.0817
 1455BOLB   C1B34905   2.290  24.619  17.636  0.0637 -0.0045  0.1340
 1455BOLB   C2B34906   1.943  24.833  17.837  0.0204  0.1039 -0.0952
 1455BOLB   C3B34907   1.632  24.991  17.952  0.0891  0.1491  0.0761
 1455BOLB   C4B34908   1.855  25.399  18.091 -0.1273 -0.3257 -0.2159
 1455BOLB   NC234909   1.820  26.416  20.454  0.0555  0.2503  0.2292
 1455BOLB   PO234910   1.717  26.138  20.815 -0.0637  0.2830 -0.4022
 1455BOLB   GL334911   1.888  25.894  20.568  0.2455  0.2616 -0.1089
 1455BOLB   GL434912   2.134  25.954  20.464  0.0141 -0.1770 -0.1288
 1455BOLB   C1C34913   1.766  25.677  20.203  0.1388  0.0022 -0.2694
 1455BOLB   C2C34914   1.801  25.222  20.000  0.1572  0.0209  0.1858
 1455BOLB   C3C34915   1.966  25.051  19.683 -0.0604 -0.0626 -0.0374
 1455BOLB   C4C34916   2.203  25.277  19.347  0.1310  0.1339 -0.0551
 1455BOLB   C1D34917   2.168  25.827  19.975 -0.1920 -0.1182 -0.1267
 1455BOLB   C2D34918   1.858  25.619  19.643  0.3772  0.1265  0.0158
 1455BOLB   C3D34919   1.682  25.340  19.352 -0.0955  0.1795 -0.1474
 1455BOLB   C4D34920   1.638  24.967  19.144  0.0398  0.3715  0.1637
 1456BOLB   NC134921   9.526  20.662  18.014  0.1385  0.0358  0.0661
 1456BOLB   PO134922   9.812  20.900  18.060 -0.2728 -0.2730  0.0999
 1456BOLB   GL134923   9.973  20.556  18.436 -0.1109 -0.1394  0.0529
 1456BOLB   GL234924  10.321  20.583  18.337  0.0082 -0.1394  0.2287
 1456BOLB   C1A34925   9.947  20.445  18.829 -0.0583  0.3400 -0.3076
 1456BOLB   C2A34926  10.006  20.516  19.236 -0.1944  0.2280  0.0921
 1456BOLB   C3A34927  10.132  20.544  19.613  0.2171 -0.0132 -0.2158
 1456BOLB   C4A34928  10.365  20.214  19.986 -0.3599  0.0472  0.1596
 1456BOLB   C1B34929  10.378  20.751  18.766  0.3857  0.0045  0.1068
 1456BOLB   C2B34930  10.461  20.775  19.215  0.0009  0.0665 -0.0940
 1456BOLB   C3B34931  10.305  20.969  19.497 -0.2761  0.1792 -0.1725
 1456BOLB   C4B34932  10.238  20.931  19.910  0.5455  0.1397 -0.1493
 1456BOLB   NC234933  11.568  19.975  22.261 -0.0419  0.1993  0.1047
 1456BOLB   PO234934  11.210  19.680  22.088  0.0590  0.0879  0.3154
 1456BOLB   GL334935  10.932  19.772  21.726 -0.1665  0.0057  0.3338
 1456BOLB   GL434936  10.839  20.055  21.582  0.1029 -0.2802  0.1773
 1456BOLB   C1C34937  10.874  19.696  21.176  0.0275  0.2283 -0.1407
 1456BOLB   C2C34938  10.884  19.814  20.798 -0.0554  0.2922 -0.3902
 1456BOLB   C3C34939  10.846  20.183  20.622  0.3644 -0.3217  0.1424
 1456BOLB   C4C34940  10.579  20.244  20.306  0.1697  0.1869  0.1245
 1456BOLB   C1D34941  10.748  20.153  21.149  0.1448 -0.0286 -0.0591
 1456BOLB   C2D34942  10.457  20.370  20.920  0.1065  0.2691  0.0586
 1456BOLB   C3D34943  10.080  20.669  20.897  0.2567  0.0801  0.1475
 1456BOLB   C4D34944   9.701  20.882  20.603 -0.0134 -0.0114 -0.3207
 1457BOLB   NC134945   1.940  26.540  12.247  0.3228 -0.1799 -0.2037
 1457BOLB   PO134946   1.953  26.839  12.638  0.0943  0.1678  0.2108
 1457BOLB   GL134947   1.778  27.156  12.620  0.2097  0.2422 -0.0791
 1457BOLB   GL234948   1.518  27.099  12.858  0.4092  0.1224  0.2874
 1457BOLB   C1A34949   1.706  27.567  12.669 -0.2086  0.0727  0.2655
 1457BOLB   C2A34950   1.631  27.953  12.433 -0.1918  0.1859  0.3104
 1457BOLB   C3A34951   1.688  28.423  12.427  0.2149 -0.0720  0.0469
 1457BOLB   C4A34952   1.411  28.729  12.680 -0.0102 -0.3086 -0.0921
 1457BOLB   C1B34953   1.475  27.435  13.087  0.0075  0.3156  0.1694
 1457BOLB   C2B34954   1.297  27.783  12.887 -0.1833 -0.1382  0.1253
 1457BOLB   C3B34955   1.157  28.235  12.799 -0.0382 -0.0571 -0.1821
 1457BOLB   C4B34956   0.899  28.619  12.651  0.0287  0.0822 -0.1281
 1457BOLB   NC234957   0.314  31.194  13.020  0.2340 -0.0258  0.1363
 1457BOLB   PO234958   0.737  31.277  12.941 -0.0966 -0.3370 -0.1465
 1457BOLB   GL334959   0.811  30.872  13.080 -0.2980 -0.1144 -0.1905
 1457BOLB   GL434960   0.527  30.705  13.126  0.1193 -0.1558  0.3257
 1457BOLB   C1C34961   0.991  30.447  13.251 -0.0954  0.1350  0.1943
 1457BOLB   C2C34962   1.220  30.018  13.178  0.0254 -0.0785 -0.0734
 1457BOLB   C3C34963   1.365  29.622  12.910  0.1177  0.2035  0.0726
 1457BOLB   C4C34964   1.317  29.167  12.790  0.0775 -0.1926 -0.0715
 1457BOLB   C1D34965   0.510  30.219  13.204  0.1481 -0.2586  0.0729
 1457BOLB   C2D34966   0.638  29.841  13.043  0.0698  0.0845 -0.2149
 1457BOLB   C3D34967   0.811  29.502  12.828  0.0619 -0.2117 -0.0937
 1457BOLB   C4D34968   0.759  29.040  12.970 -0.0570 -0.3597 -0.0791
 1458BOLB   NC134969   9.714  10.669   3.708  0.0826  0.0728  0.4499
 1458BOLB   PO134970   9.967  10.748   4.107  0.1149  0.1541  0.1823
 1458BOLB   GL134971   9.911  11.133   4.118  0.0928 -0.2482  0.1724
 1458BOLB   GL234972  10.058  11.283   3.994  0.0590  0.2371 -0.1782
 1458BOLB   C1A34973   9.778  11.557   4.423  0.0809 -0.0049  0.1333
 1458BOLB   C2A34974   9.682  11.923   4.498 -0.2376 -0.4699  0.1190
 1458BOLB   C3A34975   9.476  12.106   4.767  0.0313 -0.0281  0.0133
 1458BOLB   C4A34976   9.040  12.267   4.836 -0.2101  0.0878 -0.2738
 1458BOLB   C1B34977  10.053  11.656   4.047 -0.2010  0.1405 -0.3108
 1458BOLB   C2B34978  10.311  11.883   4.351 -0.1242  0.1288  0.0374
 1458BOLB   C3B34979  10.217  11.993   4.823  0.0207  0.1125 -0.1802
 1458BOLB   C4B34980  10.044  12.022   5.174 -0.0666  0.1275 -0.0620
 1458BOLB   NC234981   9.192  10.772   2.791 -0.3411 -0.0652 -0.2141
 1458BOLB   PO234982   8.830  10.689   3.165  0.1426 -0.2042  0.2938
 1458BOLB   GL334983   8.810  11.016   3.598  0.3447  0.0248 -0.0559
 1458BOLB   GL434984   8.544  11.281   3.393  0.0076 -0.0127 -0.2691
 1458BOLB   C1C34985   8.634  11.398   3.943  0.0130  0.0119 -0.2088
 1458BOLB   C2C34986   8.770  11.805   4.057  0.1135  0.0582  0.3499
 1458BOLB   C3C34987   8.544  12.234   4.157 -0.1217  0.1210  0.0827
 1458BOLB   C4C34988   8.711  12.283   4.526 -0.0045  0.2040 -0.1019
 1458BOLB   C1D34989   8.175  11.481   3.673  0.0259  0.2520 -0.1082
 1458BOLB   C2D34990   7.754  11.547   3.828 -0.2129  0.2644  0.1323
 1458BOLB   C3D34991   7.539  11.514   4.230  0.0314 -0.1304 -0.0557
 1458BOLB   C4D34992   7.489  11.474   4.632  0.0825  0.3820 -0.2451
 1459BOLB   NC134993  13.017  19.252  25.665 -0.0579  0.0478 -0.2063
 1459BOLB   PO134994  12.929  18.721  25.662 -0.2234 -0.1039  0.1751
 1459BOLB   GL134995  12.631  18.746  25.990  0.1819 -0.1588 -0.0408
 1459BOLB   GL234996  12.743  19.085  26.083 -0.0629  0.0658 -0.2932
 1459BOLB   C1A34997  12.381  18.677  26.326  0.0582 -0.2459 -0.1343
 1459BOLB   C2A34998  12.153  18.717  26.668 -0.1241  0.1856 -0.2069
 1459BOLB   C3A34999  12.029  18.653  27.041 -0.4774  0.0345 -0.2179
 1459BOLB   C4A35000  11.921  18.645  27.468 -0.2798 -0.1580  0.1603
 1459BOLB   C1B35001  12.756  19.431  26.375 -0.1290  0.2363  0.1704
 1459BOLB   C2B35002  12.514  19.696  26.515 -0.1422 -0.1918 -0.3226
 1459BOLB   C3B35003  12.339  19.665  26.893 -0.1199  0.1874 -0.0719
 1459BOLB   C4B35004  12.156  19.875  27.239 -0.0049 -0.1863 -0.0619
 1459BOLB   NC235005  11.707  19.226  29.654 -0.3112 -0.0910 -0.0709
 1459BOLB   PO235006  11.440  19.490  29.685 -0.0791 -0.1766 -0.3651
 1459BOLB   GL335007  11.412  19.303  29.245  0.3286  0.1385 -0.0733
 1459BOLB   GL435008  11.045  19.259  29.078 -0.2307 -0.1544  0.2110
 1459BOLB   C1C35009  11.617  19.195  28.813  0.1402 -0.3687  0.1338
 1459BOLB   C2C35010  11.816  19.130  28.393 -0.1085  0.3433 -0.1706
 1459BOLB   C3C35011  11.956  18.611  28.312  0.0060 -0.2272  0.1384
 1459BOLB   C4C35012  11.948  18.465  27.870 -0.0886  0.0389 -0.3824
 1459BOLB   C1D35013  11.095  19.214  28.759 -0.1725 -0.1189 -0.5195
 1459BOLB   C2D35014  11.337  19.293  28.375 -0.1942 -0.2990 -0.0390
 1459BOLB   C3D35015  11.357  19.082  27.989 -0.1144 -0.3552  0.0082
 1459BOLB   C4D35016  11.501  18.755  27.746 -0.1183  0.1708  0.2146
 1460BOLB   NC135017  14.634  23.475   6.355  0.1800  0.0836  0.0232
 1460BOLB   PO135018  14.868  23.109   6.548 -0.1478 -0.4256 -0.0089
 1460BOLB   GL135019  15.119  23.271   6.881 -0.1608  0.3057  0.0099
 1460BOLB   GL235020  15.261  23.297   7.172 -0.1481  0.0937 -0.2047
 1460BOLB   C1A35021  15.454  23.264   6.702  0.1023  0.1031  0.0795
 1460BOLB   C2A35022  15.845  23.082   6.537 -0.0102 -0.2124 -0.0172
 1460BOLB   C3A35023  15.922  22.925   6.107  0.2302 -0.0030 -0.2209
 1460BOLB   C4A35024  16.274  22.776   5.804  0.0319  0.1485 -0.0382
 1460BOLB   C1B35025  15.663  23.417   7.407 -0.0288 -0.4297  0.0506
 1460BOLB   C2B35026  16.023  23.289   7.360 -0.1098  0.0973 -0.0699
 1460BOLB   C3B35027  16.373  23.225   7.442  0.0728  0.1076 -0.2545
 1460BOLB   C4B35028  16.718  22.979   7.767 -0.0598 -0.0123 -0.1788
 1460BOLB   NC235029  17.743  23.533   4.319 -0.0539  0.2878 -0.1601
 1460BOLB   PO235030  18.045  23.611   4.730  0.1790 -0.1522 -0.0661
 1460BOLB   GL335031  17.819  23.415   4.934 -0.1756  0.0634  0.0481
 1460BOLB   GL435032  17.540  23.498   4.977  0.1652  0.0366  0.1216
 1460BOLB   C1C35033  17.661  23.102   5.286 -0.0593  0.3023 -0.2974
 1460BOLB   C2C35034  17.367  22.914   5.371  0.0997  0.0263  0.0952
 1460BOLB   C3C35035  16.999  22.711   5.669  0.0714 -0.0730  0.1807
 1460BOLB   C4C35036  16.628  22.590   5.771  0.1611 -0.0219 -0.0857
 1460BOLB   C1D35037  17.121  23.524   4.788  0.1198  0.3192  0.0340
 1460BOLB   C2D35038  17.003  23.934   4.872 -0.3351 -0.1524 -0.0418
 1460BOLB   C3D35039  16.652  24.012   5.032  0.0028  0.1858 -0.2014
 1460BOLB   C4D35040  16.324  23.840   5.273  0.0217 -0.4612 -0.2313
 1461BOLB   NC135041  14.172  14.510   1.376  0.0091 -0.0444 -0.1285
 1461BOLB   PO135042  13.792  14.536   1.407  0.0200 -0.0490 -0.0495
 1461BOLB   GL135043  13.403  14.664   1.748  0.1321 -0.0822  0.0627
 1461BOLB   GL235044  13.241  14.388   1.999 -0.1712  0.2593 -0.0698
 1461BOLB   C1A35045  13.232  14.936   2.089  0.0074  0.0664 -0.0282
 1461BOLB   C2A35046  13.166  15.054   2.506 -0.1867  0.2087  0.2515
 1461BOLB   C3A35047  12.823  15.058   2.829 -0.1093 -0.3173 -0.2100
 1461BOLB   C4A35048  12.683  15.048   3.320 -0.2216 -0.0316  0.0184
 1461BOLB   C1B35049  13.046  14.330   2.422  0.1407 -0.0592 -0.1229
 1461BOLB   C2B35050  12.872  14.505   2.745  0.0834  0.1902  0.0144
 1461BOLB   C3B35051  12.840  14.523   3.253  0.0248 -0.0395  0.2067
 1461BOLB   C4B35052  12.514  14.245   3.435 -0.3927 -0.1153 -0.1284
 1461BOLB   NC235053  13.690  13.423   2.865 -0.5084  0.1382 -0.0028
 1461BOLB   PO235054  13.666  13.429   3.391  0.2684  0.0427  0.0429
 1461BOLB   GL335055  13.245  13.563   3.655 -0.1091  0.0738  0.0545
 1461BOLB   GL435056  12.942  13.628   3.512  0.0078  0.0059 -0.1209
 1461BOLB   C1C35057  12.998  13.800   3.964 -0.1494 -0.4490  0.0584
 1461BOLB   C2C35058  12.747  14.090   4.004 -0.1125  0.2248  0.0514
 1461BOLB   C3C35059  12.433  14.396   3.876 -0.2324 -0.1844  0.0311
 1461BOLB   C4C35060  12.511  14.756   3.577  0.0395 -0.0103 -0.1613
 1461BOLB   C1D35061  12.580  13.783   3.642  0.1765 -0.1347  0.1642
 1461BOLB   C2D35062  12.164  13.914   3.761  0.3634 -0.4205  0.0062
 1461BOLB   C3D35063  11.758  14.136   3.898  0.3816 -0.1905 -0.2685
 1461BOLB   C4D35064  11.299  14.264   4.049  0.0945 -0.0447 -0.2685
 1462BOLB   NC135065   2.430  18.470   3.477 -0.2117 -0.1063 -0.0851
 1462BOLB   PO135066   2.847  18.551   3.412 -0.1040  0.3625 -0.1892
 1462BOLB   GL135067   2.591  18.611   3.024  0.4067 -0.1312 -0.2032
 1462BOLB   GL235068   2.781  18.489   2.858 -0.0759 -0.1538  0.2065
 1462BOLB   C1A35069   2.124  18.518   2.796  0.0987 -0.2190 -0.0770
 1462BOLB   C2A35070   1.689  18.632   2.557 -0.0449 -0.4386 -0.4261
 1462BOLB   C3A35071   1.433  18.577   2.229  0.1168 -0.2127  0.0386
 1462BOLB   C4A35072   1.141  18.221   1.978  0.2171  0.1029 -0.0750
 1462BOLB   C1B35073   2.500  18.297   2.626  0.2088 -0.0998  0.2308
 1462BOLB   C2B35074   2.258  18.365   2.329  0.0919 -0.1160 -0.0970
 1462BOLB   C3B35075   1.852  18.365   2.107  0.1011 -0.3847  0.0886
 1462BOLB   C4B35076   1.584  18.385   1.702 -0.2360  0.2183 -0.0311
 1462BOLB   NC235077   0.619  18.128  -0.369  0.2018 -0.3322 -0.1395
 1462BOLB   PO235078   0.699  18.584  -0.209 -0.1936  0.0765  0.0609
 1462BOLB   GL335079   0.693  18.426   0.145 -0.0247  0.0631 -0.0607
 1462BOLB   GL435080   0.500  18.132   0.168  0.1054  0.2200 -0.1205
 1462BOLB   C1C35081   0.940  18.300   0.466 -0.1189 -0.0801 -0.3282
 1462BOLB   C2C35082   0.788  18.073   0.839  0.1258 -0.3351 -0.0501
 1462BOLB   C3C35083   0.762  18.139   1.283 -0.0009 -0.1131  0.1670
 1462BOLB   C4C35084   1.100  18.275   1.555  0.0364 -0.3544 -0.0821
 1462BOLB   C1D35085   0.120  17.814   0.123 -0.4457  0.0936  0.3040
 1462BOLB   C2D35086  -0.131  17.397   0.111 -0.1445  0.0324  0.2957
 1462BOLB   C3D35087  -0.395  17.268   0.451 -0.2219  0.2812 -0.4038
 1462BOLB   C4D35088  -0.396  16.898   0.683 -0.2644 -0.0757  0.1583
 1463BOLB   NC135089  12.385  23.887  21.063  0.1052 -0.0010 -0.1723
 1463BOLB   PO135090  12.429  23.684  20.721  0.2579  0.1351  0.0433
 1463BOLB   GL135091  12.176  23.529  20.488 -0.0538 -0.0509 -0.1264
 1463BOLB   GL235092  12.284  23.205  20.509 -0.2596  0.2624  0.1044
 1463BOLB   C1A35093  11.927  23.698  20.213 -0.2465 -0.0628  0.0514
 1463BOLB   C2A35094  11.655  23.913  19.907 -0.2399  0.2126  0.2144
 1463BOLB   C3A35095  11.886  24.189  19.699  0.2792 -0.0332  0.1939
 1463BOLB   C4A35096  11.881  24.432  19.356 -0.2596  0.0020 -0.2283
 1463BOLB   C1B35097  12.194  23.226  20.035  0.0104  0.0727 -0.0926
 1463BOLB   C2B35098  11.913  23.146  19.619 -0.2376  0.1383  0.0458
 1463BOLB   C3B35099  11.877  23.356  19.210  0.1478  0.0254  0.5097
 1463BOLB   C4B35100  11.569  23.340  18.856 -0.2229  0.1132 -0.0716
 1463BOLB   NC235101  10.427  24.105  17.498 -0.2862 -0.0644 -0.0571
 1463BOLB   PO235102  10.757  24.185  17.702 -0.1527 -0.1552  0.1210
 1463BOLB   GL335103  10.934  24.225  17.993 -0.2128  0.1656 -0.2560
 1463BOLB   GL435104  10.791  24.044  18.176 -0.1615  0.3776  0.2191
 1463BOLB   C1C35105  11.115  24.306  18.459 -0.0179  0.2138 -0.1917
 1463BOLB   C2C35106  11.168  24.646  18.599  0.0263  0.0910 -0.1219
 1463BOLB   C3C35107  11.523  24.811  18.666  0.1308  0.4295  0.0572
 1463BOLB   C4C35108  11.947  24.670  18.915 -0.1774 -0.1199  0.2086
 1463BOLB   C1D35109  10.953  23.856  18.600 -0.0913 -0.0023  0.3676
 1463BOLB   C2D35110  11.247  23.981  18.905 -0.1390  0.1345 -0.0472
 1463BOLB   C3D35111  11.361  24.122  19.356 -0.1053 -0.1283  0.1155
 1463BOLB   C4D35112  11.318  24.341  19.755  0.0863 -0.2838 -0.3022
 1464BOLB   NC135113   5.731  25.877  17.476 -0.2940  0.5740 -0.2012
 1464BOLB   PO135114   5.380  25.857  17.260  0.0472 -0.0764 -0.1074
 1464BOLB   GL135115   5.325  25.813  17.722  0.2013  0.1480 -0.0556
 1464BOLB   GL235116   5.106  25.517  17.965 -0.4026  0.1264 -0.4529
 1464BOLB   C1A35117   5.425  26.018  18.163  0.2488 -0.0943  0.1383
 1464BOLB   C2A35118   5.283  26.072  18.624  0.2951  0.1469  0.1576
 1464BOLB   C3A35119   5.574  25.929  18.879 -0.1705 -0.1153 -0.1406
 1464BOLB   C4A35120   5.415  25.824  19.359  0.2588  0.0371 -0.0293
 1464BOLB   C1B35121   5.089  25.619  18.465 -0.0898  0.4402 -0.0597
 1464BOLB   C2B35122   5.046  25.713  18.857  0.0555 -0.2595  0.0494
 1464BOLB   C3B35123   4.795  25.817  19.231 -0.1406  0.1643 -0.1557
 1464BOLB   C4B35124   4.707  25.678  19.657 -0.0969  0.4855 -0.1819
 1464BOLB   NC235125   5.036  27.570  21.203  0.1539 -0.0353  0.0641
 1464BOLB   PO235126   4.872  27.394  20.948 -0.0502  0.0853  0.1658
 1464BOLB   GL335127   4.928  27.146  20.591  0.0372  0.1969 -0.0811
 1464BOLB   GL435128   5.177  27.209  20.339 -0.2399 -0.0436  0.0535
 1464BOLB   C1C35129   4.892  26.739  20.421  0.0819  0.0326  0.1805
 1464BOLB   C2C35130   4.785  26.484  20.091 -0.0291 -0.3114 -0.3309
 1464BOLB   C3C35131   4.865  26.168  19.683  0.1603  0.3846 -0.3471
 1464BOLB   C4C35132   5.170  25.823  19.567  0.2782  0.1377 -0.1537
 1464BOLB   C1D35133   5.427  27.328  19.932 -0.0412  0.1778  0.0276
 1464BOLB   C2D35134   5.806  27.150  19.676 -0.0680  0.1713 -0.0175
 1464BOLB   C3D35135   5.908  27.000  19.257 -0.2600 -0.2335 -0.3227
 1464BOLB   C4D35136   5.834  27.045  18.796 -0.1116 -0.2382 -0.0199
 1465BOLB   NC135137   2.883  18.762  17.682  0.1295 -0.2521 -0.2077
 1465BOLB   PO135138   3.210  18.493  17.769  0.0501  0.1583  0.1986
 1465BOLB   GL135139   3.330  18.479  18.232 -0.0244 -0.0751 -0.0403
 1465BOLB   GL235140   3.592  18.346  18.182 -0.3043 -0.1821  0.1171
 1465BOLB   C1A35141   3.579  18.471  18.609  0.2671 -0.3385 -0.0833
 1465BOLB   C2A35142   3.537  18.699  19.017 -0.0552 -0.3297 -0.2660
 1465BOLB   C3A35143   3.524  18.961  19.403 -0.0510 -0.0485 -0.0268
 1465BOLB   C4A35144   3.594  19.138  19.799 -0.1555 -0.1727 -0.0054
 1465BOLB   C1B35145   3.259  17.965  18.330 -0.2180  0.1651  0.0545
 1465BOLB   C2B35146   3.024  17.684  18.665 -0.1059  0.2876  0.0345
 1465BOLB   C3B35147   2.772  17.787  19.063  0.0307  0.2974  0.1511
 1465BOLB   C4B35148   2.802  18.127  19.309  0.0363  0.0522  0.1381
 1465BOLB   NC235149   3.367  18.954  22.279  0.1536 -0.2198 -0.1005
 1465BOLB   PO235150   3.021  18.729  22.166  0.0348 -0.5038  0.0634
 1465BOLB   GL335151   3.061  18.977  21.867  0.1511  0.0137 -0.0470
 1465BOLB   GL435152   2.857  18.942  21.510  0.0343  0.4041  0.3099
 1465BOLB   C1C35153   3.199  19.341  21.520 -0.3105  0.5024 -0.0001
 1465BOLB   C2C35154   3.335  19.364  21.050  0.2135 -0.0719 -0.1268
 1465BOLB   C3C35155   3.656  19.498  20.740  0.2778  0.2554 -0.0310
 1465BOLB   C4C35156   3.680  19.361  20.290  0.1283 -0.0530  0.0602
 1465BOLB   C1D35157   2.795  19.286  21.213 -0.1419 -0.1133  0.0395
 1465BOLB   C2D35158   2.896  19.477  20.837 -0.3076  0.1676 -0.0211
 1465BOLB   C3D35159   2.865  19.948  20.578  0.0753 -0.0661 -0.0570
 1465BOLB   C4D35160   2.593  20.073  20.205  0.1413  0.0298  0.0423
 1466BOLB   NC135161  10.061  14.274  10.629  0.0095  0.0283 -0.3184
 1466BOLB   PO135162  10.059  13.879  10.515 -0.2475  0.2555 -0.0068
 1466BOLB   GL135163  10.282  13.653  10.292 -0.0716 -0.0695  0.1369
 1466BOLB   GL235164  10.565  13.673  10.435  0.2762  0.2231 -0.5098
 1466BOLB   C1A35165  10.398  13.149  10.234 -0.0693 -0.0185  0.2637
 1466BOLB   C2A35166  10.537  12.786  10.025  0.0658  0.0046 -0.0256
 1466BOLB   C3A35167  10.550  12.285   9.950  0.1704  0.2029  0.4052
 1466BOLB   C4A35168  10.476  11.836  10.009 -0.0512 -0.1141 -0.0204
 1466BOLB   C1B35169  10.602  13.337  10.640 -0.1488 -0.0890 -0.3849
 1466BOLB   C2B35170  10.857  13.197  11.044  0.2355 -0.0524  0.5246
 1466BOLB   C3B35171  10.810  13.067  11.530  0.1126  0.2478  0.3369
 1466BOLB   C4B35172  10.721  12.956  11.900 -0.0948 -0.0660 -0.0259
 1466BOLB   NC235173  11.671   9.662  10.806  0.4359 -0.1028 -0.0485
 1466BOLB   PO235174  11.465   9.985  10.670 -0.1280  0.1038  0.0003
 1466BOLB   GL335175  11.323  10.279  10.866 -0.2714 -0.2342  0.1776
 1466BOLB   GL435176  11.163  10.452  11.205 -0.3636 -0.1626  0.1138
 1466BOLB   C1C35177  11.092  10.646  10.745  0.0582  0.3102 -0.1502
 1466BOLB   C2C35178  10.838  11.015  10.811  0.1759  0.1985 -0.0651
 1466BOLB   C3C35179  10.570  11.363  10.729 -0.3684 -0.1433  0.0303
 1466BOLB   C4C35180  10.384  11.609  10.361  0.0756  0.0426 -0.0095
 1466BOLB   C1D35181  10.764  10.550  11.298 -0.0503 -0.1662  0.0938
 1466BOLB   C2D35182  10.436  10.893  11.154 -0.0548 -0.3020  0.3732
 1466BOLB   C3D35183  10.346  11.355  11.212  0.0007  0.0627 -0.2566
 1466BOLB   C4D35184  10.561  11.715  11.111  0.0603 -0.0302 -0.0917
 1467BOLB   NC135185   9.242  25.760   5.063 -0.3015 -0.1569  0.3028
 1467BOLB   PO135186   9.616  25.972   5.190 -0.0460 -0.0710 -0.2185
 1467BOLB   GL135187   9.634  26.263   4.825  0.0026  0.1910  0.3158
 1467BOLB   GL235188   9.322  26.071   4.580 -0.3425  0.3206  0.0682
 1467BOLB   C1A35189   9.948  26.498   4.666  0.0063 -0.3605 -0.1188
 1467BOLB   C2A35190  10.221  26.436   4.292  0.1781  0.3128 -0.3314
 1467BOLB   C3A35191  10.424  26.527   4.015 -0.1115 -0.0784  0.1297
 1467BOLB   C4A35192  10.780  26.646   3.788 -0.0022  0.0688  0.3491
 1467BOLB   C1B35193   9.421  26.351   4.208 -0.3122  0.2559 -0.2519
 1467BOLB   C2B35194   9.531  26.737   4.034  0.1341  0.1247  0.0231
 1467BOLB   C3B35195   9.665  27.119   3.962  0.1668  0.0021  0.0374
 1467BOLB   C4B35196   9.907  27.365   4.225 -0.0384  0.3780  0.0450
 1467BOLB   NC235197  11.650  27.970   1.841 -0.2236  0.0072  0.1865
 1467BOLB   PO235198  12.034  27.891   1.978  0.0491  0.0124 -0.1059
 1467BOLB   GL335199  12.055  27.820   2.383  0.1474  0.1724 -0.0425
 1467BOLB   GL435200  12.154  27.506   2.492  0.2059 -0.3996 -0.2578
 1467BOLB   C1C35201  11.666  27.701   2.792 -0.1176  0.1223  0.0630
 1467BOLB   C2C35202  11.399  27.466   3.111 -0.0939  0.1642 -0.1320
 1467BOLB   C3C35203  11.287  27.213   3.448  0.3308  0.0861  0.0248
 1467BOLB   C4C35204  11.155  26.903   3.742 -0.0307  0.2457 -0.2970
 1467BOLB   C1D35205  11.779  27.180   2.613  0.0671 -0.0583  0.0677
 1467BOLB   C2D35206  11.764  26.969   2.895 -0.0995 -0.2496 -0.0148
 1467BOLB   C3D35207  11.732  26.601   2.995  0.1016 -0.1806 -0.1505
 1467BOLB   C4D35208  11.670  26.235   3.195 -0.4484 -0.1514  0.1221
 1468BOLB   NC135209  13.912  25.404   9.880  0.0748  0.3300  0.0091
 1468BOLB   PO135210  13.639  25.660  10.125 -0.3092  0.1197 -0.0946
 1468BOLB   GL135211  14.078  25.816  10.088 -0.3279 -0.0382 -0.0114
 1468BOLB   GL235212  14.307  25.727   9.993 -0.4616 -0.0945 -0.0837
 1468BOLB   C1A35213  14.337  26.227  10.065 -0.2291  0.0914  0.0976
 1468BOLB   C2A35214  14.383  26.523  10.390  0.0291 -0.0710  0.0922
 1468BOLB   C3A35215  14.801  26.502  10.535 -0.3640 -0.1673  0.1428
 1468BOLB   C4A35216  15.113  26.807  10.319  0.1260 -0.0592  0.0405
 1468BOLB   C1B35217  14.773  25.959   9.907 -0.2063 -0.2421  0.0740
 1468BOLB   C2B35218  15.282  26.133   9.785 -0.0811 -0.0825  0.0015
 1468BOLB   C3B35219  15.638  26.405   9.716  0.2761  0.2462 -0.1241
 1468BOLB   C4B35220  16.036  26.698   9.639  0.1698  0.2437  0.0751
 1468BOLB   NC235221  15.891  29.099   9.563 -0.1488 -0.0241 -0.0766
 1468BOLB   PO235222  16.193  28.983   9.819 -0.0124 -0.1129 -0.2270
 1468BOLB   GL335223  15.949  28.570   9.797 -0.1336  0.0060  0.3690
 1468BOLB   GL435224  15.886  28.554   9.462  0.0353  0.1149  0.1522
 1468BOLB   C1C35225  15.820  28.146   9.846 -0.0041  0.1421 -0.0919
 1468BOLB   C2C35226  15.785  27.819  10.014 -0.0789 -0.1150 -0.0315
 1468BOLB   C3C35227  15.522  27.448  10.066 -0.3227  0.2347 -0.0379
 1468BOLB   C4C35228  15.357  27.131  10.315 -0.1295  0.0459 -0.0906
 1468BOLB   C1D35229  15.515  28.236   9.409 -0.5357 -0.2838  0.0987
 1468BOLB   C2D35230  15.197  27.926   9.406 -0.0464 -0.0409  0.0217
 1468BOLB   C3D35231  14.773  27.911   9.266 -0.0552 -0.1027 -0.0758
 1468BOLB   C4D35232  14.354  27.784   9.407 -0.0870 -0.1628  0.4073
 1469BOLB   NC135233   9.499  16.515  14.537  0.0895  0.0925  0.0453
 1469BOLB   PO135234   9.338  16.140  14.675  0.3293  0.1670 -0.0532
 1469BOLB   GL135235   9.246  15.629  14.849  0.0109  0.1558 -0.1543
 1469BOLB   GL235236   9.249  15.261  14.755  0.1070 -0.5112  0.4951
 1469BOLB   C1A35237   9.306  15.270  15.274 -0.1528 -0.1232  0.4286
 1469BOLB   C2A35238   9.506  14.884  15.416 -0.1149  0.1770  0.0232
 1469BOLB   C3A35239   9.709  14.422  15.506 -0.0329 -0.3598  0.2422
 1469BOLB   C4A35240   9.607  14.074  15.829  0.1782 -0.4178  0.0309
 1469BOLB   C1B35241   9.164  14.870  14.954  0.0747 -0.1412 -0.2314
 1469BOLB   C2B35242   9.127  14.478  15.184  0.2773  0.2175  0.3683
 1469BOLB   C3B35243   9.256  14.219  15.477  0.4200 -0.2469  0.0334
 1469BOLB   C4B35244   9.113  14.231  16.005 -0.1446 -0.0731  0.4300
 1469BOLB   NC235245   9.621  12.086  17.087  0.3146  0.0218 -0.0924
 1469BOLB   PO235246   9.897  12.359  17.342 -0.0247  0.0908  0.0375
 1469BOLB   GL335247   9.731  12.599  17.008  0.2294  0.0674 -0.0059
 1469BOLB   GL435248   9.842  12.859  17.178 -0.2291 -0.2860 -0.0930
 1469BOLB   C1C35249   9.254  12.679  16.773 -0.0086 -0.0203 -0.2593
 1469BOLB   C2C35250   9.310  12.960  16.545 -0.2382  0.0169 -0.5462
 1469BOLB   C3C35251   9.423  13.446  16.416  0.3273 -0.1795 -0.2737
 1469BOLB   C4C35252   9.551  13.745  16.160  0.0999 -0.1407 -0.0096
 1469BOLB   C1D35253   9.709  13.055  16.857  0.1127  0.1805 -0.0251
 1469BOLB   C2D35254   9.764  13.477  16.792 -0.0726  0.2712  0.0019
 1469BOLB   C3D35255   9.782  13.854  16.577  0.4558  0.1608  0.1704
 1469BOLB   C4D35256   9.920  14.144  16.267 -0.0494  0.0866 -0.0068
 1470BOLB   NC135257   4.888  15.986  16.655  0.1194 -0.1652 -0.3128
 1470BOLB   PO135258   4.854  16.475  16.913 -0.1045  0.2161  0.3201
 1470BOLB   GL135259   4.573  16.228  17.223 -0.1529 -0.0100 -0.0987
 1470BOLB   GL235260   4.364  16.057  17.083 -0.1424  0.1847  0.0047
 1470BOLB   C1A35261   4.444  16.034  17.617 -0.0073 -0.1777  0.0614
 1470BOLB   C2A35262   4.618  16.056  18.001 -0.0959  0.2830 -0.0473
 1470BOLB   C3A35263   4.866  15.806  18.306  0.0578  0.1179 -0.1429
 1470BOLB   C4A35264   5.073  15.470  18.592  0.1212 -0.1842 -0.0263
 1470BOLB   C1B35265   4.611  15.688  17.232 -0.1579 -0.2370  0.2197
 1470BOLB   C2B35266   4.772  15.243  17.270  0.0644 -0.1735 -0.0984
 1470BOLB   C3B35267   5.087  14.944  17.354  0.0349 -0.1490  0.0538
 1470BOLB   C4B35268   5.297  14.628  17.193  0.0853  0.0618  0.1161
 1470BOLB   NC235269   5.123  14.920  20.709  0.1801  0.1566 -0.1278
 1470BOLB   PO235270   4.834  14.522  20.629  0.1977 -0.0508  0.6201
 1470BOLB   GL335271   4.757  14.797  20.292 -0.1718  0.1752  0.1691
 1470BOLB   GL435272   4.623  15.046  20.396  0.4965  0.1611  0.1856
 1470BOLB   C1C35273   4.443  14.830  19.910  0.0353  0.0454 -0.0805
 1470BOLB   C2C35274   4.387  15.055  19.480  0.0508 -0.1276 -0.1155
 1470BOLB   C3C35275   4.626  15.093  19.126  0.0283  0.0208 -0.1133
 1470BOLB   C4C35276   4.956  15.119  18.842  0.0017 -0.1735  0.2595
 1470BOLB   C1D35277   4.547  15.267  19.940 -0.1685  0.4232  0.3545
 1470BOLB   C2D35278   4.525  15.582  19.557 -0.1157 -0.1178  0.0647
 1470BOLB   C3D35279   4.638  15.604  19.071 -0.1299  0.0545  0.0577
 1470BOLB   C4D35280   4.587  15.511  18.628 -0.4050 -0.1033 -0.1493
 1471BOLB   NC135281  28.830  23.439  11.796 -0.0213  0.1524 -0.2839
 1471BOLB   PO135282  28.923  23.075  11.545 -0.1478 -0.3311  0.2806
 1471BOLB   GL135283  29.333  23.020  11.382 -0.2931  0.1659  0.2246
 1471BOLB   GL235284  29.405  22.632  11.358  0.0856  0.1134  0.0066
 1471BOLB   C1A35285  29.861  23.191  11.379  0.1707 -0.0474  0.0040
 1471BOLB   C2A35286  30.126  23.492  11.271  0.0213 -0.2406 -0.0211
 1471BOLB   C3A35287  30.458  23.681  11.518  0.0042 -0.1125  0.0632
 1471BOLB   C4A35288  30.810  23.843  11.629 -0.0951  0.1602 -0.0746
 1471BOLB   C1B35289  29.524  22.465  10.956 -0.2017  0.3679  0.1055
 1471BOLB   C2B35290  29.822  22.643  10.610  0.0254 -0.0260  0.1169
 1471BOLB   C3B35291  30.182  22.877  10.768  0.1806  0.2494 -0.1439
 1471BOLB   C4B35292  30.291  23.052  11.096  0.1311 -0.0324  0.0255
 1471BOLB   NC235293  31.078  25.693  12.074 -0.1565 -0.2531  0.1645
 1471BOLB   PO235294  30.922  25.661  11.726  0.0537 -0.0931 -0.0963
 1471BOLB   GL335295  31.087  25.272  11.706  0.0502 -0.1178 -0.2202
 1471BOLB   GL435296  30.837  25.159  11.517  0.0374 -0.0127  0.0186
 1471BOLB   C1C35297  31.146  24.999  12.059  0.0580  0.1063  0.0461
 1471BOLB   C2C35298  31.082  24.584  12.266 -0.0149 -0.3471  0.0673
 1471BOLB   C3C35299  31.099  24.194  12.344 -0.1895 -0.0652 -0.0620
 1471BOLB   C4C35300  31.095  24.093  11.912 -0.0251  0.4063  0.1533
 1471BOLB   C1D35301  31.167  25.125  11.224  0.0273  0.1766  0.2336
 1471BOLB   C2D35302  31.578  25.068  11.264  0.1257  0.1531  0.0901
 1471BOLB   C3D35303  31.878  24.855  10.983  0.2428 -0.0550  0.0289
 1471BOLB   C4D35304  32.114  24.713  10.694  0.1554 -0.0753 -0.0328
 1472BOLB   NC135305   2.422  26.093   6.366 -0.2132  0.0124  0.2381
 1472BOLB   PO135306   2.127  26.123   6.129  0.3014  0.0873  0.5787
 1472BOLB   GL135307   2.061  26.591   5.959  0.0623  0.0855  0.0732
 1472BOLB   GL235308   1.864  26.402   5.674  0.0459 -0.2512 -0.1901
 1472BOLB   C1A35309   2.171  27.012   5.744 -0.0585  0.3301  0.0904
 1472BOLB   C2A35310   2.142  27.453   5.557  0.1638  0.0498  0.2067
 1472BOLB   C3A35311   1.917  27.572   5.279 -0.0035 -0.4733 -0.3335
 1472BOLB   C4A35312   1.572  27.672   4.978  0.0750  0.0334 -0.0586
 1472BOLB   C1B35313   1.925  26.712   5.432 -0.1750 -0.2533 -0.0672
 1472BOLB   C2B35314   1.872  27.047   5.288  0.0388 -0.0915 -0.1169
 1472BOLB   C3B35315   1.889  27.260   4.881 -0.1421  0.0173 -0.0585
 1472BOLB   C4B35316   1.827  26.952   4.462  0.1179  0.0938 -0.2590
 1472BOLB   NC235317  -0.039  28.474   3.234  0.0300  0.3001  0.4369
 1472BOLB   PO235318  -0.055  28.371   3.553 -0.0779 -0.1526  0.0589
 1472BOLB   GL335319   0.042  28.193   3.881 -0.1415  0.1110 -0.1589
 1472BOLB   GL435320  -0.013  27.844   4.002 -0.0181  0.1598  0.4046
 1472BOLB   C1C35321   0.395  28.229   4.176  0.2314 -0.1157 -0.2190
 1472BOLB   C2C35322   0.765  27.900   4.163  0.3747  0.2319  0.0376
 1472BOLB   C3C35323   1.143  27.820   4.273 -0.2691  0.3231 -0.1724
 1472BOLB   C4C35324   1.329  27.677   4.640 -0.0513 -0.0589 -0.2546
 1472BOLB   C1D35325   0.373  27.666   3.944  0.1605  0.0818 -0.2226
 1472BOLB   C2D35326   0.784  27.454   3.910  0.2768  0.1111 -0.2871
 1472BOLB   C3D35327   1.272  27.516   3.924  0.0310 -0.5507 -0.0390
 1472BOLB   C4D35328   1.663  27.331   4.114 -0.0666  0.0008  0.1254
 1473BOLB   NC135329  38.353  13.769  21.575 -0.0505 -0.2475 -0.0424
 1473BOLB   PO135330  38.761  13.896  21.532 -0.0166  0.1336 -0.1001
 1473BOLB   GL135331  38.612  14.030  21.091 -0.1461 -0.0343 -0.1220
 1473BOLB   GL235332  38.326  13.929  21.140 -0.1515 -0.1974  0.1228
 1473BOLB   C1A35333  38.622  14.235  20.712  0.3946 -0.0509 -0.3237
 1473BOLB   C2A35334  38.376  14.172  20.392 -0.0060  0.2273  0.1302
 1473BOLB   C3A35335  38.277  13.854  19.948 -0.0479 -0.2412 -0.1830
 1473BOLB   C4A35336  38.241  13.783  19.511  0.1231  0.1033  0.0397
 1473BOLB   C1B35337  38.302  13.772  20.781  0.1718  0.0584 -0.2240
 1473BOLB   C2B35338  38.161  13.549  20.515 -0.1645  0.2404  0.1977
 1473BOLB   C3B35339  38.398  13.452  20.139 -0.1203 -0.3133 -0.1667
 1473BOLB   C4B35340  38.508  13.359  19.701 -0.3308  0.0117  0.1061
 1473BOLB   NC235341  39.870  12.773  20.166 -0.0142 -0.0011 -0.0736
 1473BOLB   PO235342  39.584  12.780  20.515  0.1281 -0.0147  0.1914
 1473BOLB   GL335343  39.538  13.192  20.247 -0.0968  0.0310 -0.1999
 1473BOLB   GL435344  39.885  13.271  20.053 -0.1003  0.1960 -0.2194
 1473BOLB   C1C35345  39.320  13.108  19.879 -0.1413  0.1672  0.0323
 1473BOLB   C2C35346  39.057  13.352  19.684  0.1008 -0.0293  0.3839
 1473BOLB   C3C35347  38.844  13.505  19.405  0.2017  0.0899 -0.0781
 1473BOLB   C4C35348  38.464  13.558  19.273 -0.1023 -0.1763  0.1215
 1473BOLB   C1D35349  40.156  13.659  19.883  0.1032  0.3189  0.0476
 1473BOLB   C2D35350  40.292  13.886  19.644  0.0510  0.2425  0.2358
 1473BOLB   C3D35351  40.160  14.084  19.368  0.1127  0.0621  0.2436
 1473BOLB   C4D35352  39.862  14.245  19.381 -0.3031  0.1279 -0.1472
 1474BOLB   NC135353  10.994  23.578  17.084 -0.0620 -0.0860 -0.0717
 1474BOLB   PO135354  10.553  23.629  17.368 -0.2177 -0.0018  0.0483
 1474BOLB   GL135355  10.629  23.679  17.695 -0.0425 -0.2149 -0.0813
 1474BOLB   GL235356  11.016  23.768  17.660  0.0959  0.2646 -0.0185
 1474BOLB   C1A35357  10.833  23.492  18.055  0.1291 -0.0027 -0.3234
 1474BOLB   C2A35358  11.106  23.432  18.418 -0.3780 -0.2816 -0.3365
 1474BOLB   C3A35359  11.090  23.424  18.888  0.5903 -0.0421 -0.0445
 1474BOLB   C4A35360  11.342  23.603  19.237 -0.3965 -0.1487  0.0511
 1474BOLB   C1B35361  11.219  23.829  18.145  0.0893 -0.2035 -0.1649
 1474BOLB   C2B35362  11.430  23.765  18.476  0.1898 -0.2769 -0.0652
 1474BOLB   C3B35363  11.767  23.816  18.849  0.0634  0.0368 -0.0163
 1474BOLB   C4B35364  12.007  24.145  18.940  0.1275 -0.2734  0.0237
 1474BOLB   NC235365  12.451  22.471  21.085 -0.0775 -0.0412 -0.3970
 1474BOLB   PO235366  12.036  22.384  21.242  0.2241  0.0746  0.0728
 1474BOLB   GL335367  12.051  22.474  20.853  0.0896  0.1604  0.1566
 1474BOLB   GL435368  12.318  22.423  20.599  0.0811 -0.1707  0.0926
 1474BOLB   C1C35369  11.952  22.797  20.551 -0.0111  0.0340  0.0033
 1474BOLB   C2C35370  11.752  23.153  20.365  0.1702 -0.2657 -0.1681
 1474BOLB   C3C35371  11.563  23.282  20.083  0.0055 -0.0389  0.1734
 1474BOLB   C4C35372  11.463  23.435  19.635 -0.0740  0.0336 -0.1141
 1474BOLB   C1D35373  11.911  22.291  20.316  0.0565 -0.3545  0.1553
 1474BOLB   C2D35374  11.560  22.515  20.260  0.0798 -0.1176  0.0024
 1474BOLB   C3D35375  11.170  22.472  19.950 -0.1065 -0.1926  0.1966
 1474BOLB   C4D35376  10.867  22.182  19.748  0.2862  0.1045  0.1035
 1475BOLB   NC135377  10.287  27.191   8.591  0.0896 -0.1963  0.1079
 1475BOLB   PO135378  10.399  27.627   8.794 -0.1966 -0.0044  0.0708
 1475BOLB   GL135379  10.675  27.958   8.714 -0.3426  0.1117 -0.0105
 1475BOLB   GL235380  10.710  28.062   8.412  0.0554  0.0964  0.2570
 1475BOLB   C1A35381  11.073  28.233   8.687 -0.0402  0.0721 -0.0487
 1475BOLB   C2A35382  11.345  28.578   8.811  0.1297 -0.1865  0.1056
 1475BOLB   C3A35383  11.534  28.881   9.164 -0.2040  0.0228 -0.1080
 1475BOLB   C4A35384  11.774  29.342   8.974 -0.0912 -0.0914  0.1355
 1475BOLB   C1B35385  10.616  28.450   8.226  0.0227 -0.0169  0.0612
 1475BOLB   C2B35386  10.780  28.811   8.083 -0.2524 -0.1112  0.3041
 1475BOLB   C3B35387  11.143  28.922   7.803  0.0035  0.1240 -0.2546
 1475BOLB   C4B35388  11.437  29.094   7.422 -0.3425  0.1708  0.1976
 1475BOLB   NC235389  13.791  30.704   9.161  0.1817 -0.1144 -0.0110
 1475BOLB   PO235390  13.655  30.926   9.430 -0.1392 -0.3113 -0.0668
 1475BOLB   GL335391  13.368  30.586   9.543 -0.1004 -0.3952 -0.0298
 1475BOLB   GL435392  13.574  30.422   9.605 -0.2703 -0.0793 -0.1536
 1475BOLB   C1C35393  13.049  30.298   9.468 -0.1294  0.2084  0.1503
 1475BOLB   C2C35394  12.849  30.147   9.119  0.0366  0.0071  0.0606
 1475BOLB   C3C35395  12.400  29.790   8.995 -0.1814 -0.3173 -0.1560
 1475BOLB   C4C35396  12.109  29.638   9.028  0.0985 -0.3921 -0.1680
 1475BOLB   C1D35397  13.480  30.009   9.731 -0.0193  0.0423 -0.1285
 1475BOLB   C2D35398  13.514  29.588   9.648 -0.0759 -0.3925 -0.1213
 1475BOLB   C3D35399  13.477  29.069   9.671  0.2211 -0.2195  0.1047
 1475BOLB   C4D35400  13.295  28.881   9.404  0.1713  0.2413 -0.1425
 1476BOLB   NC135401   1.571  20.556   4.739  0.0234 -0.0014 -0.2010
 1476BOLB   PO135402   1.370  20.410   4.404  0.1128  0.0189 -0.1232
 1476BOLB   GL135403   1.006  20.561   4.117 -0.1791 -0.0064 -0.0579
 1476BOLB   GL235404   1.149  20.648   3.846  0.0214  0.1167 -0.0237
 1476BOLB   C1A35405   0.555  20.713   4.045 -0.0843 -0.1760  0.0024
 1476BOLB   C2A35406   0.360  20.985   3.690 -0.0788 -0.0920 -0.0700
 1476BOLB   C3A35407   0.110  20.876   3.288 -0.5174  0.1673 -0.1858
 1476BOLB   C4A35408   0.105  20.676   2.879 -0.2465  0.3254 -0.0887
 1476BOLB   C1B35409   0.712  20.430   3.670  0.2064  0.0034  0.1450
 1476BOLB   C2B35410   0.527  19.990   3.632 -0.1570  0.1646 -0.2470
 1476BOLB   C3B35411   0.468  19.621   3.824 -0.0910 -0.1135 -0.0958
 1476BOLB   C4B35412   0.334  19.255   3.502 -0.0014  0.2360 -0.1953
 1476BOLB   NC235413  -1.476  21.523   0.906  0.1275  0.2134  0.0638
 1476BOLB   PO235414  -1.247  21.075   0.914 -0.0738  0.2305  0.0837
 1476BOLB   GL335415  -1.130  21.091   1.242  0.1720  0.5556 -0.2136
 1476BOLB   GL435416  -0.822  21.007   1.251  0.1181  0.1029  0.3192
 1476BOLB   C1C35417  -0.988  21.034   1.682  0.2511 -0.1874 -0.1001
 1476BOLB   C2C35418  -0.916  20.895   2.123 -0.2580 -0.4642 -0.2031
 1476BOLB   C3C35419  -0.519  20.871   2.330 -0.2170  0.1930  0.1367
 1476BOLB   C4C35420  -0.129  20.827   2.499 -0.2154  0.0550  0.2036
 1476BOLB   C1D35421  -0.612  20.767   1.500 -0.1277  0.0554  0.0572
 1476BOLB   C2D35422  -0.623  20.506   1.848  0.0198  0.1420  0.0666
 1476BOLB   C3D35423  -0.586  20.314   2.198 -0.1669 -0.2479  0.0402
 1476BOLB   C4D35424  -0.143  20.023   2.312 -0.0409  0.1882  0.2838
 1477BOLB   NC135425   4.490  21.028  18.633 -0.0729  0.1293  0.1967
 1477BOLB   PO135426   4.668  21.467  18.641  0.1029  0.1224  0.2727
 1477BOLB   GL135427   4.463  21.311  19.026 -0.1431  0.0682  0.0698
 1477BOLB   GL235428   4.322  20.895  19.053  0.2116  0.3301  0.0527
 1477BOLB   C1A35429   4.413  21.176  19.442  0.1342  0.0264  0.0732
 1477BOLB   C2A35430   4.373  21.314  19.859 -0.0633 -0.1426  0.0801
 1477BOLB   C3A35431   4.452  21.529  20.269  0.0861  0.1478  0.2464
 1477BOLB   C4A35432   4.423  21.698  20.643  0.2761  0.0892 -0.0261
 1477BOLB   C1B35433   4.051  20.817  19.402  0.1462  0.2011  0.0279
 1477BOLB   C2B35434   3.891  20.385  19.552 -0.1824 -0.2432  0.0118
 1477BOLB   C3B35435   3.624  20.017  19.629  0.3071  0.0158 -0.0085
 1477BOLB   C4B35436   3.672  20.078  20.155  0.3855  0.3267 -0.0903
 1477BOLB   NC235437   4.719  23.171  23.049  0.0544  0.0231  0.1063
 1477BOLB   PO235438   4.821  22.812  22.798  0.0271  0.2252  0.3446
 1477BOLB   GL335439   4.749  22.776  22.341 -0.2481  0.0938  0.3172
 1477BOLB   GL435440   4.756  23.031  22.200  0.1185 -0.1046 -0.1262
 1477BOLB   C1C35441   4.777  22.654  21.902 -0.0492 -0.0170 -0.2059
 1477BOLB   C2C35442   4.635  22.353  21.559 -0.0035 -0.0371 -0.1658
 1477BOLB   C3C35443   4.603  21.992  21.367 -0.0863 -0.1872 -0.0085
 1477BOLB   C4C35444   4.514  21.915  20.936 -0.0495 -0.1400 -0.1105
 1477BOLB   C1D35445   4.631  23.237  21.856 -0.0035 -0.0879  0.0780
 1477BOLB   C2D35446   4.764  23.659  21.642  0.0178  0.0434  0.0886
 1477BOLB   C3D35447   4.978  24.031  21.480 -0.0724  0.1842  0.0226
 1477BOLB   C4D35448   5.118  24.165  21.087  0.2673  0.1026  0.0884
 1478BOLB   NC135449   3.718  28.462  11.662  0.2246  0.3530 -0.2009
 1478BOLB   PO135450   3.308  28.345  11.521 -0.0597 -0.0781 -0.1561
 1478BOLB   GL135451   2.826  28.449  11.611 -0.1899 -0.2978  0.1520
 1478BOLB   GL235452   2.819  28.285  11.926  0.2459  0.1474  0.1359
 1478BOLB   C1A35453   2.405  28.707  11.715 -0.1895 -0.1432 -0.2617
 1478BOLB   C2A35454   2.337  29.061  12.111 -0.1411 -0.1704  0.0496
 1478BOLB   C3A35455   2.136  29.400  12.326 -0.0311  0.1858 -0.2327
 1478BOLB   C4A35456   1.832  29.736  12.534  0.1120 -0.2657  0.1598
 1478BOLB   C1B35457   2.629  28.458  12.182  0.2669 -0.0543  0.0900
 1478BOLB   C2B35458   2.433  28.723  12.530  0.1076  0.0421  0.0589
 1478BOLB   C3B35459   2.274  29.084  12.738  0.0299 -0.0371  0.2987
 1478BOLB   C4B35460   1.872  29.255  12.726  0.1690 -0.0921 -0.3214
 1478BOLB   NC235461  -0.573  31.410  12.805 -0.1319 -0.0532 -0.1602
 1478BOLB   PO235462  -0.166  31.109  12.781 -0.3432  0.4472 -0.0991
 1478BOLB   GL335463  -0.152  30.744  12.694  0.0719 -0.1569  0.0166
 1478BOLB   GL435464  -0.257  30.671  12.449  0.0122  0.1857 -0.4196
 1478BOLB   C1C35465   0.264  30.494  12.745  0.1656  0.1848  0.4346
 1478BOLB   C2C35466   0.760  30.482  12.738 -0.3289 -0.1772 -0.3247
 1478BOLB   C3C35467   1.211  30.417  12.688 -0.3405 -0.0542 -0.0778
 1478BOLB   C4C35468   1.597  30.033  12.719  0.0325  0.0742  0.1318
 1478BOLB   C1D35469  -0.108  30.243  12.424 -0.1638  0.1579  0.2043
 1478BOLB   C2D35470   0.095  29.783  12.182  0.0981 -0.0829  0.1227
 1478BOLB   C3D35471   0.230  29.354  12.123  0.0987 -0.1983  0.2668
 1478BOLB   C4D35472   0.162  28.842  12.065 -0.1633  0.0588  0.0330
 1479BOLB   NC135473  33.811  20.302  19.361  0.0702 -0.0514  0.2088
 1479BOLB   PO135474  33.390  20.095  19.431  0.1848 -0.1027  0.2657
 1479BOLB   GL135475  33.418  20.029  19.094  0.0019  0.0739  0.1900
 1479BOLB   GL235476  33.220  19.809  18.951  0.1314  0.0583 -0.1769
 1479BOLB   C1A35477  33.790  20.260  18.711 -0.2498 -0.5554  0.1188
 1479BOLB   C2A35478  33.851  20.464  18.351 -0.1404 -0.0691 -0.1258
 1479BOLB   C3A35479  34.297  20.761  18.068  0.2964 -0.1961  0.2138
 1479BOLB   C4A35480  34.415  21.062  17.763  0.0751 -0.1334  0.4003
 1479BOLB   C1B35481  33.243  19.374  18.776  0.0362  0.0418 -0.0602
 1479BOLB   C2B35482  32.928  18.993  18.754  0.0206 -0.1157 -0.2587
 1479BOLB   C3B35483  32.778  18.624  18.575  0.0967 -0.2499 -0.1084
 1479BOLB   C4B35484  32.489  18.386  18.465  0.2064  0.3278 -0.1911
 1479BOLB   NC235485  36.162  22.224  19.356  0.3397  0.0195 -0.1391
 1479BOLB   PO235486  36.078  22.397  18.943  0.2830 -0.0604 -0.1945
 1479BOLB   GL335487  35.834  22.271  18.592  0.0588  0.1330 -0.0448
 1479BOLB   GL435488  35.856  22.369  18.246  0.2049  0.5708  0.0925
 1479BOLB   C1C35489  35.656  21.899  18.463  0.0371  0.0823  0.0521
 1479BOLB   C2C35490  35.409  21.629  18.273 -0.1771  0.2471  0.1373
 1479BOLB   C3C35491  35.137  21.260  18.054 -0.2358  0.0243  0.1281
 1479BOLB   C4C35492  34.701  21.285  17.915  0.1569  0.3334  0.0069
 1479BOLB   C1D35493  35.944  22.044  18.036 -0.1671  0.1708  0.0422
 1479BOLB   C2D35494  36.090  21.773  17.704  0.1526 -0.0347 -0.0557
 1479BOLB   C3D35495  36.286  21.600  17.325  0.0503 -0.1280  0.1391
 1479BOLB   C4D35496  36.392  21.214  17.208 -0.0594 -0.0544 -0.2258
 1480BOLB   NC135497   1.677  26.740   7.987 -0.0554 -0.3690 -0.0444
 1480BOLB   PO135498   1.356  26.422   8.321 -0.0358  0.1127  0.1284
 1480BOLB   GL135499   1.162  26.689   7.954  0.0058 -0.0260 -0.0626
 1480BOLB   GL235500   0.904  26.591   7.794  0.2725  0.0014 -0.0286
 1480BOLB   C1A35501   1.018  27.053   7.700 -0.1577 -0.0810 -0.2622
 1480BOLB   C2A35502   0.960  27.445   7.627 -0.1543 -0.0588 -0.1537
 1480BOLB   C3A35503   0.825  27.834   7.810  0.0716 -0.1884  0.0262
 1480BOLB   C4A35504   0.686  28.252   7.872 -0.1527  0.0618  0.0306
 1480BOLB   C1B35505   0.632  26.811   7.959  0.2998  0.3690  0.0883
 1480BOLB   C2B35506   0.612  27.161   7.908  0.3443  0.1713  0.1073
 1480BOLB   C3B35507   0.436  27.526   7.700 -0.0463  0.0179 -0.0358
 1480BOLB   C4B35508   0.209  27.778   7.854 -0.4844 -0.0825  0.0153
 1480BOLB   NC235509   0.183  30.872   7.686  0.1019 -0.1208  0.2342
 1480BOLB   PO235510   0.093  30.548   7.427  0.0928  0.1829 -0.1686
 1480BOLB   GL335511   0.242  30.157   7.343 -0.0997  0.0770 -0.1924
 1480BOLB   GL435512   0.601  30.244   7.362  0.0531 -0.2840 -0.0752
 1480BOLB   C1C35513   0.372  29.850   7.231  0.0757  0.1645 -0.0133
 1480BOLB   C2C35514   0.338  29.354   7.362 -0.0607  0.0535  0.2590
 1480BOLB   C3C35515   0.475  29.067   7.709 -0.1430  0.2519 -0.1229
 1480BOLB   C4C35516   0.559  28.666   7.860  0.0699 -0.1221  0.1806
 1480BOLB   C1D35517   0.780  29.930   7.656 -0.2674  0.1579  0.0584
 1480BOLB   C2D35518   0.852  29.566   7.529 -0.0580  0.0606  0.2183
 1480BOLB   C3D35519   0.771  29.104   7.351  0.0887 -0.1415  0.0349
 1480BOLB   C4D35520   0.830  28.727   7.420 -0.1629 -0.2891 -0.3891
 1481BOLB   NC135521  30.016  21.215   5.826 -0.1570 -0.0086 -0.2824
 1481BOLB   PO135522  30.006  20.938   5.503  0.1902  0.1376 -0.2821
 1481BOLB   GL135523  30.494  21.006   5.595 -0.3713 -0.0270 -0.1725
 1481BOLB   GL235524  30.585  21.112   5.342  0.1631 -0.1488 -0.0625
 1481BOLB   C1A35525  30.879  20.710   5.528 -0.0918 -0.1359  0.1826
 1481BOLB   C2A35526  31.080  20.432   5.321 -0.0992  0.0979 -0.2398
 1481BOLB   C3A35527  31.206  20.084   5.391 -0.2696 -0.0480  0.1042
 1481BOLB   C4A35528  31.540  20.017   5.755 -0.1978  0.2181  0.0103
 1481BOLB   C1B35529  30.981  21.157   5.469 -0.0152 -0.0213  0.1009
 1481BOLB   C2B35530  31.304  21.266   5.560  0.0744  0.0677  0.1125
 1481BOLB   C3B35531  31.560  21.141   5.890 -0.1934  0.1009  0.1848
 1481BOLB   C4B35532  31.579  20.826   6.218 -0.0287 -0.2017  0.0366
 1481BOLB   NC235533  29.967  19.351   4.771  0.1419  0.0591  0.0613
 1481BOLB   PO235534  30.325  19.206   4.941 -0.1278  0.4311  0.2391
 1481BOLB   GL335535  30.466  19.423   5.395 -0.0957  0.2993  0.1672
 1481BOLB   GL435536  30.343  19.293   5.751  0.3454  0.1045  0.1006
 1481BOLB   C1C35537  30.873  19.155   5.663 -0.1218 -0.0739  0.1384
 1481BOLB   C2C35538  31.125  19.232   6.022 -0.3267 -0.2845 -0.1133
 1481BOLB   C3C35539  31.411  19.558   6.088  0.1715 -0.0685 -0.0184
 1481BOLB   C4C35540  31.721  19.780   6.077 -0.0233 -0.2580 -0.1350
 1481BOLB   C1D35541  30.627  19.486   6.112  0.0092  0.1050  0.0439
 1481BOLB   C2D35542  30.845  19.940   6.138 -0.1729 -0.0031 -0.0853
 1481BOLB   C3D35543  31.227  20.083   6.220 -0.2747  0.1128 -0.1080
 1481BOLB   C4D35544  31.406  20.360   6.605 -0.2887  0.1779 -0.1904
 1482BOLB   NC135545  14.730  22.906   6.936  0.3749  0.0737 -0.0820
 1482BOLB   PO135546  14.714  22.422   6.852  0.0284 -0.1247 -0.1231
 1482BOLB   GL135547  15.178  22.409   6.789  0.1164  0.0744 -0.0329
 1482BOLB   GL235548  15.163  22.671   6.529  0.0004  0.0335  0.0929
 1482BOLB   C1A35549  15.583  22.487   6.743 -0.1375 -0.0012  0.4188
 1482BOLB   C2A35550  15.930  22.522   6.429  0.0576  0.1268  0.0166
 1482BOLB   C3A35551  16.275  22.618   6.458 -0.2670  0.1442 -0.0978
 1482BOLB   C4A35552  16.772  22.600   6.344  0.1891 -0.1490  0.0883
 1482BOLB   C1B35553  15.488  22.560   6.162  0.3145 -0.2536  0.0907
 1482BOLB   C2B35554  15.542  22.822   5.805  0.0669  0.1819  0.0598
 1482BOLB   C3B35555  15.808  22.994   5.527  0.1490 -0.1119  0.0624
 1482BOLB   C4B35556  15.956  22.852   5.089  0.0086 -0.1780  0.3133
 1482BOLB   NC235557  18.763  23.894   5.323  0.0135  0.0928 -0.3169
 1482BOLB   PO235558  18.363  23.932   5.074  0.0581 -0.0243 -0.1360
 1482BOLB   GL335559  18.034  23.641   5.354  0.0244 -0.2143 -0.1228
 1482BOLB   GL435560  18.074  23.842   5.576  0.1057 -0.0276  0.2677
 1482BOLB   C1C35561  17.856  23.387   5.682 -0.0540 -0.2048  0.2945
 1482BOLB   C2C35562  17.678  23.086   5.781 -0.0867 -0.0231 -0.0577
 1482BOLB   C3C35563  17.338  22.890   6.008  0.0076  0.3077  0.1012
 1482BOLB   C4C35564  16.992  22.859   6.132  0.0139  0.0122  0.0855
 1482BOLB   C1D35565  17.777  23.804   5.932 -0.4077 -0.2454 -0.0936
 1482BOLB   C2D35566  17.533  24.031   6.203  0.1395  0.0959 -0.0823
 1482BOLB   C3D35567  17.288  24.240   6.233  0.1837  0.0229 -0.3426
 1482BOLB   C4D35568  16.934  24.273   6.392 -0.2508  0.2900 -0.5785
 1483BOLB   NC135569   6.334  15.776   3.453 -0.1827  0.0032 -0.2555
 1483BOLB   PO135570   5.970  15.756   3.799 -0.0472 -0.1177  0.4892
 1483BOLB   GL135571   6.001  15.389   3.472 -0.0331 -0.2216  0.3246
 1483BOLB   GL235572   6.106  15.075   3.513 -0.2663 -0.2041 -0.3067
 1483BOLB   C1A35573   5.751  15.173   3.214 -0.4346 -0.1698  0.2058
 1483BOLB   C2A35574   5.688  14.853   2.786  0.1576  0.1393 -0.1435
 1483BOLB   C3A35575   5.675  14.403   2.795 -0.1690 -0.1604 -0.4243
 1483BOLB   C4A35576   6.004  14.033   2.715 -0.0710  0.1339  0.1537
 1483BOLB   C1B35577   6.150  14.996   2.977 -0.0538  0.0810 -0.0638
 1483BOLB   C2B35578   6.253  14.680   2.708 -0.0773  0.0315  0.0107
 1483BOLB   C3B35579   6.378  14.393   2.605 -0.0046 -0.0464  0.0408
 1483BOLB   C4B35580   6.716  14.205   2.427 -0.0621  0.0965  0.1706
 1483BOLB   NC235581   6.520  11.801   0.886 -0.4402  0.1091  0.2230
 1483BOLB   PO235582   6.403  12.224   1.071  0.0614 -0.3628  0.1370
 1483BOLB   GL335583   6.343  12.728   1.196 -0.4399  0.0644 -0.3825
 1483BOLB   GL435584   6.544  12.920   1.296 -0.2129  0.0975  0.1547
 1483BOLB   C1C35585   6.018  12.869   1.471 -0.0626  0.1259 -0.0812
 1483BOLB   C2C35586   5.969  13.220   1.808 -0.0686  0.5428  0.1121
 1483BOLB   C3C35587   6.063  13.371   2.249  0.2027  0.1507 -0.1190
 1483BOLB   C4C35588   5.870  13.586   2.644  0.1572  0.0696  0.1202
 1483BOLB   C1D35589   6.394  13.029   1.771 -0.2675  0.4762 -0.0771
 1483BOLB   C2D35590   6.212  12.897   2.207 -0.0862 -0.1756 -0.1235
 1483BOLB   C3D35591   5.892  12.960   2.460  0.1746  0.1885  0.3014
 1483BOLB   C4D35592   6.136  13.193   2.838 -0.1070  0.1856 -0.1563
 1484BOLB   NC135593   5.450  13.363   8.392  0.1487 -0.4013 -0.0613
 1484BOLB   PO135594   5.608  12.990   8.330  0.2322 -0.0582  0.1389
 1484BOLB   GL135595   5.428  12.613   8.271  0.1331 -0.1192  0.2720
 1484BOLB   GL235596   5.586  12.484   8.033 -0.0371  0.2868  0.0481
 1484BOLB   C1A35597   5.162  12.230   8.047 -0.0449 -0.0160 -0.2248
 1484BOLB   C2A35598   5.123  11.862   7.869  0.0243 -0.2166 -0.0869
 1484BOLB   C3A35599   5.115  11.390   7.646 -0.2389  0.0212  0.0099
 1484BOLB   C4A35600   5.317  10.986   7.713 -0.1016 -0.0966 -0.1062
 1484BOLB   C1B35601   5.631  12.134   7.832  0.0552  0.1079 -0.1613
 1484BOLB   C2B35602   5.568  11.791   7.596  0.0542  0.3252 -0.0415
 1484BOLB   C3B35603   5.471  11.577   7.268 -0.0486 -0.0170 -0.1666
 1484BOLB   C4B35604   5.583  11.101   7.099 -0.0805 -0.1710  0.2675
 1484BOLB   NC235605   6.171   8.075   7.842 -0.3069  0.2072  0.1253
 1484BOLB   PO235606   6.129   8.560   7.775 -0.2550 -0.0824  0.0405
 1484BOLB   GL335607   6.088   9.010   7.916  0.2574  0.1442 -0.2275
 1484BOLB   GL435608   6.370   9.164   7.847  0.0980 -0.1247 -0.3580
 1484BOLB   C1C35609   5.880   9.470   8.034 -0.3017 -0.1206  0.1579
 1484BOLB   C2C35610   5.592   9.908   8.086 -0.0183  0.1014 -0.0905
 1484BOLB   C3C35611   5.490  10.373   8.230  0.2730 -0.0502 -0.2708
 1484BOLB   C4C35612   5.526  10.755   8.049 -0.3059  0.1420 -0.3499
 1484BOLB   C1D35613   6.245   9.645   7.688  0.1406  0.2998  0.1104
 1484BOLB   C2D35614   5.791   9.914   7.635  0.1858  0.2676  0.1849
 1484BOLB   C3D35615   5.531  10.300   7.675  0.1694 -0.0007 -0.2559
 1484BOLB   C4D35616   5.133  10.571   7.600 -0.0556  0.1136  0.0430
 1485BOLB   NC135617   6.206  17.077  17.463  0.0944  0.1608 -0.0347
 1485BOLB   PO135618   6.511  17.408  17.530 -0.1271  0.2005 -0.1147
 1485BOLB   GL135619   6.577  17.195  17.899 -0.0123 -0.1101 -0.3043
 1485BOLB   GL235620   6.219  17.080  17.974  0.1128  0.0800  0.1600
 1485BOLB   C1A35621   6.672  16.733  18.062 -0.0925 -0.2275  0.0601
 1485BOLB   C2A35622   6.731  16.426  18.272  0.0020  0.4317 -0.1924
 1485BOLB   C3A35623   6.661  16.114  18.505  0.0804 -0.0378 -0.2083
 1485BOLB   C4A35624   6.618  15.733  18.753 -0.1745  0.2138 -0.3634
 1485BOLB   C1B35625   6.186  16.936  18.453 -0.0144  0.3302  0.0125
 1485BOLB   C2B35626   6.323  16.543  18.737  0.4124  0.1741 -0.0863
 1485BOLB   C3B35627   6.512  16.142  19.003 -0.1156  0.1260  0.6189
 1485BOLB   C4B35628   6.639  15.736  19.345  0.1730 -0.2644 -0.0967
 1485BOLB   NC235629   6.608  15.040  21.335 -0.3183  0.0427 -0.0703
 1485BOLB   PO235630   6.413  14.793  20.983 -0.4526 -0.2228  0.1882
 1485BOLB   GL335631   6.501  14.926  20.521 -0.0879 -0.0043  0.2337
 1485BOLB   GL435632   6.193  14.992  20.302 -0.0416 -0.3457 -0.1604
 1485BOLB   C1C35633   6.704  15.222  20.214  0.2499  0.1021 -0.1022
 1485BOLB   C2C35634   6.842  15.360  19.794 -0.2261 -0.0739  0.3803
 1485BOLB   C3C35635   6.825  15.308  19.295 -0.1495  0.0725 -0.0282
 1485BOLB   C4C35636   6.828  15.464  18.875  0.0156  0.0817 -0.0866
 1485BOLB   C1D35637   6.326  15.118  19.948  0.2602  0.1531  0.1237
 1485BOLB   C2D35638   6.207  15.382  19.697  0.1645 -0.1602 -0.2876
 1485BOLB   C3D35639   5.899  15.496  19.501  0.1815  0.4545 -0.2147
 1485BOLB   C4D35640   5.833  15.555  19.001 -0.0203 -0.3634 -0.0975
 1486BOLB   NC135641   9.825  15.450  12.729  0.1022  0.3133 -0.1426
 1486BOLB   PO135642  10.206  15.309  12.787 -0.1826 -0.1939 -0.1161
 1486BOLB   GL135643  10.248  14.857  13.070  0.0639 -0.1618 -0.0813
 1486BOLB   GL235644  10.148  14.543  12.961 -0.1818 -0.1313  0.2353
 1486BOLB   C1A35645  10.470  14.669  13.352  0.0508  0.0856 -0.0265
 1486BOLB   C2A35646  10.460  14.437  13.788 -0.1959  0.1561  0.0367
 1486BOLB   C3A35647  10.585  14.081  14.085  0.0523 -0.0147 -0.2716
 1486BOLB   C4A35648  10.618  13.853  14.524  0.1105  0.0465  0.3238
 1486BOLB   C1B35649  10.264  14.223  13.217 -0.0728  0.0431 -0.4396
 1486BOLB   C2B35650  10.579  14.068  13.482 -0.0900  0.0891  0.0019
 1486BOLB   C3B35651  10.584  13.712  13.698  0.0870  0.5417 -0.2067
 1486BOLB   C4B35652  10.657  13.280  13.773  0.2813 -0.3061  0.2277
 1486BOLB   NC235653  11.332  12.211  16.283  0.0175 -0.3450  0.0169
 1486BOLB   PO235654  11.661  12.070  16.062  0.3433 -0.2353 -0.3266
 1486BOLB   GL335655  11.708  12.316  15.646 -0.2174 -0.0016  0.1016
 1486BOLB   GL435656  11.917  12.311  15.442 -0.0517 -0.0256  0.0047
 1486BOLB   C1C35657  11.432  12.550  15.247  0.0891  0.1897 -0.2698
 1486BOLB   C2C35658  11.208  12.800  15.001 -0.4841  0.1020 -0.2210
 1486BOLB   C3C35659  11.003  13.134  14.716  0.0326 -0.0558 -0.0703
 1486BOLB   C4C35660  10.894  13.528  14.678  0.1821  0.1126 -0.1890
 1486BOLB   C1D35661  12.045  12.679  15.396 -0.0639  0.0199  0.0216
 1486BOLB   C2D35662  11.812  12.939  15.160  0.0483  0.0893  0.2220
 1486BOLB   C3D35663  11.552  13.136  14.921 -0.1242 -0.1124 -0.0433
 1486BOLB   C4D35664  11.423  13.480  14.502  0.0092 -0.3606 -0.3151
 1487BOLB   NC135665  13.974  24.791  11.074 -0.0399  0.1347 -0.2131
 1487BOLB   PO135666  14.112  24.604  11.486 -0.4438 -0.0874 -0.1101
 1487BOLB   GL135667  14.445  24.717  11.721 -0.2811 -0.0250  0.1931
 1487BOLB   GL235668  14.628  24.433  11.680 -0.1198  0.2594 -0.1502
 1487BOLB   C1A35669  14.794  25.013  11.762 -0.0277  0.1128  0.0655
 1487BOLB   C2A35670  15.136  25.229  11.965 -0.3331 -0.0078 -0.0692
 1487BOLB   C3A35671  15.313  25.497  12.246  0.1052 -0.1657 -0.0451
 1487BOLB   C4A35672  15.663  25.544  12.323  0.1473  0.0275 -0.0707
 1487BOLB   C1B35673  14.944  24.590  11.865 -0.1169  0.1405 -0.1403
 1487BOLB   C2B35674  15.311  24.807  11.926  0.1120  0.1941 -0.0010
 1487BOLB   C3B35675  15.688  24.961  11.913 -0.1651  0.3092  0.3279
 1487BOLB   C4B35676  16.076  24.999  11.738  0.1545  0.0140 -0.2150
 1487BOLB   NC235677  17.131  26.644  13.058  0.2549  0.2774  0.2885
 1487BOLB   PO235678  17.292  26.702  12.655 -0.2091  0.2393 -0.4623
 1487BOLB   GL335679  16.951  26.303  12.730 -0.2672 -0.2254  0.1298
 1487BOLB   GL435680  16.775  26.367  12.529  0.1707  0.1360  0.1040
 1487BOLB   C1C35681  16.696  26.118  13.039 -0.2780 -0.2115  0.1329
 1487BOLB   C2C35682  16.291  26.017  13.156 -0.2287 -0.0651  0.2244
 1487BOLB   C3C35683  15.960  25.611  13.073 -0.0203 -0.0750 -0.1399
 1487BOLB   C4C35684  15.929  25.487  12.665 -0.2411  0.0285  0.0483
 1487BOLB   C1D35685  16.469  26.035  12.474 -0.3619  0.5849 -0.2027
 1487BOLB   C2D35686  16.352  25.726  12.699  0.0756  0.0636  0.0627
 1487BOLB   C3D35687  16.476  25.305  12.936  0.2391  0.1543 -0.2854
 1487BOLB   C4D35688  16.453  24.908  13.223 -0.0813  0.1493  0.1859
 1488BOLB   NC135689   6.862  18.843  17.725 -0.2532  0.1548 -0.1111
 1488BOLB   PO135690   6.552  18.860  18.102  0.1667 -0.2510  0.1707
 1488BOLB   GL135691   6.504  18.476  18.327  0.2228  0.3234 -0.0907
 1488BOLB   GL235692   6.420  18.637  18.665 -0.0455 -0.1210 -0.0128
 1488BOLB   C1A35693   6.577  18.127  18.705  0.1116  0.1993  0.1770
 1488BOLB   C2A35694   6.588  17.785  18.892 -0.0606  0.0285  0.0703
 1488BOLB   C3A35695   6.762  17.387  19.060 -0.0676  0.2165  0.2112
 1488BOLB   C4A35696   6.884  16.968  19.239  0.2027  0.0123 -0.2113
 1488BOLB   C1B35697   6.470  18.469  19.093  0.1343  0.3427  0.0250
 1488BOLB   C2B35698   6.711  18.081  19.360  0.0935 -0.0854 -0.0154
 1488BOLB   C3B35699   6.863  17.825  19.601  0.0726  0.0376 -0.3216
 1488BOLB   C4B35700   6.805  17.566  19.930 -0.0800 -0.1107  0.1608
 1488BOLB   NC235701   6.740  16.267  21.494  0.1386 -0.3068 -0.4517
 1488BOLB   PO235702   6.847  15.961  21.372 -0.0317  0.0216 -0.0958
 1488BOLB   GL335703   6.669  15.946  20.978 -0.1224  0.0903  0.3546
 1488BOLB   GL435704   6.741  15.634  20.921 -0.2111  0.2878 -0.2044
 1488BOLB   C1C35705   6.755  16.102  20.584  0.1934  0.0734  0.2480
 1488BOLB   C2C35706   6.616  16.256  20.231  0.1532 -0.3690  0.0372
 1488BOLB   C3C35707   6.525  16.619  19.908  0.1115  0.0513  0.0150
 1488BOLB   C4C35708   6.743  16.814  19.574  0.3135  0.0236  0.0286
 1488BOLB   C1D35709   6.896  15.529  20.564 -0.2270  0.3997  0.0926
 1488BOLB   C2D35710   6.831  15.774  20.128  0.0789  0.1627 -0.2417
 1488BOLB   C3D35711   6.493  15.850  19.863 -0.1296 -0.0900 -0.0428
 1488BOLB   C4D35712   6.438  16.193  19.549  0.0882  0.0162 -0.0486
 1489BOLB   NC135713   4.193  18.492   2.801  0.3904 -0.2967  0.0061
 1489BOLB   PO135714   3.838  18.635   3.028  0.0306  0.0989  0.0753
 1489BOLB   GL135715   3.707  18.393   2.613 -0.0594 -0.3174  0.4696
 1489BOLB   GL235716   3.712  18.703   2.300 -0.0911 -0.2801 -0.1053
 1489BOLB   C1A35717   3.636  17.972   2.371 -0.2349  0.0366 -0.2940
 1489BOLB   C2A35718   3.677  17.839   1.923  0.2966  0.2480 -0.1314
 1489BOLB   C3A35719   3.391  17.738   1.612 -0.1103 -0.0291 -0.1568
 1489BOLB   C4A35720   3.239  17.715   1.172  0.1148 -0.3163 -0.0480
 1489BOLB   C1B35721   3.389  18.455   2.172 -0.4365 -0.0374 -0.2141
 1489BOLB   C2B35722   3.223  18.197   1.859  0.0938 -0.1161 -0.0906
 1489BOLB   C3B35723   2.984  18.122   1.497 -0.1183  0.3872 -0.1403
 1489BOLB   C4B35724   2.965  18.118   1.018 -0.2416 -0.0252 -0.1879
 1489BOLB   NC235725   3.680  15.610  -0.396  0.0213 -0.0799  0.2153
 1489BOLB   PO235726   3.367  15.835  -0.438  0.0281  0.2274  0.2000
 1489BOLB   GL335727   3.364  16.123  -0.228  0.0054  0.0889  0.1331
 1489BOLB   GL435728   3.137  16.128   0.123 -0.1317 -0.2777  0.3220
 1489BOLB   C1C35729   3.401  16.531   0.040 -0.1379 -0.0186 -0.1668
 1489BOLB   C2C35730   3.534  16.777   0.330  0.1816  0.0017  0.3908
 1489BOLB   C3C35731   3.403  16.996   0.736  0.1484 -0.1718 -0.4730
 1489BOLB   C4C35732   3.428  17.409   0.903 -0.0256  0.3158  0.3562
 1489BOLB   C1D35733   3.043  16.325   0.538  0.0071 -0.1319 -0.2957
 1489BOLB   C2D35734   3.106  16.534   0.862  0.2350  0.1058  0.3615
 1489BOLB   C3D35735   2.839  16.876   0.981 -0.0856  0.0674  0.0378
 1489BOLB   C4D35736   3.014  17.201   1.317  0.0105  0.1941  0.1980
 1490BOLB   NC135737  10.002  26.394   5.759  0.2861  0.1614 -0.1587
 1490BOLB   PO135738   9.536  26.288   5.620 -0.1101 -0.0064 -0.2197
 1490BOLB   GL135739   9.583  26.665   5.429  0.0607 -0.4252  0.0264
 1490BOLB   GL235740   9.506  26.689   5.015  0.1214 -0.1589  0.2599
 1490BOLB   C1A35741   9.846  27.052   5.422  0.2123  0.3776  0.1905
 1490BOLB   C2A35742  10.268  27.250   5.289  0.0067 -0.5205  0.0978
 1490BOLB   C3A35743  10.410  27.593   5.107 -0.0734  0.2256  0.1256
 1490BOLB   C4A35744  10.580  27.977   4.866  0.0460 -0.1629 -0.2385
 1490BOLB   C1B35745   9.599  26.837   4.530  0.3035  0.4125  0.0481
 1490BOLB   C2B35746   9.983  26.869   4.271 -0.0024 -0.1209 -0.2031
 1490BOLB   C3B35747  10.369  26.968   4.213  0.1140  0.0436 -0.4966
 1490BOLB   C4B35748  10.800  27.032   4.336 -0.3977 -0.2265  0.1353
 1490BOLB   NC235749  11.450  29.713   2.728 -0.1350 -0.2344 -0.0009
 1490BOLB   PO235750  11.474  29.462   3.062 -0.0145 -0.1545  0.0990
 1490BOLB   GL335751  11.476  29.121   3.335  0.2427  0.3354  0.0922
 1490BOLB   GL435752  11.745  29.057   3.569 -0.1639 -0.2743 -0.1584
 1490BOLB   C1C35753  11.287  28.773   3.584 -0.2692 -0.1320  0.2550
 1490BOLB   C2C35754  10.982  28.488   3.756  0.2048 -0.0401  0.0431
 1490BOLB   C3C35755  10.844  28.228   4.173  0.1625  0.2573  0.2230
 1490BOLB   C4C35756  10.608  28.050   4.457 -0.0993 -0.3061 -0.1829
 1490BOLB   C1D35757  11.600  29.009   3.996  0.1688  0.0438 -0.0339
 1490BOLB   C2D35758  11.297  28.710   4.074 -0.3681  0.1374 -0.1876
 1490BOLB   C3D35759  11.135  28.505   4.396 -0.4806 -0.2750 -0.1501
 1490BOLB   C4D35760  11.028  28.317   4.745  0.3033  0.4294  0.3216
 1491BOLB   NC135761  17.316  21.363   2.408  0.3429 -0.2135  0.0461
 1491BOLB   PO135762  17.568  21.785   2.687 -0.2895  0.1129 -0.2803
 1491BOLB   GL135763  17.287  21.618   2.994  0.1544 -0.1388 -0.0756
 1491BOLB   GL235764  17.158  21.203   2.840  0.1215  0.0226 -0.2896
 1491BOLB   C1A35765  16.952  21.470   3.170  0.4159 -0.1112 -0.0998
 1491BOLB   C2A35766  16.779  21.433   3.512  0.0177  0.0463  0.1005
 1491BOLB   C3A35767  16.720  21.372   3.947  0.1667 -0.1240  0.4571
 1491BOLB   C4A35768  16.676  21.322   4.388  0.4247  0.2188 -0.1512
 1491BOLB   C1B35769  16.765  21.277   2.721 -0.3727 -0.0402 -0.0218
 1491BOLB   C2B35770  16.356  21.367   2.647  0.0424  0.1746 -0.1955
 1491BOLB   C3B35771  16.090  21.020   2.776  0.1642 -0.2125  0.1441
 1491BOLB   C4B35772  15.612  21.104   2.919 -0.0374  0.0655 -0.2854
 1491BOLB   NC235773  18.919  20.883   4.499 -0.1158 -0.2084 -0.1302
 1491BOLB   PO235774  18.811  20.437   4.545 -0.1900  0.1618  0.0169
 1491BOLB   GL335775  18.526  20.669   4.881 -0.2269 -0.0336  0.3412
 1491BOLB   GL435776  18.388  20.444   5.117  0.4328 -0.1669  0.1479
 1491BOLB   C1C35777  18.185  20.984   4.846 -0.0765 -0.0791  0.0777
 1491BOLB   C2C35778  17.822  21.356   4.789 -0.2133 -0.0145  0.2136
 1491BOLB   C3C35779  17.364  21.383   4.604 -0.0586 -0.0487  0.1977
 1491BOLB   C4C35780  16.994  21.334   4.690 -0.0029 -0.0094 -0.1009
 1491BOLB   C1D35781  18.112  20.144   4.979  0.0937 -0.0332  0.0899
 1491BOLB   C2D35782  17.946  20.035   4.625  0.1136 -0.3155 -0.0556
 1491BOLB   C3D35783  17.614  19.908   4.358 -0.2470 -0.2654 -0.1676
 1491BOLB   C4D35784  17.614  19.732   4.019 -0.2477  0.3238  0.1909
 1492BOLB   NC135785   1.877  25.498  14.841 -0.2935  0.0388  0.2112
 1492BOLB   PO135786   2.004  25.668  14.535 -0.1259  0.1148  0.0687
 1492BOLB   GL135787   1.775  25.987  14.806  0.0717 -0.2694  0.1301
 1492BOLB   GL235788   1.836  26.054  15.076 -0.1360  0.0012 -0.0141
 1492BOLB   C1A35789   1.396  26.216  14.928 -0.0848  0.0411  0.0213
 1492BOLB   C2A35790   1.154  26.488  15.186 -0.0423  0.3432 -0.1748
 1492BOLB   C3A35791   0.797  26.781  15.173 -0.2654 -0.0202 -0.0275
 1492BOLB   C4A35792   0.643  27.084  15.329 -0.0692  0.1985 -0.1720
 1492BOLB   C1B35793   1.547  25.953  15.405  0.1087 -0.2501  0.2128
 1492BOLB   C2B35794   1.392  26.061  15.890  0.2990 -0.3008 -0.2520
 1492BOLB   C3B35795   1.434  26.294  16.222 -0.1835  0.2881  0.0714
 1492BOLB   C4B35796   1.353  26.616  16.442 -0.0505 -0.1445 -0.0848
 1492BOLB   NC235797  -1.178  28.986  15.721  0.0342 -0.0350  0.1787
 1492BOLB   PO235798  -0.960  28.829  16.089  0.0276  0.1092 -0.2657
 1492BOLB   GL335799  -0.593  28.647  15.936 -0.1182 -0.3047 -0.1953
 1492BOLB   GL435800  -0.432  28.488  16.330 -0.1139 -0.0312 -0.0025
 1492BOLB   C1C35801  -0.224  28.417  15.783 -0.1442 -0.2986 -0.1717
 1492BOLB   C2C35802   0.022  28.107  15.649  0.1063 -0.0596 -0.0947
 1492BOLB   C3C35803   0.350  27.993  15.451  0.3527  0.0698 -0.0754
 1492BOLB   C4C35804   0.444  27.472  15.334  0.3086 -0.1584  0.0491
 1492BOLB   C1D35805  -0.189  28.123  16.331 -0.2316 -0.1992 -0.1355
 1492BOLB   C2D35806  -0.096  27.765  16.104  0.0982 -0.0330 -0.1168
 1492BOLB   C3D35807  -0.277  27.325  16.116  0.1550  0.1581 -0.2884
 1492BOLB   C4D35808  -0.294  27.056  15.795 -0.3781  0.0523 -0.0874
 1493BOLB   NC135809   6.276  23.091   2.513 -0.2121 -0.2447  0.1478
 1493BOLB   PO135810   6.091  22.750   2.612 -0.1532 -0.1473 -0.2406
 1493BOLB   GL135811   5.832  22.920   2.382 -0.0704  0.1746 -0.0659
 1493BOLB   GL235812   5.967  23.027   2.114  0.2635  0.2362  0.0260
 1493BOLB   C1A35813   5.496  23.137   2.128 -0.0348  0.0099  0.0850
 1493BOLB   C2A35814   5.525  23.091   1.656  0.2153  0.0213 -0.0886
 1493BOLB   C3A35815   5.342  23.018   1.199  0.0984 -0.1585 -0.0401
 1493BOLB   C4A35816   5.315  22.950   0.798  0.2934 -0.0303 -0.0209
 1493BOLB   C1B35817   6.199  23.287   1.751 -0.2570 -0.1641  0.0071
 1493BOLB   C2B35818   6.129  23.532   1.408 -0.0563  0.2397 -0.1257
 1493BOLB   C3B35819   6.199  23.491   0.936 -0.3351 -0.0676 -0.2679
 1493BOLB   C4B35820   6.286  23.427   0.519  0.1569 -0.0326 -0.0620
 1493BOLB   NC235821   5.110  24.051  -1.426  0.1034 -0.0926 -0.0436
 1493BOLB   PO235822   4.893  23.631  -1.354 -0.0270 -0.1826  0.0072
 1493BOLB   GL335823   5.235  23.749  -1.078 -0.0547  0.4818 -0.0210
 1493BOLB   GL435824   5.527  23.994  -1.190  0.0865  0.0772 -0.0478
 1493BOLB   C1C35825   5.384  23.467  -0.717 -0.0247  0.2561  0.2609
 1493BOLB   C2C35826   5.451  23.383  -0.281 -0.0157  0.0671 -0.2539
 1493BOLB   C3C35827   5.369  23.221   0.106 -0.1088 -0.1509 -0.2867
 1493BOLB   C4C35828   5.508  23.077   0.474  0.0365  0.1443  0.0166
 1493BOLB   C1D35829   5.512  23.951  -0.696 -0.0827  0.0727 -0.1592
 1493BOLB   C2D35830   5.325  23.860  -0.325  0.2555  0.0072  0.0790
 1493BOLB   C3D35831   5.109  24.065  -0.071 -0.2500  0.0865  0.3990
 1493BOLB   C4D35832   4.931  24.315   0.274  0.2492  0.0259 -0.0539
 1494BOLB   NC135833  36.110  28.714   6.620 -0.1106 -0.2148 -0.1425
 1494BOLB   PO135834  36.174  28.797   6.993  0.0605  0.0699  0.3072
 1494BOLB   GL135835  36.391  28.479   7.288 -0.2432  0.1279 -0.2120
 1494BOLB   GL235836  36.117  28.214   7.416 -0.3973  0.3980  0.0766
 1494BOLB   C1A35837  36.642  28.050   7.315 -0.2268 -0.0254  0.1714
 1494BOLB   C2A35838  36.665  27.650   7.475  0.2198 -0.3574 -0.2324
 1494BOLB   C3A35839  36.779  27.253   7.229  0.1166  0.0534  0.0652
 1494BOLB   C4A35840  36.904  26.850   7.030  0.0211  0.1267 -0.1494
 1494BOLB   C1B35841  36.176  27.765   7.303  0.0763  0.2238 -0.0477
 1494BOLB   C2B35842  36.281  27.408   7.038  0.0074  0.0916 -0.1922
 1494BOLB   C3B35843  36.538  27.173   6.794  0.0076  0.0807  0.2408
 1494BOLB   C4B35844  36.763  27.077   6.440 -0.1559  0.3423  0.0053
 1494BOLB   NC235845  35.072  27.840   5.910  0.0642 -0.2535  0.2080
 1494BOLB   PO235846  35.261  27.372   5.693  0.1594 -0.0769  0.0168
 1494BOLB   GL335847  35.347  26.972   5.662 -0.4371  0.3311 -0.0078
 1494BOLB   GL435848  35.249  26.662   5.548  0.1098  0.0752 -0.0149
 1494BOLB   C1C35849  35.693  26.677   5.906 -0.0486  0.0902  0.0040
 1494BOLB   C2C35850  36.013  26.406   6.210  0.3426  0.0009 -0.3015
 1494BOLB   C3C35851  36.382  26.390   6.387 -0.0794  0.3287  0.0566
 1494BOLB   C4C35852  36.668  26.675   6.702 -0.0833 -0.1932  0.0467
 1494BOLB   C1D35853  35.299  26.182   5.700 -0.1326 -0.2860 -0.0933
 1494BOLB   C2D35854  34.928  25.856   5.663  0.1391  0.2903  0.0017
 1494BOLB   C3D35855  34.868  25.464   5.420  0.1184 -0.0217  0.1360
 1494BOLB   C4D35856  34.714  24.972   5.471  0.1476  0.1112 -0.1022
 1495BOLB   NC135857  12.227  16.024   8.351 -0.0588  0.1161 -0.0337
 1495BOLB   PO135858  12.502  15.691   8.190 -0.3000 -0.0493 -0.1028
 1495BOLB   GL135859  12.742  15.536   7.835  0.0233  0.0322  0.2334
 1495BOLB   GL235860  12.680  15.234   7.727  0.1648 -0.0468 -0.0510
 1495BOLB   C1A35861  13.097  15.388   7.675 -0.0898 -0.0800 -0.0618
 1495BOLB   C2A35862  13.414  15.196   7.424  0.0347  0.3399 -0.1442
 1495BOLB   C3A35863  13.442  15.012   7.054  0.0129 -0.1680  0.1810
 1495BOLB   C4A35864  13.704  14.787   6.798  0.1764  0.1740  0.1051
 1495BOLB   C1B35865  12.923  15.023   7.374  0.1126 -0.0905  0.0595
 1495BOLB   C2B35866  13.143  14.648   7.074  0.1557 -0.2846  0.1218
 1495BOLB   C3B35867  13.454  14.468   7.046  0.1049  0.0170 -0.2032
 1495BOLB   C4B35868  13.615  14.268   7.233  0.1866 -0.0943 -0.2435
 1495BOLB   NC235869  15.711  13.746   6.079 -0.3518  0.0384  0.1665
 1495BOLB   PO235870  15.879  13.768   6.441  0.0887 -0.0869  0.2627
 1495BOLB   GL335871  15.343  13.653   6.534 -0.1994  0.1018  0.1958
 1495BOLB   GL435872  15.264  13.677   6.204  0.2862  0.0318  0.2646
 1495BOLB   C1C35873  15.029  13.972   6.554 -0.2698  0.3164 -0.1747
 1495BOLB   C2C35874  14.675  14.216   6.550  0.0043  0.0125  0.4561
 1495BOLB   C3C35875  14.290  14.148   6.555 -0.0315  0.1150  0.2480
 1495BOLB   C4C35876  13.975  14.443   6.827 -0.0293  0.0557  0.0828
 1495BOLB   C1D35877  14.769  13.865   6.170  0.0167 -0.0390  0.4676
 1495BOLB   C2D35878  14.526  13.903   5.774 -0.1782  0.2181 -0.1270
 1495BOLB   C3D35879  14.334  14.230   5.764 -0.1386 -0.0735  0.1102
 1495BOLB   C4D35880  14.187  14.638   5.791 -0.0749  0.1043 -0.1683
 1496BOLB   NC135881  11.898  16.213  11.484  0.2425 -0.0242 -0.1991
 1496BOLB   PO135882  11.664  15.970  11.760  0.2710  0.0485 -0.1480
 1496BOLB   GL135883  11.821  15.562  11.841  0.4119  0.1512 -0.2721
 1496BOLB   GL235884  12.026  15.516  12.088  0.0559 -0.1171 -0.1048
 1496BOLB   C1A35885  12.031  15.117  11.683  0.0914 -0.2647 -0.2865
 1496BOLB   C2A35886  12.262  14.843  11.589  0.1111 -0.1794  0.1999
 1496BOLB   C3A35887  12.516  14.449  11.454  0.0239  0.3186 -0.0725
 1496BOLB   C4A35888  12.788  14.064  11.375  0.1890 -0.2007 -0.0549
 1496BOLB   C1B35889  12.341  15.298  12.344 -0.0187  0.0743  0.0100
 1496BOLB   C2B35890  12.482  15.096  12.659  0.0166  0.0968  0.1742
 1496BOLB   C3B35891  12.689  14.932  12.980 -0.0365 -0.2519 -0.0133
 1496BOLB   C4B35892  12.662  14.743  13.370  0.1248  0.0666 -0.0698
 1496BOLB   NC235893  14.807  12.628  11.340 -0.0271  0.0357  0.0434
 1496BOLB   PO235894  14.545  12.654  11.691  0.0252 -0.0195  0.0171
 1496BOLB   GL335895  14.276  12.831  11.585 -0.0345 -0.1560  0.0069
 1496BOLB   GL435896  14.395  13.146  11.662 -0.1670 -0.1410  0.0602
 1496BOLB   C1C35897  14.012  13.064  11.337  0.1904 -0.0396  0.0715
 1496BOLB   C2C35898  13.672  13.235  11.167 -0.2190 -0.1110  0.2621
 1496BOLB   C3C35899  13.321  13.403  11.083  0.1554  0.0274  0.1346
 1496BOLB   C4C35900  12.938  13.691  11.189  0.2679 -0.0023 -0.2880
 1496BOLB   C1D35901  14.146  13.421  11.619 -0.0202 -0.0675  0.0205
 1496BOLB   C2D35902  13.928  13.827  11.626  0.0865  0.2836  0.4092
 1496BOLB   C3D35903  13.939  14.215  11.799  0.3478 -0.1253  0.0179
 1496BOLB   C4D35904  14.084  14.553  12.095 -0.0834 -0.1848  0.0209
 1497BOLB   NC135905   6.768  24.648   3.968 -0.0502  0.3433  0.1010
 1497BOLB   PO135906   6.388  24.472   3.771  0.1574  0.0227  0.0515
 1497BOLB   GL135907   6.328  24.814   3.486 -0.1268 -0.0226  0.4160
 1497BOLB   GL235908   6.550  24.733   3.247 -0.0390  0.4790 -0.0146
 1497BOLB   C1A35909   6.383  25.258   3.510  0.0413 -0.1777 -0.0051
 1497BOLB   C2A35910   6.115  25.542   3.261  0.2235  0.0737  0.1306
 1497BOLB   C3A35911   5.946  25.618   2.844 -0.2107  0.3435 -0.6753
 1497BOLB   C4A35912   5.834  25.804   2.417 -0.2325 -0.4042 -0.0339
 1497BOLB   C1B35913   6.741  25.114   3.174 -0.0247 -0.0818 -0.3313
 1497BOLB   C2B35914   6.948  25.377   2.980 -0.0464  0.1448 -0.0714
 1497BOLB   C3B35915   7.229  25.561   2.844 -0.0818  0.0675  0.2889
 1497BOLB   C4B35916   7.317  25.940   3.092 -0.3401  0.1685  0.3294
 1497BOLB   NC235917   5.848  27.596   0.533  0.3175 -0.2054  0.0672
 1497BOLB   PO235918   6.025  27.267   0.361 -0.1003  0.3226 -0.0433
 1497BOLB   GL335919   6.188  27.157   0.662 -0.0943  0.1745 -0.0210
 1497BOLB   GL435920   6.502  27.105   0.715  0.1609  0.1902  0.1435
 1497BOLB   C1C35921   6.164  26.848   0.920 -0.1716  0.4296  0.0264
 1497BOLB   C2C35922   6.048  26.446   1.256 -0.0727 -0.0974  0.1026
 1497BOLB   C3C35923   6.123  26.226   1.644 -0.2419  0.3901 -0.0148
 1497BOLB   C4C35924   5.883  26.086   2.104 -0.0813  0.2296 -0.0578
 1497BOLB   C1D35925   6.777  27.103   1.173 -0.2608 -0.0719 -0.1172
 1497BOLB   C2D35926   6.972  27.052   1.555 -0.1441  0.5545  0.3662
 1497BOLB   C3D35927   7.012  26.946   1.890 -0.0993 -0.0044  0.2847
 1497BOLB   C4D35928   7.291  26.829   2.182  0.0550  0.1700 -0.0326
 1498BOLB   NC135929   3.590  27.542  13.536 -0.1795  0.0981  0.4592
 1498BOLB   PO135930   3.256  27.662  13.392 -0.1355 -0.0219  0.3119
 1498BOLB   GL135931   3.120  28.060  13.483 -0.1255 -0.0489 -0.2419
 1498BOLB   GL235932   3.368  28.327  13.428  0.2604 -0.3446 -0.0087
 1498BOLB   C1A35933   2.915  28.289  13.861  0.2622  0.0875  0.1252
 1498BOLB   C2A35934   2.451  28.367  14.140  0.3604 -0.0534 -0.1410
 1498BOLB   C3A35935   2.281  28.717  14.287  0.1073 -0.0464  0.0551
 1498BOLB   C4A35936   2.310  29.061  14.406 -0.1038 -0.1541 -0.0507
 1498BOLB   C1B35937   3.420  28.425  13.869  0.0051 -0.0373  0.0035
 1498BOLB   C2B35938   3.231  28.829  14.147  0.1358 -0.0769  0.0577
 1498BOLB   C3B35939   2.864  29.047  14.267 -0.2256 -0.0781 -0.0141
 1498BOLB   C4B35940   2.638  29.531  14.201 -0.1508 -0.0830  0.0009
 1498BOLB   NC235941   0.859  31.389  15.170  0.2768  0.2366  0.2817
 1498BOLB   PO235942   0.816  30.952  15.432 -0.0006  0.1389  0.0111
 1498BOLB   GL335943   1.003  30.572  15.363  0.0837  0.0837  0.3419
 1498BOLB   GL435944   1.071  30.619  15.000 -0.2945  0.0911 -0.1488
 1498BOLB   C1C35945   1.335  30.257  15.241 -0.2618  0.1570 -0.2059
 1498BOLB   C2C35946   1.547  30.058  14.965 -0.2662  0.0729 -0.0578
 1498BOLB   C3C35947   1.809  29.845  14.668 -0.0127 -0.3594 -0.3921
 1498BOLB   C4C35948   2.141  29.534  14.517  0.2270  0.0606  0.1596
 1498BOLB   C1D35949   1.208  30.307  14.716  0.2143  0.3202 -0.4858
 1498BOLB   C2D35950   1.283  29.923  14.543 -0.0362 -0.1538  0.0441
 1498BOLB   C3D35951   1.376  29.552  14.412 -0.0431  0.1408 -0.0301
 1498BOLB   C4D35952   1.655  29.213  14.263 -0.0239  0.0904 -0.1528
 1499BOLB   NC135953  35.200  21.139   0.190 -0.4359  0.2180  0.3522
 1499BOLB   PO135954  34.979  21.236   0.596 -0.3760 -0.1704 -0.0624
 1499BOLB   GL135955  35.139  21.130   1.098  0.0769  0.0460  0.0931
 1499BOLB   GL235956  35.207  20.937   1.361 -0.1617 -0.1514 -0.0364
 1499BOLB   C1A35957  34.714  21.063   1.415  0.2556  0.1706  0.1919
 1499BOLB   C2A35958  34.516  21.273   1.733 -0.0685  0.3464  0.2503
 1499BOLB   C3A35959  34.493  21.233   2.136 -0.1602  0.2013  0.1937
 1499BOLB   C4A35960  34.337  21.063   2.552  0.1293  0.0967 -0.2307
 1499BOLB   C1B35961  35.371  20.553   1.426 -0.1342 -0.1224 -0.5620
 1499BOLB   C2B35962  35.629  20.201   1.614 -0.0502  0.0308 -0.1797
 1499BOLB   C3B35963  36.013  19.982   1.712  0.0248 -0.1551  0.0863
 1499BOLB   C4B35964  36.294  20.258   1.477  0.3447  0.2344 -0.2318
 1499BOLB   NC235965  33.205  21.991   1.552  0.0173  0.0884  0.1501
 1499BOLB   PO235966  33.612  21.903   1.596  0.1017  0.1284 -0.1510
 1499BOLB   GL335967  33.403  21.645   1.851 -0.0559 -0.2388  0.0203
 1499BOLB   GL435968  33.204  21.434   1.702 -0.1412  0.0356  0.0182
 1499BOLB   C1C35969  33.283  21.250   2.171  0.1007  0.1428  0.1303
 1499BOLB   C2C35970  33.356  20.923   2.531  0.2098 -0.0956  0.1248
 1499BOLB   C3C35971  33.668  20.664   2.750 -0.1259  0.1565 -0.0548
 1499BOLB   C4C35972  34.053  20.812   2.801 -0.2217  0.1066 -0.1039
 1499BOLB   C1D35973  33.465  21.037   1.719  0.0061 -0.0747  0.1549
 1499BOLB   C2D35974  33.414  20.673   2.052 -0.1008 -0.0177 -0.1057
 1499BOLB   C3D35975  33.673  20.400   2.320 -0.0259  0.1928  0.0024
 1499BOLB   C4D35976  34.023  20.254   2.619  0.0198 -0.1836  0.1390
 1500BOLB   NC135977  10.490  27.464   7.244  0.3061  0.2446  0.0824
 1500BOLB   PO135978  10.574  27.145   6.900  0.1001 -0.3678 -0.1342
 1500BOLB   GL135979  10.780  27.422   6.653  0.2667 -0.0623  0.1772
 1500BOLB   GL235980  10.511  27.683   6.716  0.0214  0.4558  0.0282
 1500BOLB   C1A35981  11.231  27.527   6.497  0.1872 -0.0960  0.1146
 1500BOLB   C2A35982  11.652  27.630   6.284 -0.3741 -0.2105 -0.1645
 1500BOLB   C3A35983  12.069  27.607   6.191 -0.2019 -0.0225  0.2891
 1500BOLB   C4A35984  12.365  27.877   5.976  0.1168 -0.1234 -0.3355
 1500BOLB   C1B35985  10.764  27.902   6.426  0.1855  0.2968  0.3261
 1500BOLB   C2B35986  10.997  28.211   6.093  0.2098 -0.0761  0.0176
 1500BOLB   C3B35987  11.097  28.562   5.963 -0.1750 -0.4343 -0.1385
 1500BOLB   C4B35988  11.174  29.000   5.893 -0.1100  0.0747  0.4104
 1500BOLB   NC235989  13.957  28.971   5.162 -0.2195  0.2953 -0.1315
 1500BOLB   PO235990  13.763  28.982   4.725  0.0658  0.0722 -0.5435
 1500BOLB   GL335991  13.615  28.708   4.869  0.2807  0.2704 -0.1343
 1500BOLB   GL435992  13.545  28.639   5.274 -0.3257 -0.0856 -0.1044
 1500BOLB   C1C35993  13.409  28.270   4.921 -0.0722  0.0736  0.0736
 1500BOLB   C2C35994  13.090  28.026   5.168  0.1675 -0.0778  0.0306
 1500BOLB   C3C35995  12.821  28.117   5.380  0.2161 -0.2003 -0.0031
 1500BOLB   C4C35996  12.442  28.165   5.587 -0.1014 -0.0990  0.0547
 1500BOLB   C1D35997  13.519  28.205   5.383 -0.0467  0.0425  0.1747
 1500BOLB   C2D35998  13.482  27.688   5.370  0.5495 -0.0362  0.0870
 1500BOLB   C3D35999  13.200  27.477   5.416  0.0697 -0.3402  0.0945
 1500BOLB   C4D36000  12.768  27.625   5.346  0.1731 -0.0275  0.0849
 1501BOLB   NC136001   2.148  32.296   7.617 -0.1817 -0.0871  0.2274
 1501BOLB   PO136002   1.971  32.083   7.984 -0.1751  0.2015  0.1545
 1501BOLB   GL136003   1.799  31.709   8.045  0.2286  0.1640 -0.0375
 1501BOLB   GL236004   1.787  31.656   8.265  0.3148 -0.0989 -0.4306
 1501BOLB   C1A36005   2.085  31.348   7.750 -0.0521 -0.1798  0.0149
 1501BOLB   C2A36006   2.573  31.174   7.829  0.0642  0.1675 -0.1783
 1501BOLB   C3A36007   2.712  30.703   7.868  0.1970 -0.0691  0.1937
 1501BOLB   C4A36008   2.851  30.368   7.715 -0.2424  0.3481 -0.0658
 1501BOLB   C1B36009   1.956  31.179   8.254  0.1702 -0.0614 -0.3050
 1501BOLB   C2B36010   2.030  30.832   8.405  0.0065  0.0097  0.4641
 1501BOLB   C3B36011   2.186  30.460   8.462  0.1157  0.2988 -0.3044
 1501BOLB   C4B36012   2.206  30.050   8.667 -0.4539  0.1712  0.1446
 1501BOLB   NC236013   4.846  28.784   8.816  0.2745 -0.4173  0.1710
 1501BOLB   PO236014   4.496  28.576   8.695  0.2015 -0.1531 -0.0126
 1501BOLB   GL336015   4.248  28.880   8.443  0.1566  0.1490  0.3488
 1501BOLB   GL436016   4.233  28.722   8.191 -0.1297 -0.0033 -0.1350
 1501BOLB   C1C36017   3.934  29.102   8.422 -0.1488 -0.2052 -0.1717
 1501BOLB   C2C36018   3.653  29.495   8.415  0.1807 -0.0809  0.1751
 1501BOLB   C3C36019   3.525  29.913   8.255 -0.1503 -0.1820  0.1261
 1501BOLB   C4C36020   3.341  30.216   7.828 -0.3114  0.3821 -0.2269
 1501BOLB   C1D36021   4.234  29.251   8.096 -0.3356 -0.1779 -0.2100
 1501BOLB   C2D36022   4.086  29.647   8.275 -0.0325 -0.1930  0.1674
 1501BOLB   C3D36023   4.088  30.169   8.252  0.0186 -0.1930  0.0684
 1501BOLB   C4D36024   3.865  30.275   7.929  0.2114  0.0892  0.2691
 1502BOLB   NC136025   9.458  28.693  10.680 -0.1289  0.1555  0.3380
 1502BOLB   PO136026   9.557  28.830  11.083 -0.0733  0.4885  0.1675
 1502BOLB   GL136027   9.558  29.171  11.298  0.1686 -0.2278  0.2168
 1502BOLB   GL236028   9.835  29.111  11.400  0.0438  0.0453  0.0624
 1502BOLB   C1A36029   9.451  29.552  11.467  0.2069  0.0882 -0.0054
 1502BOLB   C2A36030   9.222  29.906  11.451  0.2551  0.0435 -0.1102
 1502BOLB   C3A36031   9.145  30.318  11.215  0.1117  0.2403  0.1295
 1502BOLB   C4A36032   9.020  30.770  11.417  0.2599  0.0498  0.1900
 1502BOLB   C1B36033  10.063  29.456  11.321  0.2228  0.0557  0.0689
 1502BOLB   C2B36034   9.845  29.808  11.228 -0.0357 -0.2427  0.2607
 1502BOLB   C3B36035   9.648  30.268  11.292 -0.3352 -0.1039  0.1415
 1502BOLB   C4B36036   9.529  30.627  11.411  0.0270 -0.1291 -0.1531
 1502BOLB   NC236037   8.646  32.634  12.550  0.2576  0.0738  0.0330
 1502BOLB   PO236038   8.795  32.757  12.154 -0.1518 -0.0484  0.3704
 1502BOLB   GL336039   8.868  32.345  12.171 -0.1209  0.2626  0.0503
 1502BOLB   GL436040   8.662  32.135  12.421  0.1058 -0.3902 -0.0844
 1502BOLB   C1C36041   9.053  32.013  12.131 -0.3047 -0.3053  0.1288
 1502BOLB   C2C36042   9.157  31.653  12.231  0.3466  0.3715 -0.0531
 1502BOLB   C3C36043   9.158  31.285  12.036 -0.0443 -0.0177 -0.2074
 1502BOLB   C4C36044   8.957  31.133  11.713 -0.1318 -0.1173  0.0879
 1502BOLB   C1D36045   8.321  31.794  12.280 -0.0441 -0.1166 -0.0014
 1502BOLB   C2D36046   8.051  31.710  11.913 -0.1965  0.2427  0.0257
 1502BOLB   C3D36047   7.946  31.220  11.742 -0.1998  0.1681 -0.4738
 1502BOLB   C4D36048   7.611  30.877  11.952  0.2806 -0.3015  0.3215
 1503BOLB   NC136049  14.952  22.345   9.773  0.0540  0.0667 -0.0099
 1503BOLB   PO136050  14.947  22.622  10.024 -0.0989 -0.0373  0.2934
 1503BOLB   GL136051  15.442  22.639  10.067  0.0591 -0.0798 -0.1086
 1503BOLB   GL236052  15.370  22.969  10.083 -0.1400 -0.1500 -0.1961
 1503BOLB   C1A36053  15.846  22.712  10.128  0.0170 -0.0206 -0.2224
 1503BOLB   C2A36054  16.181  22.656  10.224  0.0232 -0.1837  0.1956
 1503BOLB   C3A36055  16.630  22.852  10.267 -0.1688 -0.3910  0.0372
 1503BOLB   C4A36056  17.045  23.090  10.083  0.0738  0.1012 -0.0519
 1503BOLB   C1B36057  15.760  23.196   9.905 -0.1381 -0.1368  0.5682
 1503BOLB   C2B36058  16.093  23.445   9.767  0.2368 -0.1469 -0.2137
 1503BOLB   C3B36059  16.498  23.808   9.718  0.0875  0.2665 -0.2214
 1503BOLB   C4B36060  16.678  24.131  10.000 -0.1611  0.1172 -0.0949
 1503BOLB   NC236061  18.252  24.912   9.614  0.1678 -0.2730  0.3323
 1503BOLB   PO236062  18.566  24.895   9.850  0.1623  0.0832  0.1615
 1503BOLB   GL336063  18.241  24.803  10.115 -0.2165 -0.3842  0.1289
 1503BOLB   GL436064  17.977  24.966  10.102 -0.0217  0.0289 -0.0407
 1503BOLB   C1C36065  18.026  24.412  10.233 -0.0319  0.0564  0.0393
 1503BOLB   C2C36066  17.862  23.952  10.445  0.1677  0.0617 -0.1535
 1503BOLB   C3C36067  17.455  23.769  10.329 -0.1837  0.1220  0.3899
 1503BOLB   C4C36068  17.306  23.479  10.092  0.1261  0.1456 -0.2977
 1503BOLB   C1D36069  17.623  25.022  10.222 -0.2476  0.0551  0.0257
 1503BOLB   C2D36070  17.237  25.110  10.114 -0.0802  0.1956  0.1411
 1503BOLB   C3D36071  16.822  25.349  10.130  0.1575  0.0937 -0.3025
 1503BOLB   C4D36072  16.446  24.969  10.204  0.1011 -0.1796  0.0253
 1504BOLB   NC136073   7.544  28.782  12.534  0.2400 -0.1776 -0.1291
 1504BOLB   PO136074   7.790  28.961  12.215  0.0854 -0.1477  0.0475
 1504BOLB   GL136075   7.987  29.335  12.412 -0.0136 -0.2064 -0.1182
 1504BOLB   GL236076   8.123  29.098  12.644 -0.0496  0.3035 -0.2072
 1504BOLB   C1A36077   8.351  29.630  12.620  0.0492  0.2210 -0.1168
 1504BOLB   C2A36078   8.509  29.842  12.847  0.2162 -0.1334  0.2526
 1504BOLB   C3A36079   8.643  30.284  12.689 -0.3517  0.1856 -0.2655
 1504BOLB   C4A36080   9.010  30.494  12.572 -0.0747  0.0322  0.0350
 1504BOLB   C1B36081   8.222  29.361  13.000 -0.0839 -0.1005 -0.0053
 1504BOLB   C2B36082   8.410  29.821  13.295 -0.1790 -0.1474 -0.1397
 1504BOLB   C3B36083   8.533  30.114  13.625 -0.1910 -0.0397  0.4958
 1504BOLB   C4B36084   8.739  30.132  13.959  0.4159  0.0492 -0.4684
 1504BOLB   NC236085  10.181  32.492  14.255  0.1149  0.0614  0.0216
 1504BOLB   PO236086   9.949  32.127  14.112  0.4294 -0.1297 -0.0746
 1504BOLB   GL336087   9.999  31.822  13.786  0.4048  0.0211  0.0467
 1504BOLB   GL436088  10.262  31.815  13.559 -0.1038 -0.1725  0.3104
 1504BOLB   C1C36089   9.883  31.384  13.697  0.3137 -0.0445  0.1692
 1504BOLB   C2C36090   9.746  30.984  13.376 -0.1039 -0.2945 -0.1006
 1504BOLB   C3C36091   9.607  30.708  13.142 -0.0589  0.1933 -0.0797
 1504BOLB   C4C36092   9.394  30.691  12.651  0.0655 -0.0958  0.1178
 1504BOLB   C1D36093  10.306  31.438  13.394 -0.1365 -0.0550 -0.0093
 1504BOLB   C2D36094  10.349  31.223  13.034  0.3224  0.3414 -0.0609
 1504BOLB   C3D36095  10.072  31.447  12.779  0.1923 -0.0018  0.0302
 1504BOLB   C4D36096   9.890  31.566  12.518 -0.1247  0.0130 -0.0263
 1505BOLB   NC136097  10.383  15.723  11.941 -0.0870 -0.2573 -0.5552
 1505BOLB   PO136098  10.927  15.543  12.141  0.0871 -0.3931  0.3872
 1505BOLB   GL136099  11.209  15.316  12.399  0.2095 -0.0697  0.0873
 1505BOLB   GL236100  11.248  15.338  12.785 -0.0415  0.0444  0.1847
 1505BOLB   C1A36101  11.385  14.982  12.436 -0.1215 -0.0893  0.0419
 1505BOLB   C2A36102  11.458  14.625  12.569  0.1278  0.2305 -0.2285
 1505BOLB   C3A36103  11.807  14.415  12.740 -0.0395  0.0906 -0.2734
 1505BOLB   C4A36104  12.212  14.232  12.685  0.0824  0.0336 -0.1036
 1505BOLB   C1B36105  11.599  14.981  12.973 -0.0828  0.0570  0.2396
 1505BOLB   C2B36106  11.738  14.773  13.345  0.4340 -0.2899  0.2015
 1505BOLB   C3B36107  12.034  14.732  13.714 -0.0899  0.0533 -0.2330
 1505BOLB   C4B36108  12.407  15.007  13.768 -0.1142  0.1086  0.2198
 1505BOLB   NC236109  13.388  11.871  13.706  0.2524 -0.0920 -0.1656
 1505BOLB   PO236110  13.163  12.340  13.606 -0.1727 -0.2937  0.2233
 1505BOLB   GL336111  13.119  12.656  13.445 -0.1750  0.2039  0.3757
 1505BOLB   GL436112  13.002  12.536  13.158  0.0008 -0.1401 -0.2532
 1505BOLB   C1C36113  12.984  13.079  13.209 -0.4655 -0.2143 -0.2292
 1505BOLB   C2C36114  12.790  13.426  13.354 -0.0764  0.3190 -0.1247
 1505BOLB   C3C36115  12.736  13.860  13.132 -0.1643 -0.3134  0.0542
 1505BOLB   C4C36116  12.524  14.055  12.856  0.1668 -0.1811  0.3048
 1505BOLB   C1D36117  12.736  12.854  12.869  0.2303  0.3106  0.2211
 1505BOLB   C2D36118  12.488  13.317  12.933 -0.1173  0.3455  0.1809
 1505BOLB   C3D36119  12.168  13.710  12.763 -0.2468 -0.3114 -0.2393
 1505BOLB   C4D36120  11.851  13.936  12.873  0.1493  0.0684  0.0994
 1506BOLB   NC136121  15.178  21.766  10.444  0.1496 -0.2308 -0.3036
 1506BOLB   PO136122  15.121  21.534  10.880  0.1024 -0.0488  0.3254
 1506BOLB   GL136123  15.384  21.812  10.960 -0.0954  0.1491 -0.0204
 1506BOLB   GL236124  15.506  22.086  10.818 -0.0371  0.1337  0.2023
 1506BOLB   C1A36125  15.728  21.864  11.209 -0.2266 -0.0653 -0.3332
 1506BOLB   C2A36126  15.946  22.094  11.431  0.1110 -0.2370  0.1264
 1506BOLB   C3A36127  16.336  22.213  11.558 -0.0949  0.1254  0.2526
 1506BOLB   C4A36128  16.679  22.008  11.643 -0.0618 -0.2630 -0.1164
 1506BOLB   C1B36129  15.773  21.795  10.723 -0.2033 -0.1448  0.0703
 1506BOLB   C2B36130  15.976  21.414  10.898  0.0969  0.0078 -0.1263
 1506BOLB   C3B36131  16.380  21.342  11.081  0.0326  0.0417 -0.0847
 1506BOLB   C4B36132  16.600  21.346  11.368  0.1342 -0.0161 -0.3321
 1506BOLB   NC236133  18.927  23.394  12.045 -0.0716 -0.0779  0.0383
 1506BOLB   PO236134  18.960  22.988  12.090 -0.2520 -0.3718 -0.1946
 1506BOLB   GL336135  18.565  22.719  12.080 -0.2862  0.2866 -0.1175
 1506BOLB   GL436136  18.684  22.354  11.854 -0.2995 -0.2179 -0.0222
 1506BOLB   C1C36137  18.233  22.448  12.171 -0.2539 -0.1157  0.2635
 1506BOLB   C2C36138  17.921  22.130  12.047 -0.2337 -0.0293 -0.1647
 1506BOLB   C3C36139  17.505  22.080  11.745  0.1741  0.0712 -0.0358
 1506BOLB   C4C36140  17.044  22.006  11.720 -0.2077 -0.2090  0.0131
 1506BOLB   C1D36141  18.217  22.439  11.692  0.1300  0.2318 -0.0803
 1506BOLB   C2D36142  17.808  22.569  11.732  0.0333 -0.0753  0.3060
 1506BOLB   C3D36143  17.433  22.571  11.714  0.0672  0.1697 -0.0735
 1506BOLB   C4D36144  17.052  22.437  11.475 -0.0170 -0.0166  0.1709
 1507BOLB   NC136145  10.385  14.804  11.117 -0.1165  0.3089 -0.0058
 1507BOLB   PO136146  10.674  14.468  11.337 -0.2038 -0.0058 -0.0311
 1507BOLB   GL136147  10.953  14.278  11.383 -0.0753 -0.0964  0.0877
 1507BOLB   GL236148  10.750  14.090  11.647  0.1872 -0.3038 -0.0736
 1507BOLB   C1A36149  11.237  14.008  11.536 -0.0432 -0.2176 -0.0002
 1507BOLB   C2A36150  11.388  13.691  11.643 -0.0468 -0.3519 -0.0801
 1507BOLB   C3A36151  11.638  13.386  11.820  0.1205  0.0897  0.0321
 1507BOLB   C4A36152  11.821  13.232  12.203 -0.2034  0.2130  0.0538
 1507BOLB   C1B36153  10.817  13.570  11.727  0.1994  0.1031 -0.0366
 1507BOLB   C2B36154  11.153  13.238  11.841 -0.1813 -0.2328 -0.1749
 1507BOLB   C3B36155  11.260  12.963  12.021 -0.0720 -0.0105  0.2406
 1507BOLB   C4B36156  11.299  12.485  12.014  0.1454 -0.0059  0.1051
 1507BOLB   NC236157  13.610  12.999  14.693 -0.1109  0.1921  0.2562
 1507BOLB   PO236158  13.296  12.915  14.381 -0.1861 -0.0481  0.1343
 1507BOLB   GL336159  13.090  13.094  13.988  0.0961  0.3979 -0.1185
 1507BOLB   GL436160  12.888  13.220  14.165  0.3264  0.1311 -0.0280
 1507BOLB   C1C36161  12.667  13.005  13.736  0.0851 -0.1870  0.0610
 1507BOLB   C2C36162  12.506  12.911  13.296 -0.1350  0.1825  0.4010
 1507BOLB   C3C36163  12.184  12.767  12.884 -0.0621 -0.0013 -0.0633
 1507BOLB   C4C36164  12.017  13.079  12.559  0.2293  0.0407  0.1492
 1507BOLB   C1D36165  12.449  13.296  14.296  0.0486 -0.0371  0.0758
 1507BOLB   C2D36166  11.999  13.500  14.115 -0.2745  0.1500  0.0070
 1507BOLB   C3D36167  11.927  13.581  13.850 -0.1519 -0.4518  0.0686
 1507BOLB   C4D36168  11.978  13.942  13.614  0.0888 -0.1614 -0.2790
 1508BOLB   NC136169   7.288  14.389  14.220  0.0184 -0.0305 -0.0015
 1508BOLB   PO136170   6.925  14.305  14.098  0.0894 -0.0676 -0.2788
 1508BOLB   GL136171   6.723  13.913  14.390  0.1791  0.0395 -0.0006
 1508BOLB   GL236172   6.809  13.859  14.752  0.0401  0.0853 -0.1237
 1508BOLB   C1A36173   6.494  13.514  14.487 -0.2239  0.0435 -0.0253
 1508BOLB   C2A36174   6.353  13.097  14.677 -0.0175  0.1609  0.1896
 1508BOLB   C3A36175   6.474  12.677  14.799  0.2769 -0.2666  0.0277
 1508BOLB   C4A36176   6.641  12.422  14.561 -0.0710 -0.1508 -0.1162
 1508BOLB   C1B36177   6.899  13.580  15.085  0.4298 -0.2510 -0.0944
 1508BOLB   C2B36178   7.013  13.223  15.385 -0.0651  0.3399 -0.0179
 1508BOLB   C3B36179   7.295  12.894  15.321  0.1128  0.0795 -0.3220
 1508BOLB   C4B36180   7.381  12.863  14.916  0.2415 -0.5229  0.0930
 1508BOLB   NC236181   6.839   9.476  15.282  0.0377 -0.0992  0.0886
 1508BOLB   PO236182   6.696   9.897  15.129  0.1105 -0.2067  0.0117
 1508BOLB   GL336183   6.673  10.258  14.951  0.0234  0.0569  0.0782
 1508BOLB   GL436184   6.390  10.398  14.816 -0.5676  0.1253 -0.1592
 1508BOLB   C1C36185   6.837  10.764  14.798 -0.3428 -0.0163  0.0029
 1508BOLB   C2C36186   6.746  10.982  14.542 -0.1505  0.0021  0.1217
 1508BOLB   C3C36187   6.726  11.490  14.560 -0.0190 -0.2320 -0.0881
 1508BOLB   C4C36188   6.856  11.934  14.603  0.1601  0.0441  0.3478
 1508BOLB   C1D36189   6.401  10.626  14.610  0.1006 -0.2423 -0.3019
 1508BOLB   C2D36190   6.257  10.995  14.425 -0.4876 -0.2201 -0.0152
 1508BOLB   C3D36191   6.105  11.215  14.110  0.0135  0.0439  0.0607
 1508BOLB   C4D36192   6.144  11.498  13.905  0.1647  0.1360  0.2685
 1509BOLB   NC136193  11.925  22.997   4.224 -0.2872 -0.3638 -0.0440
 1509BOLB   PO136194  11.946  23.504   4.248 -0.1659  0.3447 -0.1109
 1509BOLB   GL136195  12.045  23.644   3.888 -0.2414 -0.1184  0.0837
 1509BOLB   GL236196  11.865  23.824   3.745 -0.0432 -0.2050 -0.0146
 1509BOLB   C1A36197  12.341  23.765   3.542  0.4039  0.3468 -0.0742
 1509BOLB   C2A36198  12.573  23.580   3.301  0.0118  0.0520  0.0297
 1509BOLB   C3A36199  12.940  23.585   3.076  0.4061  0.0441  0.3502
 1509BOLB   C4A36200  13.217  23.442   2.751  0.2340 -0.3144  0.2574
 1509BOLB   C1B36201  11.920  24.203   3.514 -0.1603  0.0625  0.1954
 1509BOLB   C2B36202  12.108  24.442   3.315  0.0711 -0.1717  0.1616
 1509BOLB   C3B36203  12.522  24.461   3.046  0.0550 -0.1158  0.0693
 1509BOLB   C4B36204  12.900  24.688   2.878  0.1812  0.2923  0.2751
 1509BOLB   NC236205  13.519  23.327   0.397  0.3357 -0.2962  0.0197
 1509BOLB   PO236206  13.923  23.497   0.230  0.1673 -0.2489 -0.2042
 1509BOLB   GL336207  13.925  23.485   0.694 -0.1553  0.0818 -0.0639
 1509BOLB   GL436208  13.870  23.152   0.857 -0.0042  0.0475  0.2747
 1509BOLB   C1C36209  13.937  23.513   1.184  0.1559  0.1519 -0.0594
 1509BOLB   C2C36210  13.741  23.313   1.516 -0.0688 -0.1198  0.1260
 1509BOLB   C3C36211  13.506  23.473   1.833 -0.0289  0.1521  0.0127
 1509BOLB   C4C36212  13.342  23.440   2.330  0.0631  0.2300 -0.2121
 1509BOLB   C1D36213  13.568  22.962   1.166 -0.0750 -0.1885  0.2078
 1509BOLB   C2D36214  13.393  22.902   1.619  0.1967  0.1754  0.2570
 1509BOLB   C3D36215  13.129  23.182   2.013 -0.0379  0.0618  0.0221
 1509BOLB   C4D36216  12.931  23.037   2.394 -0.2473 -0.0851 -0.1202
 1510BOLB   NC136217  33.733  19.814  20.203  0.0631 -0.4168  0.2317
 1510BOLB   PO136218  34.097  19.989  20.163 -0.0940  0.1626 -0.0645
 1510BOLB   GL136219  33.953  19.802  19.740  0.1304 -0.1468  0.1479
 1510BOLB   GL236220  34.196  19.931  19.424 -0.2168  0.0740  0.2668
 1510BOLB   C1A36221  34.121  19.423  19.472 -0.1995 -0.2837  0.0246
 1510BOLB   C2A36222  34.179  19.299  19.107 -0.3033  0.0881  0.1001
 1510BOLB   C3A36223  33.930  19.218  18.833 -0.2780  0.2211 -0.3659
 1510BOLB   C4A36224  33.730  19.321  18.527 -0.2794 -0.0051 -0.0044
 1510BOLB   C1B36225  34.439  19.822  19.065 -0.2802 -0.1246  0.2530
 1510BOLB   C2B36226  34.431  19.591  18.704  0.2310  0.0875  0.1555
 1510BOLB   C3B36227  34.562  19.629  18.267  0.2960 -0.3763  0.0015
 1510BOLB   C4B36228  34.667  19.965  18.064 -0.1116 -0.0303  0.0819
 1510BOLB   NC236229  33.134  21.115  19.344 -0.2046  0.2818 -0.0139
 1510BOLB   PO236230  32.826  20.864  19.293 -0.1217 -0.0404  0.1588
 1510BOLB   GL336231  33.170  20.775  18.976  0.1320  0.3747 -0.0861
 1510BOLB   GL436232  33.381  20.532  19.079 -0.0714 -0.1206 -0.2964
 1510BOLB   C1C36233  33.363  20.480  18.597 -0.1566 -0.0630 -0.2202
 1510BOLB   C2C36234  33.290  20.111  18.350 -0.0373 -0.1448 -0.3522
 1510BOLB   C3C36235  33.374  19.732  18.007  0.2170  0.1290 -0.3102
 1510BOLB   C4C36236  33.421  19.350  18.226 -0.0444  0.0520  0.1700
 1510BOLB   C1D36237  33.664  20.778  18.807 -0.1457  0.1061  0.1285
 1510BOLB   C2D36238  33.925  20.953  18.449  0.4347  0.2623  0.1145
 1510BOLB   C3D36239  34.137  21.300  18.171 -0.1621  0.0986  0.1440
 1510BOLB   C4D36240  34.029  21.656  17.848 -0.4042 -0.0371 -0.0548
 1511BOLB   NC136241  34.191  21.947   0.718 -0.0935 -0.0858  0.0052
 1511BOLB   PO136242  34.358  21.815   1.134  0.0661 -0.2372 -0.2074
 1511BOLB   GL136243  34.655  21.633   1.458 -0.0870  0.2013 -0.1388
 1511BOLB   GL236244  35.065  21.492   1.475 -0.0447  0.1943  0.3572
 1511BOLB   C1A36245  34.777  21.696   1.967 -0.2600  0.1087 -0.1689
 1511BOLB   C2A36246  34.769  21.557   2.390  0.2404 -0.1878 -0.0308
 1511BOLB   C3A36247  34.905  21.844   2.630 -0.0583  0.0474 -0.1070
 1511BOLB   C4A36248  34.929  21.952   3.056 -0.0371 -0.2331 -0.1168
 1511BOLB   C1B36249  35.206  21.856   1.730  0.0551  0.3273 -0.1723
 1511BOLB   C2B36250  35.695  22.021   2.015 -0.1343 -0.2347 -0.0175
 1511BOLB   C3B36251  36.008  22.044   2.401 -0.2729 -0.0855  0.0987
 1511BOLB   C4B36252  36.185  21.838   2.727 -0.0772 -0.0282  0.0275
 1511BOLB   NC236253  33.971  23.797   1.701  0.0617  0.0701 -0.2928
 1511BOLB   PO236254  33.907  23.549   2.080 -0.1706  0.0490  0.2076
 1511BOLB   GL336255  34.169  23.350   2.451  0.2224  0.2948 -0.0547
 1511BOLB   GL436256  33.887  23.128   2.498 -0.3929  0.0097 -0.1725
 1511BOLB   C1C36257  34.344  22.909   2.544  0.2371  0.3623 -0.1237
 1511BOLB   C2C36258  34.339  22.708   2.975 -0.0153  0.2162  0.4265
 1511BOLB   C3C36259  34.589  22.485   3.365 -0.2527 -0.2091  0.0638
 1511BOLB   C4C36260  34.918  22.241   3.385 -0.0087  0.0727  0.2100
 1511BOLB   C1D36261  34.099  23.178   2.924 -0.0690  0.1252 -0.1163
 1511BOLB   C2D36262  34.012  23.039   3.211 -0.2762 -0.0255  0.0622
 1511BOLB   C3D36263  34.361  22.942   3.434  0.0097  0.0508 -0.0435
 1511BOLB   C4D36264  34.488  23.021   3.910  0.0327  0.2789  0.1312
 1512BOLB   NC136265   2.695  23.556  17.483  0.4425  0.0026 -0.2139
 1512BOLB   PO136266   2.830  23.820  17.114 -0.0449 -0.1439 -0.1167
 1512BOLB   GL136267   2.677  24.090  17.446  0.2944  0.2504  0.0713
 1512BOLB   GL236268   2.373  24.127  17.537 -0.0309 -0.1184 -0.0144
 1512BOLB   C1A36269   2.535  24.088  17.990  0.2537  0.0591  0.2875
 1512BOLB   C2A36270   2.346  24.199  18.430 -0.0341 -0.1007 -0.0812
 1512BOLB   C3A36271   2.280  24.331  18.881 -0.0943 -0.2756  0.0274
 1512BOLB   C4A36272   2.286  24.249  19.280  0.2870 -0.0842  0.2471
 1512BOLB   C1B36273   2.088  24.250  17.876 -0.3235 -0.0857  0.0602
 1512BOLB   C2B36274   1.881  24.422  18.152  0.0503 -0.0044 -0.0989
 1512BOLB   C3B36275   1.898  24.402  18.615 -0.0612  0.1659  0.2413
 1512BOLB   C4B36276   1.854  24.522  19.087  0.0469 -0.1178 -0.1447
 1512BOLB   NC236277   0.710  23.792  21.103  0.2476  0.0226 -0.0023
 1512BOLB   PO236278   1.046  23.509  20.992 -0.0341  0.0182 -0.0039
 1512BOLB   GL336279   1.298  23.468  20.761  0.0597 -0.0831  0.1255
 1512BOLB   GL436280   1.460  23.240  20.964 -0.4347  0.1328  0.0056
 1512BOLB   C1C36281   1.525  23.759  20.525  0.0069  0.0025 -0.2837
 1512BOLB   C2C36282   1.851  23.663  20.259  0.2545 -0.1745 -0.0359
 1512BOLB   C3C36283   2.067  23.688  19.875  0.0044  0.0703  0.1196
 1512BOLB   C4C36284   2.244  23.864  19.610  0.1267 -0.0640  0.1167
 1512BOLB   C1D36285   1.847  23.267  20.638 -0.0675 -0.2722  0.1648
 1512BOLB   C2D36286   2.113  23.128  20.161 -0.1405  0.0254 -0.0027
 1512BOLB   C3D36287   2.588  22.968  20.105  0.0523  0.0519  0.0595
 1512BOLB   C4D36288   3.033  22.956  20.064 -0.2374  0.0026  0.1554
 1513BOLB   NC136289  13.245  26.107   9.566 -0.5053 -0.0268 -0.1662
 1513BOLB   PO136290  13.422  25.653   9.636 -0.1295  0.0508 -0.2942
 1513BOLB   GL136291  13.713  25.947   9.684  0.0588  0.0134 -0.0145
 1513BOLB   GL236292  13.640  26.140   9.886 -0.0842 -0.1340 -0.2118
 1513BOLB   C1A36293  13.940  26.211   9.284  0.3469 -0.1318  0.3126
 1513BOLB   C2A36294  14.295  26.542   9.153 -0.0635  0.0784 -0.0951
 1513BOLB   C3A36295  14.688  26.649   9.293  0.0287 -0.0173 -0.1687
 1513BOLB   C4A36296  15.023  26.621   9.020 -0.0517  0.0693  0.2250
 1513BOLB   C1B36297  13.997  26.472   9.771 -0.4546 -0.2537 -0.0766
 1513BOLB   C2B36298  14.414  26.479   9.623  0.3612  0.0944 -0.1897
 1513BOLB   C3B36299  14.831  26.340   9.619 -0.0989 -0.1846  0.1411
 1513BOLB   C4B36300  15.261  26.550   9.432  0.0304 -0.0854 -0.2693
 1513BOLB   NC236301  16.433  27.974   7.397 -0.1305 -0.0352 -0.1582
 1513BOLB   PO236302  16.676  27.829   7.753  0.2994  0.1186 -0.1826
 1513BOLB   GL336303  16.288  27.731   7.858 -0.2074 -0.2568 -0.0359
 1513BOLB   GL436304  16.092  27.578   7.614  0.1661 -0.3059  0.1272
 1513BOLB   C1C36305  16.271  27.435   8.172  0.0951 -0.1016 -0.0838
 1513BOLB   C2C36306  15.981  27.161   8.390  0.1708  0.2928 -0.0697
 1513BOLB   C3C36307  15.697  26.913   8.689  0.0733  0.1267 -0.0294
 1513BOLB   C4C36308  15.459  26.603   8.935  0.0786 -0.2336  0.0532
 1513BOLB   C1D36309  15.761  27.484   7.368  0.0349  0.1875  0.0531
 1513BOLB   C2D36310  15.632  27.218   7.020 -0.1881 -0.1177  0.1535
 1513BOLB   C3D36311  15.744  27.215   6.558  0.3089 -0.5131 -0.0261
 1513BOLB   C4D36312  15.703  27.281   6.156  0.3171  0.3288 -0.1837
 1514BOLB   NC136313   0.245  26.352  12.247 -0.1805  0.0075 -0.0966
 1514BOLB   PO136314   0.040  25.844  12.227 -0.0868  0.1056 -0.0181
 1514BOLB   GL136315  -0.276  26.061  11.991 -0.1259  0.0413 -0.0231
 1514BOLB   GL236316  -0.428  25.923  11.636 -0.1228 -0.4314 -0.2620
 1514BOLB   C1A36317  -0.591  26.274  11.922  0.0923 -0.0113  0.0561
 1514BOLB   C2A36318  -0.859  26.503  12.012  0.0668  0.1081 -0.0378
 1514BOLB   C3A36319  -0.885  26.971  12.100 -0.1958  0.0483  0.2179
 1514BOLB   C4A36320  -0.954  27.375  12.119 -0.4379  0.0711  0.1438
 1514BOLB   C1B36321  -0.855  25.962  11.689  0.3063  0.6335  0.1003
 1514BOLB   C2B36322  -1.318  25.883  11.808  0.0803 -0.2775 -0.0978
 1514BOLB   C3B36323  -1.570  26.192  11.944  0.0696 -0.2137  0.0510
 1514BOLB   C4B36324  -1.884  26.434  12.118 -0.2234 -0.0021  0.0063
 1514BOLB   NC236325  -2.942  28.329  13.422 -0.1457  0.2978 -0.0555
 1514BOLB   PO236326  -2.543  28.549  13.480  0.0235 -0.1954 -0.0859
 1514BOLB   GL336327  -2.089  28.403  13.460 -0.1333 -0.1014  0.2361
 1514BOLB   GL436328  -2.058  28.163  13.613  0.0377  0.0909  0.0496
 1514BOLB   C1C36329  -1.747  28.120  13.201  0.2393 -0.2131 -0.0052
 1514BOLB   C2C36330  -1.420  27.889  13.085  0.2386 -0.2560  0.0744
 1514BOLB   C3C36331  -1.188  27.922  12.754 -0.0666 -0.4455 -0.1871
 1514BOLB   C4C36332  -1.155  27.653  12.335  0.2069 -0.2569 -0.0253
 1514BOLB   C1D36333  -1.918  27.771  13.842 -0.0265 -0.1435  0.1976
 1514BOLB   C2D36334  -1.727  27.402  13.851 -0.0884 -0.3570 -0.2715
 1514BOLB   C3D36335  -1.859  26.952  13.837 -0.1036 -0.0768  0.1300
 1514BOLB   C4D36336  -1.722  26.650  13.450 -0.0874  0.1811 -0.2183
 1515BOLB   NC136337   2.505  19.959  17.151  0.0585 -0.2263 -0.1540
 1515BOLB   PO136338   2.358  19.884  17.564  0.1449 -0.0325 -0.0471
 1515BOLB   GL136339   2.086  19.956  17.896  0.0869  0.1683 -0.1722
 1515BOLB   GL236340   1.954  19.672  17.892  0.2358  0.3835  0.3101
 1515BOLB   C1A36341   1.853  20.050  18.303 -0.0479 -0.4472 -0.0183
 1515BOLB   C2A36342   1.750  20.525  18.574  0.0204  0.2718 -0.1297
 1515BOLB   C3A36343   1.725  20.393  18.981 -0.2202  0.0663  0.1311
 1515BOLB   C4A36344   1.745  20.078  19.377 -0.0758  0.2108 -0.4039
 1515BOLB   C1B36345   1.934  19.531  18.289  0.0174  0.2489 -0.2441
 1515BOLB   C2B36346   1.913  19.798  18.865 -0.0271 -0.3741  0.0151
 1515BOLB   C3B36347   2.089  19.629  19.244  0.1210 -0.2123 -0.0898
 1515BOLB   C4B36348   1.910  19.543  19.658 -0.2746 -0.1020  0.2073
 1515BOLB   NC236349   0.732  20.667  21.505 -0.1584  0.1085  0.3336
 1515BOLB   PO236350   1.055  20.379  21.294 -0.1730 -0.2600  0.2920
 1515BOLB   GL336351   1.328  20.182  21.113  0.0096  0.0996 -0.0120
 1515BOLB   GL436352   1.207  19.879  21.102 -0.0302 -0.2995  0.1567
 1515BOLB   C1C36353   1.651  20.064  20.931  0.0479  0.0576  0.0863
 1515BOLB   C2C36354   2.058  20.158  20.694  0.3244  0.4915  0.0523
 1515BOLB   C3C36355   2.001  20.028  20.191  0.0961  0.0157 -0.3220
 1515BOLB   C4C36356   1.703  19.962  19.808  0.3072  0.2116 -0.0444
 1515BOLB   C1D36357   1.168  19.807  20.686 -0.2831  0.0805 -0.0067
 1515BOLB   C2D36358   1.103  19.632  20.294 -0.1170  0.5037  0.1727
 1515BOLB   C3D36359   1.156  19.571  19.750  0.1512  0.0607  0.3682
 1515BOLB   C4D36360   0.865  19.351  19.506  0.0395 -0.0431  0.0376
 1516BOLB   NC136361  12.438  21.529  16.144 -0.2870 -0.2890  0.1330
 1516BOLB   PO136362  12.847  21.536  16.297  0.0406  0.1765  0.1912
 1516BOLB   GL136363  12.754  21.793  16.750 -0.0402 -0.0835 -0.2665
 1516BOLB   GL236364  12.668  22.168  16.663 -0.1734  0.0177 -0.0084
 1516BOLB   C1A36365  12.854  21.799  17.195 -0.3872  0.4060 -0.2891
 1516BOLB   C2A36366  13.164  21.975  17.339  0.0208  0.0257  0.4897
 1516BOLB   C3A36367  13.278  22.345  17.654 -0.0218 -0.0365 -0.2786
 1516BOLB   C4A36368  13.257  22.486  18.130 -0.0849  0.0171  0.0651
 1516BOLB   C1B36369  13.085  22.245  16.917 -0.3592  0.3386 -0.0356
 1516BOLB   C2B36370  13.392  22.385  17.099  0.0048 -0.0196 -0.0403
 1516BOLB   C3B36371  13.681  22.603  17.348 -0.0446  0.0204 -0.0465
 1516BOLB   C4B36372  14.054  22.617  17.594 -0.0080  0.3172  0.3655
 1516BOLB   NC236373  14.597  23.495  20.360  0.2058 -0.2998 -0.0232
 1516BOLB   PO236374  14.284  23.173  20.276 -0.1715 -0.2856 -0.2709
 1516BOLB   GL336375  14.010  23.283  19.881 -0.0185 -0.2381  0.0754
 1516BOLB   GL436376  13.984  23.564  19.865 -0.0424 -0.2212 -0.1071
 1516BOLB   C1C36377  14.056  23.210  19.436  0.0109  0.0185  0.1069
 1516BOLB   C2C36378  13.817  22.944  19.104  0.0813  0.2579  0.2352
 1516BOLB   C3C36379  13.617  22.875  18.757 -0.0417 -0.0340 -0.0420
 1516BOLB   C4C36380  13.380  22.848  18.410  0.0268  0.0367  0.3431
 1516BOLB   C1D36381  13.643  23.579  19.563 -0.1545 -0.0995  0.2423
 1516BOLB   C2D36382  13.291  23.437  19.295 -0.0387 -0.4855 -0.2503
 1516BOLB   C3D36383  12.950  23.558  19.035 -0.0190 -0.0029  0.2789
 1516BOLB   C4D36384  12.742  23.966  18.803 -0.1596  0.0526 -0.0913
 1517BOLB   NC136385   1.126  12.338   0.086 -0.2321  0.2448  0.1321
 1517BOLB   PO136386   0.914  12.030   0.284 -0.1608  0.0040  0.1110
 1517BOLB   GL136387   0.707  12.233   0.507  0.1386 -0.1408 -0.0188
 1517BOLB   GL236388   0.404  12.032   0.639 -0.1570 -0.1800 -0.1958
 1517BOLB   C1A36389   0.835  12.645   0.747  0.0127  0.0135  0.1234
 1517BOLB   C2A36390   0.643  13.125   0.980  0.0962 -0.1501  0.2644
 1517BOLB   C3A36391   0.547  13.541   1.189 -0.1336  0.0181 -0.0630
 1517BOLB   C4A36392   0.183  13.689   0.854 -0.0926  0.0866  0.0606
 1517BOLB   C1B36393   0.356  11.750   0.978 -0.0098 -0.0045  0.1519
 1517BOLB   C2B36394   0.123  11.842   1.342 -0.0249  0.0306  0.1712
 1517BOLB   C3B36395  -0.051  12.076   1.658  0.1449  0.0559 -0.3974
 1517BOLB   C4B36396  -0.221  12.457   1.804  0.3283  0.3099  0.2605
 1517BOLB   NC236397  -0.580  12.363   0.114 -0.1807 -0.0758 -0.4362
 1517BOLB   PO236398  -0.736  12.681   0.029 -0.4152  0.1482  0.1032
 1517BOLB   GL336399  -0.915  12.640   0.545 -0.2731  0.3128  0.1136
 1517BOLB   GL436400  -0.600  12.909   0.629  0.1021 -0.2178  0.2185
 1517BOLB   C1C36401  -0.723  12.649   1.010  0.2562  0.4375 -0.0070
 1517BOLB   C2C36402  -0.596  13.024   1.091 -0.0113 -0.1487  0.1299
 1517BOLB   C3C36403  -0.415  13.355   1.131  0.1509  0.0529 -0.0344
 1517BOLB   C4C36404  -0.182  13.630   1.003  0.0695 -0.0887 -0.0008
 1517BOLB   C1D36405  -0.233  13.135   0.754 -0.3039 -0.0367  0.2567
 1517BOLB   C2D36406   0.115  13.218   0.959 -0.1292  0.2168  0.2655
 1517BOLB   C3D36407   0.145  13.354   1.373 -0.0359  0.0569  0.1224
 1517BOLB   C4D36408   0.068  13.440   1.830  0.0748 -0.2408 -0.2384
 1518BOLB   NC136409  29.793  15.533  12.608 -0.1440 -0.1380 -0.1815
 1518BOLB   PO136410  29.636  15.915  12.545  0.1359  0.1406 -0.0565
 1518BOLB   GL136411  30.059  15.972  12.548 -0.1375 -0.0493 -0.1663
 1518BOLB   GL236412  30.126  16.331  12.702  0.0113  0.1764 -0.0086
 1518BOLB   C1A36413  30.378  16.193  12.325 -0.0473  0.0148  0.0442
 1518BOLB   C2A36414  30.500  16.588  12.366  0.0541 -0.1223  0.0024
 1518BOLB   C3A36415  30.810  16.921  12.444  0.6142 -0.2294  0.0691
 1518BOLB   C4A36416  31.067  17.157  12.106  0.3719 -0.0747 -0.0877
 1518BOLB   C1B36417  30.473  16.024  12.843  0.0446  0.0684 -0.1763
 1518BOLB   C2B36418  30.806  16.017  13.017 -0.0086 -0.3528 -0.1977
 1518BOLB   C3B36419  31.198  15.883  12.925 -0.1126 -0.0436 -0.1267
 1518BOLB   C4B36420  31.693  15.961  12.952  0.0807  0.1183  0.1217
 1518BOLB   NC236421  29.177  18.089  12.294 -0.0531  0.6633  0.1454
 1518BOLB   PO236422  29.253  18.003  11.886  0.1474  0.0734  0.1380
 1518BOLB   GL336423  29.563  18.151  11.736 -0.2650 -0.2393 -0.0644
 1518BOLB   GL436424  29.904  17.886  11.663  0.5539  0.0797 -0.1539
 1518BOLB   C1C36425  29.980  18.360  11.867  0.0466 -0.1926 -0.1020
 1518BOLB   C2C36426  30.416  18.282  11.838  0.1942  0.0802  0.0048
 1518BOLB   C3C36427  30.696  17.885  11.831 -0.2353  0.0249 -0.2633
 1518BOLB   C4C36428  30.992  17.561  11.841 -0.2112  0.1391  0.0713
 1518BOLB   C1D36429  30.209  17.741  12.027  0.0345  0.1367  0.3056
 1518BOLB   C2D36430  30.548  17.706  12.280  0.2939 -0.2125 -0.1347
 1518BOLB   C3D36431  30.852  17.468  12.457  0.0446 -0.2773 -0.4690
 1518BOLB   C4D36432  31.133  17.215  12.622  0.1790  0.1784  0.1135
 1519BOLB   NC136433   1.304  27.339  11.694  0.1769 -0.0855 -0.1148
 1519BOLB   PO136434   1.410  27.397  11.221  0.0811 -0.0452 -0.2655
 1519BOLB   GL136435   1.135  27.715  11.021  0.0824 -0.1452 -0.1190
 1519BOLB   GL236436   1.366  27.920  10.980 -0.0950 -0.0288  0.4021
 1519BOLB   C1A36437   0.795  27.961  11.128 -0.0509  0.1117 -0.1163
 1519BOLB   C2A36438   0.426  28.208  11.278  0.2884 -0.2481 -0.1507
 1519BOLB   C3A36439   0.289  28.598  11.088  0.0384  0.2548  0.3908
 1519BOLB   C4A36440   0.637  28.869  10.811  0.2241  0.1432 -0.1249
 1519BOLB   C1B36441   1.109  28.237  10.877 -0.0411 -0.2097 -0.0567
 1519BOLB   C2B36442   1.072  28.615  10.655 -0.0115  0.0196  0.2908
 1519BOLB   C3B36443   1.025  28.861  10.265  0.1838 -0.2451  0.1279
 1519BOLB   C4B36444   0.914  29.277  10.058 -0.2316 -0.2263  0.1945
 1519BOLB   NC236445   0.084  31.217  11.331 -0.0763  0.0168  0.4041
 1519BOLB   PO236446   0.157  31.297  10.921  0.1787 -0.6225  0.0921
 1519BOLB   GL336447   0.116  30.843  10.962  0.1818 -0.1131  0.2056
 1519BOLB   GL436448  -0.205  30.695  10.925 -0.0419  0.0723  0.1140
 1519BOLB   C1C36449   0.451  30.513  10.977  0.2224 -0.0079 -0.0415
 1519BOLB   C2C36450   0.737  30.246  10.842 -0.0498 -0.0660 -0.2793
 1519BOLB   C3C36451   0.719  29.767  10.883  0.2203  0.1359  0.2522
 1519BOLB   C4C36452   0.691  29.353  10.825  0.0686 -0.3096 -0.0433
 1519BOLB   C1D36453  -0.221  30.256  10.738  0.1746 -0.0339 -0.2500
 1519BOLB   C2D36454  -0.084  29.765  10.638 -0.1508 -0.0383 -0.1178
 1519BOLB   C3D36455   0.230  29.533  10.751 -0.0642  0.2450 -0.3894
 1519BOLB   C4D36456   0.295  29.181  11.093 -0.1667 -0.4018  0.0623
 1520BOLB   NC136457  18.272  25.906  10.441 -0.0720  0.3482  0.3528
 1520BOLB   PO136458  18.099  26.146  10.144  0.2584 -0.0152 -0.0600
 1520BOLB   GL136459  17.715  25.829  10.131  0.0323  0.1148  0.0717
 1520BOLB   GL236460  17.804  25.472  10.148  0.1072 -0.0268  0.1688
 1520BOLB   C1A36461  17.359  25.566  10.252  0.0152 -0.0056 -0.1174
 1520BOLB   C2A36462  17.039  25.442  10.549 -0.0500 -0.1396 -0.3099
 1520BOLB   C3A36463  16.655  25.415  10.657 -0.1292  0.1156  0.1168
 1520BOLB   C4A36464  16.296  25.604  10.774 -0.0684  0.2139  0.2467
 1520BOLB   C1B36465  17.733  25.449  10.568 -0.3354  0.2618 -0.0680
 1520BOLB   C2B36466  17.538  25.145  10.821  0.1199  0.1288  0.1833
 1520BOLB   C3B36467  17.259  25.028  11.174  0.0560  0.0259 -0.1775
 1520BOLB   C4B36468  17.061  24.638  11.258 -0.0822  0.4365 -0.1177
 1520BOLB   NC236469  14.257  24.190  10.391 -0.2726  0.1434 -0.0225
 1520BOLB   PO236470  14.539  24.066  10.725 -0.0765 -0.1051  0.0430
 1520BOLB   GL336471  14.773  24.361  10.576 -0.2218 -0.3181  0.4027
 1520BOLB   GL436472  15.066  24.295  10.517 -0.0829  0.2662  0.4548
 1520BOLB   C1C36473  14.924  24.780  10.550 -0.1948 -0.1265  0.1381
 1520BOLB   C2C36474  15.200  25.208  10.447  0.2151  0.1099  0.1746
 1520BOLB   C3C36475  15.589  25.315  10.473  0.1179 -0.1488  0.1639
 1520BOLB   C4C36476  15.963  25.591  10.580  0.2371 -0.0866 -0.1562
 1520BOLB   C1D36477  15.516  24.508  10.471 -0.0580  0.2501  0.0123
 1520BOLB   C2D36478  15.905  24.588  10.807  0.1252  0.1613 -0.0906
 1520BOLB   C3D36479  16.256  24.642  11.022 -0.1175  0.0745  0.1589
 1520BOLB   C4D36480  16.410  24.914  10.731  0.1062 -0.0419  0.1646
 1521BOLB   NC136481   2.338  23.999   4.022  0.0926 -0.2526  0.1282
 1521BOLB   PO136482   2.271  24.031   4.495 -0.2467 -0.1379 -0.1858
 1521BOLB   GL136483   1.899  24.084   4.241  0.0194 -0.2863  0.0276
 1521BOLB   GL236484   1.855  24.358   4.172  0.2155 -0.2206  0.0123
 1521BOLB   C1A36485   1.450  24.214   3.977 -0.0349  0.1092  0.0941
 1521BOLB   C2A36486   1.365  24.335   3.543 -0.2076 -0.0132  0.3463
 1521BOLB   C3A36487   1.112  24.427   3.125  0.0855 -0.0114  0.0588
 1521BOLB   C4A36488   0.935  24.737   3.109 -0.2568 -0.3038  0.0438
 1521BOLB   C1B36489   1.817  24.421   3.748 -0.1240 -0.1272 -0.0673
 1521BOLB   C2B36490   1.683  24.733   3.486 -0.0602  0.3192  0.1328
 1521BOLB   C3B36491   1.274  24.946   3.406 -0.1004 -0.0218 -0.0896
 1521BOLB   C4B36492   1.054  25.083   3.742 -0.0713  0.1117 -0.0324
 1521BOLB   NC236493   0.561  26.590   1.387  0.1068 -0.1487 -0.2350
 1521BOLB   PO236494   0.139  26.475   1.384  0.1971 -0.0996  0.2112
 1521BOLB   GL336495   0.323  26.067   1.617 -0.0783  0.0387 -0.1113
 1521BOLB   GL436496   0.180  25.956   1.922  0.0718  0.0433 -0.4033
 1521BOLB   C1C36497   0.741  25.881   1.774  0.0589  0.1773 -0.0945
 1521BOLB   C2C36498   0.745  25.645   2.189  0.0923  0.3260  0.1624
 1521BOLB   C3C36499   0.874  25.332   2.495 -0.0482 -0.0285  0.1251
 1521BOLB   C4C36500   0.820  24.923   2.771 -0.1374 -0.0161 -0.0727
 1521BOLB   C1D36501   0.456  26.085   2.256  0.1911 -0.0065 -0.1300
 1521BOLB   C2D36502   0.566  26.044   2.601  0.1902 -0.2285  0.3135
 1521BOLB   C3D36503   0.811  25.765   2.836  0.3615 -0.0233  0.2847
 1521BOLB   C4D36504   0.898  25.678   3.227 -0.0828  0.0851  0.2714
 1522BOLB   NC136505  14.010  12.317  13.105 -0.0218 -0.0468 -0.1019
 1522BOLB   PO136506  13.994  11.940  12.896  0.0506 -0.0132 -0.0169
 1522BOLB   GL136507  13.713  12.088  12.694 -0.2699  0.0702 -0.0046
 1522BOLB   GL236508  13.958  12.358  12.589 -0.0851 -0.1165 -0.4595
 1522BOLB   C1A36509  13.435  12.395  12.519  0.4161  0.0026 -0.1905
 1522BOLB   C2A36510  12.977  12.415  12.675  0.1608 -0.0184  0.5290
 1522BOLB   C3A36511  12.532  12.378  12.847 -0.0514 -0.2939 -0.2937
 1522BOLB   C4A36512  12.190  12.317  12.674  0.1448 -0.0098  0.3152
 1522BOLB   C1B36513  13.750  12.773  12.373 -0.0278 -0.1432  0.0916
 1522BOLB   C2B36514  13.377  12.929  12.182  0.1045  0.5232  0.0927
 1522BOLB   C3B36515  13.166  13.172  12.020 -0.0527  0.2046  0.1621
 1522BOLB   C4B36516  13.014  13.401  11.559  0.2071  0.1458  0.0951
 1522BOLB   NC236517  11.450  10.285  11.945  0.3790  0.0033 -0.1661
 1522BOLB   PO236518  11.785  10.345  11.666 -0.1017 -0.2532  0.0943
 1522BOLB   GL336519  11.847  10.716  11.817  0.0100  0.0458  0.1273
 1522BOLB   GL436520  12.132  10.767  11.736  0.1709 -0.1555 -0.1056
 1522BOLB   C1C36521  11.547  10.986  11.948 -0.2667  0.4044 -0.1329
 1522BOLB   C2C36522  11.541  11.344  12.204  0.1012 -0.0315  0.3893
 1522BOLB   C3C36523  11.660  11.656  12.538  0.2354  0.1870 -0.0082
 1522BOLB   C4C36524  11.925  12.026  12.505  0.1474  0.0527 -0.1249
 1522BOLB   C1D36525  12.418  11.207  11.578  0.4936  0.2165  0.0929
 1522BOLB   C2D36526  12.403  11.588  11.273 -0.1302 -0.2126  0.2946
 1522BOLB   C3D36527  12.153  11.927  11.052 -0.0233 -0.0307  0.0738
 1522BOLB   C4D36528  12.059  12.350  10.943  0.0108  0.0489  0.3639
 1523BOLB   NC136529  11.848  22.435   3.701 -0.2184 -0.0827 -0.1078
 1523BOLB   PO136530  11.599  22.412   3.252 -0.2270  0.3833  0.0472
 1523BOLB   GL136531  11.784  22.304   2.822  0.1517  0.2032  0.1199
 1523BOLB   GL236532  11.700  22.539   2.667  0.0402  0.1466  0.0432
 1523BOLB   C1A36533  11.943  22.233   2.395  0.0199 -0.1538 -0.0344
 1523BOLB   C2A36534  12.107  22.293   1.989  0.0626  0.0860 -0.1207
 1523BOLB   C3A36535  12.466  22.520   1.784  0.5739 -0.1287  0.0857
 1523BOLB   C4A36536  12.277  22.840   1.538 -0.2803  0.2545 -0.1162
 1523BOLB   C1B36537  11.828  22.844   2.326  0.3042  0.0421  0.0054
 1523BOLB   C2B36538  11.903  23.066   1.844  0.2404  0.0776 -0.0165
 1523BOLB   C3B36539  11.689  23.494   1.613  0.3549  0.2123 -0.1230
 1523BOLB   C4B36540  11.303  23.686   1.731  0.0514 -0.2373 -0.2121
 1523BOLB   NC236541  12.634  24.220  -0.626 -0.1253 -0.0820 -0.2376
 1523BOLB   PO236542  12.489  23.853  -0.355  0.0950  0.1339  0.0707
 1523BOLB   GL336543  12.198  23.661  -0.018 -0.1846  0.1923 -0.0503
 1523BOLB   GL436544  12.075  23.854   0.118 -0.1941 -0.3057 -0.2070
 1523BOLB   C1C36545  11.803  23.470   0.199 -0.3026  0.0707  0.0336
 1523BOLB   C2C36546  11.687  23.275   0.639 -0.1281 -0.2077 -0.0275
 1523BOLB   C3C36547  11.669  23.021   1.009  0.0582 -0.1164  0.0743
 1523BOLB   C4C36548  11.896  22.857   1.349 -0.1242  0.1391 -0.0133
 1523BOLB   C1D36549  11.797  24.010   0.378 -0.0047  0.0244 -0.5659
 1523BOLB   C2D36550  11.387  24.176   0.469  0.0320  0.0138  0.2673
 1523BOLB   C3D36551  11.066  24.503   0.610 -0.1166 -0.0055  0.2404
 1523BOLB   C4D36552  10.805  24.753   0.851  0.5251 -0.4676 -0.3450
 1524BOLB   NC136553  32.606  11.879   9.380  0.3383 -0.0534 -0.0937
 1524BOLB   PO136554  32.344  11.904   9.688 -0.0791  0.0238  0.2716
 1524BOLB   GL136555  32.499  12.293   9.626 -0.0097 -0.1708  0.0657
 1524BOLB   GL236556  32.591  12.434   9.332  0.2505  0.2439  0.3751
 1524BOLB   C1A36557  32.952  12.553   9.750 -0.0806  0.0074  0.0526
 1524BOLB   C2A36558  33.396  12.793   9.633 -0.0427 -0.0599 -0.0503
 1524BOLB   C3A36559  33.647  13.087   9.299 -0.0091  0.1444  0.0529
 1524BOLB   C4A36560  33.625  13.174   8.845  0.2973 -0.2022 -0.0474
 1524BOLB   C1B36561  32.790  12.863   9.416  0.1757  0.2438 -0.1935
 1524BOLB   C2B36562  32.954  13.148   9.728 -0.0942  0.0871  0.3845
 1524BOLB   C3B36563  33.356  13.328   9.703 -0.2608 -0.0936 -0.1380
 1524BOLB   C4B36564  33.604  13.546   9.521 -0.4703 -0.1665  0.2679
 1524BOLB   NC236565  32.278  11.944   7.952  0.0358 -0.2738  0.0055
 1524BOLB   PO236566  32.096  12.228   8.367 -0.1665 -0.1100 -0.0760
 1524BOLB   GL336567  32.314  12.508   8.540  0.1641  0.0623  0.3614
 1524BOLB   GL436568  32.711  12.468   8.624  0.4163  0.2913 -0.4588
 1524BOLB   C1C36569  32.486  12.913   8.441  0.3072  0.0873 -0.0535
 1524BOLB   C2C36570  32.868  12.848   8.284 -0.1912  0.0197 -0.0999
 1524BOLB   C3C36571  33.343  12.889   8.306 -0.0594 -0.2375  0.1422
 1524BOLB   C4C36572  33.483  13.174   8.489  0.0382 -0.1543 -0.1050
 1524BOLB   C1D36573  33.028  12.352   8.275  0.2665 -0.2531  0.3590
 1524BOLB   C2D36574  33.482  12.379   8.250  0.2778 -0.0794 -0.0724
 1524BOLB   C3D36575  33.697  12.728   7.958 -0.0315  0.1367  0.1786
 1524BOLB   C4D36576  33.539  12.895   7.554  0.1497 -0.3676  0.0719
 1525BOLB   NC136577   7.791  32.429   4.994 -0.1552  0.1712  0.2265
 1525BOLB   PO136578   7.530  32.113   4.823  0.0483 -0.3611  0.0871
 1525BOLB   GL136579   7.327  31.780   5.026 -0.3344  0.0204 -0.1176
 1525BOLB   GL236580   7.608  31.585   5.256  0.1613 -0.1402  0.0594
 1525BOLB   C1A36581   7.046  31.516   5.214  0.1547  0.0790  0.1458
 1525BOLB   C2A36582   6.988  31.168   5.248  0.0244 -0.0242  0.0071
 1525BOLB   C3A36583   6.967  30.758   5.429  0.5776  0.1056  0.1224
 1525BOLB   C4A36584   7.160  30.368   5.465 -0.0773  0.3124 -0.1619
 1525BOLB   C1B36585   7.460  31.238   5.153  0.0766  0.0949  0.0496
 1525BOLB   C2B36586   7.393  30.772   5.060 -0.4384  0.3391  0.0784
 1525BOLB   C3B36587   7.088  30.506   4.921 -0.1473  0.0525  0.0782
 1525BOLB   C4B36588   6.668  30.281   5.127  0.5376  0.0644  0.1922
 1525BOLB   NC236589   7.099  30.263   3.121  0.1048  0.1938  0.2002
 1525BOLB   PO236590   7.031  30.598   3.211  0.0916 -0.1054 -0.1420
 1525BOLB   GL336591   7.061  30.540   3.665  0.0258 -0.0465  0.0154
 1525BOLB   GL436592   7.231  30.258   3.692 -0.0673  0.0577 -0.0879
 1525BOLB   C1C36593   7.069  30.368   4.140  0.1686  0.1747 -0.2752
 1525BOLB   C2C36594   7.017  30.070   4.401  0.3205  0.1023 -0.1702
 1525BOLB   C3C36595   7.204  30.040   4.768  0.0884 -0.1376  0.1316
 1525BOLB   C4C36596   7.311  30.154   5.198  0.0938 -0.0183 -0.0642
 1525BOLB   C1D36597   6.856  30.018   3.793  0.0954 -0.0678 -0.0885
 1525BOLB   C2D36598   6.605  29.698   3.825 -0.0526 -0.0671  0.0642
 1525BOLB   C3D36599   6.516  29.266   3.822  0.2645  0.1087 -0.0886
 1525BOLB   C4D36600   6.766  28.826   3.766  0.0777 -0.3380  0.1218
 1526BOLB   NC136601  10.546  23.271   3.268  0.1949 -0.0773  0.2582
 1526BOLB   PO136602  10.799  23.003   3.291 -0.3123 -0.2577  0.2643
 1526BOLB   GL136603  10.978  23.347   3.048 -0.0091  0.0956 -0.1425
 1526BOLB   GL236604  10.910  23.587   3.285  0.0062  0.0986 -0.3197
 1526BOLB   C1A36605  11.085  23.252   2.669  0.0522 -0.0625  0.0493
 1526BOLB   C2A36606  11.205  22.877   2.409 -0.1014  0.2469  0.1989
 1526BOLB   C3A36607  11.352  22.810   2.063 -0.0866  0.3277  0.0727
 1526BOLB   C4A36608  11.474  23.077   1.640  0.1955 -0.1150  0.2689
 1526BOLB   C1B36609  10.996  23.850   2.997 -0.3747 -0.0628  0.3389
 1526BOLB   C2B36610  11.034  23.928   2.566 -0.0450  0.1744 -0.0299
 1526BOLB   C3B36611  11.166  23.587   2.223 -0.0572  0.0206 -0.0052
 1526BOLB   C4B36612  11.399  23.313   2.069 -0.1249  0.0150  0.0284
 1526BOLB   NC236613  12.060  24.228  -0.213 -0.1029 -0.2575  0.0256
 1526BOLB   PO236614  11.667  24.399  -0.408  0.0440  0.0817  0.0923
 1526BOLB   GL336615  11.632  23.983  -0.158 -0.1326  0.0675  0.0579
 1526BOLB   GL436616  11.746  23.668  -0.240  0.0029  0.0605  0.1253
 1526BOLB   C1C36617  11.330  23.759   0.140  0.1081 -0.0990  0.1033
 1526BOLB   C2C36618  11.229  23.463   0.457  0.3576 -0.2083 -0.1905
 1526BOLB   C3C36619  11.303  23.383   0.889 -0.0890 -0.2935  0.0702
 1526BOLB   C4C36620  11.274  23.308   1.373 -0.3095  0.1793 -0.1517
 1526BOLB   C1D36621  11.753  23.144  -0.101  0.2298  0.1619 -0.2617
 1526BOLB   C2D36622  11.894  22.924   0.258 -0.0980 -0.1425  0.1406
 1526BOLB   C3D36623  12.032  22.804   0.685 -0.0775 -0.5484 -0.3835
 1526BOLB   C4D36624  12.348  22.588   1.035  0.0417 -0.2107  0.3547
 1527BOLB   NC136625   7.728  26.778  15.248  0.0060 -0.1519 -0.1615
 1527BOLB   PO136626   7.659  27.241  15.417 -0.2024  0.0531  0.0209
 1527BOLB   GL136627   7.543  27.754  15.599  0.2590 -0.2224  0.0508
 1527BOLB   GL236628   7.873  28.051  15.632  0.3575  0.4950  0.0386
 1527BOLB   C1A36629   7.526  28.083  15.994  0.1861 -0.0725  0.2479
 1527BOLB   C2A36630   7.369  28.349  16.357  0.0073 -0.0069 -0.0626
 1527BOLB   C3A36631   7.065  28.444  16.682  0.1506 -0.2021  0.0672
 1527BOLB   C4A36632   6.692  28.748  16.675 -0.2811  0.1291  0.1562
 1527BOLB   C1B36633   8.004  28.278  15.987  0.2466  0.0145 -0.3854
 1527BOLB   C2B36634   8.163  28.634  16.237 -0.2298  0.1406  0.2105
 1527BOLB   C3B36635   7.984  29.077  16.332  0.1115  0.1494 -0.1957
 1527BOLB   C4B36636   8.038  29.502  16.694  0.0752  0.0824 -0.1933
 1527BOLB   NC236637   7.219  31.508  17.135  0.3941 -0.1114 -0.0297
 1527BOLB   PO236638   6.825  31.212  17.356  0.1850  0.1732 -0.0114
 1527BOLB   GL336639   6.915  30.861  17.358 -0.0263 -0.3443 -0.0592
 1527BOLB   GL436640   6.920  30.712  17.695  0.5875  0.2427 -0.0324
 1527BOLB   C1C36641   6.888  30.566  17.043  0.3416 -0.2031 -0.2560
 1527BOLB   C2C36642   6.794  30.226  16.933  0.4955 -0.2921 -0.0113
 1527BOLB   C3C36643   6.584  29.746  16.832  0.0410  0.4150  0.0729
 1527BOLB   C4C36644   6.661  29.211  16.733 -0.0439  0.0885  0.0198
 1527BOLB   C1D36645   7.231  30.382  17.413  0.1531  0.3666 -0.2988
 1527BOLB   C2D36646   7.265  30.162  17.027  0.3675 -0.0858  0.0226
 1527BOLB   C3D36647   7.164  29.775  16.864  0.1514  0.0426  0.0667
 1527BOLB   C4D36648   7.032  29.518  16.588 -0.0045 -0.2282  0.1553
 1528BOLB   NC136649   1.046  19.443  16.164 -0.2576  0.0755  0.1066
 1528BOLB   PO136650   0.970  19.383  16.685 -0.2537 -0.0807  0.0610
 1528BOLB   GL136651   0.791  18.950  16.831 -0.1685 -0.0469 -0.1809
 1528BOLB   GL236652   0.999  18.731  17.136 -0.3071 -0.1845  0.0470
 1528BOLB   C1A36653   0.392  18.986  17.129 -0.0500  0.1320 -0.0566
 1528BOLB   C2A36654   0.273  19.133  17.550  0.1286  0.3710 -0.4053
 1528BOLB   C3A36655  -0.005  19.257  17.858 -0.1574 -0.0842 -0.3351
 1528BOLB   C4A36656  -0.056  19.234  18.324 -0.2976 -0.2792  0.2261
 1528BOLB   C1B36657   0.869  18.373  17.366  0.3221  0.3613  0.0736
 1528BOLB   C2B36658   0.610  18.206  17.654 -0.0299  0.0115 -0.0275
 1528BOLB   C3B36659   0.479  18.495  18.004 -0.0334  0.2675 -0.2904
 1528BOLB   C4B36660   0.256  18.834  18.036 -0.0375 -0.2513  0.1512
 1528BOLB   NC236661  -0.438  20.720  20.226  0.0401  0.1627 -0.4648
 1528BOLB   PO236662  -0.487  20.363  20.495  0.2618  0.2578 -0.2672
 1528BOLB   GL336663  -0.488  20.013  20.204  0.1725  0.0130 -0.3439
 1528BOLB   GL436664  -0.206  19.789  20.270 -0.0164 -0.0564  0.1067
 1528BOLB   C1C36665  -0.534  19.795  19.845  0.0288 -0.0460  0.3286
 1528BOLB   C2C36666  -0.313  19.664  19.523  0.0442  0.1772  0.2219
 1528BOLB   C3C36667  -0.263  19.692  19.027  0.0299 -0.2290 -0.2113
 1528BOLB   C4C36668  -0.271  19.443  18.669 -0.1786  0.0040 -0.0586
 1528BOLB   C1D36669  -0.093  19.566  20.030 -0.3416  0.0395  0.2046
 1528BOLB   C2D36670   0.120  19.698  19.616 -0.2924 -0.0772  0.4021
 1528BOLB   C3D36671   0.149  19.487  19.238 -0.0379  0.2718 -0.2851
 1528BOLB   C4D36672  -0.064  19.222  19.156  0.1174 -0.1496  0.2433
 1529BOLB   NC136673   2.471  18.696  17.506 -0.1738 -0.1781  0.0813
 1529BOLB   PO136674   2.203  18.689  17.817 -0.3267 -0.1999  0.4096
 1529BOLB   GL136675   2.070  18.363  18.006  0.3196 -0.1150  0.3104
 1529BOLB   GL236676   1.777  18.393  17.926  0.1508  0.0756  0.4611
 1529BOLB   C1A36677   2.133  18.028  18.339  0.0023 -0.2160  0.2256
 1529BOLB   C2A36678   1.848  17.674  18.401  0.2298  0.2209  0.4855
 1529BOLB   C3A36679   1.510  17.426  18.744 -0.0796  0.2013 -0.3458
 1529BOLB   C4A36680   1.268  17.669  18.994  0.2898 -0.0211  0.1548
 1529BOLB   C1B36681   1.961  18.472  18.439  0.2195 -0.2333  0.0790
 1529BOLB   C2B36682   2.117  18.449  18.856  0.2577 -0.1076 -0.3584
 1529BOLB   C3B36683   1.865  18.386  19.253 -0.0219  0.1354  0.0557
 1529BOLB   C4B36684   1.528  18.135  19.346  0.1181  0.1784  0.3421
 1529BOLB   NC236685   1.578  18.163  21.412  0.0193 -0.0667  0.0640
 1529BOLB   PO236686   1.474  17.704  21.267  0.0446 -0.1027 -0.4089
 1529BOLB   GL336687   1.470  17.493  20.858 -0.0953  0.2006  0.3632
 1529BOLB   GL436688   1.748  17.475  20.812 -0.1078  0.2431  0.1666
 1529BOLB   C1C36689   1.440  17.616  20.453 -0.2554 -0.2409 -0.0135
 1529BOLB   C2C36690   1.106  17.750  20.143 -0.3379 -0.3051 -0.2155
 1529BOLB   C3C36691   1.046  17.577  19.710  0.0457  0.0906  0.0305
 1529BOLB   C4C36692   1.231  17.664  19.434 -0.0692 -0.0951  0.3285
 1529BOLB   C1D36693   2.002  17.638  20.325 -0.0695  0.0178  0.2958
 1529BOLB   C2D36694   2.171  17.905  20.004  0.0127 -0.0925 -0.1796
 1529BOLB   C3D36695   2.296  18.235  19.759  0.2225 -0.0500  0.0940
 1529BOLB   C4D36696   2.417  18.422  19.342  0.0608 -0.1212 -0.2877
 1530BOLB   NC136697   5.541  26.335   4.859  0.0169 -0.2246  0.0265
 1530BOLB   PO136698   5.627  25.951   4.559  0.1044  0.0013 -0.2678
 1530BOLB   GL136699   5.842  26.346   4.400  0.2771  0.0213 -0.3386
 1530BOLB   GL236700   6.209  26.365   4.438 -0.1537 -0.0266 -0.2672
 1530BOLB   C1A36701   5.831  26.590   4.160  0.4097 -0.2356  0.1397
 1530BOLB   C2A36702   5.754  26.941   3.873 -0.5017  0.1483 -0.3580
 1530BOLB   C3A36703   5.658  27.061   3.546  0.5256 -0.1566  0.0476
 1530BOLB   C4A36704   5.454  27.531   3.407  0.1371 -0.0976 -0.1618
 1530BOLB   C1B36705   6.254  26.462   3.981 -0.1433  0.2123 -0.1129
 1530BOLB   C2B36706   6.190  26.779   3.698  0.0202  0.1225  0.0408
 1530BOLB   C3B36707   6.052  27.007   3.231 -0.0194 -0.1877  0.0376
 1530BOLB   C4B36708   5.671  27.166   3.081 -0.0326 -0.3171 -0.0057
 1530BOLB   NC236709   4.213  29.505   1.824 -0.3131 -0.3188 -0.0964
 1530BOLB   PO236710   4.425  29.116   1.969  0.0562  0.1217 -0.3914
 1530BOLB   GL336711   4.501  28.751   2.207  0.0067 -0.1528  0.1253
 1530BOLB   GL436712   4.408  28.494   2.029  0.3543 -0.1421 -0.2422
 1530BOLB   C1C36713   4.735  28.306   2.453  0.0483 -0.1401 -0.2213
 1530BOLB   C2C36714   4.858  28.280   2.901 -0.0432  0.1128 -0.1329
 1530BOLB   C3C36715   5.147  28.204   3.217  0.2192  0.1082  0.0071
 1530BOLB   C4C36716   5.349  27.888   3.411 -0.0027  0.0019  0.0704
 1530BOLB   C1D36717   4.594  28.059   2.041 -0.0841  0.3259 -0.2446
 1530BOLB   C2D36718   4.770  27.746   2.341  0.0913  0.2444 -0.1741
 1530BOLB   C3D36719   5.075  27.486   2.261  0.0730  0.0663 -0.0446
 1530BOLB   C4D36720   5.450  27.273   2.306 -0.1472  0.0591 -0.4308
 1531BOLB   NC136721   9.947  28.436  10.265  0.2979  0.0613  0.1686
 1531BOLB   PO136722   9.739  28.517   9.822  0.0374 -0.1235 -0.1918
 1531BOLB   GL136723   9.940  28.827   9.989 -0.1610 -0.3670 -0.1841
 1531BOLB   GL236724   9.930  28.963  10.334 -0.0362  0.0807 -0.0219
 1531BOLB   C1A36725  10.132  29.119   9.880  0.2146 -0.2441 -0.1814
 1531BOLB   C2A36726  10.152  29.624   9.841  0.2753  0.0120 -0.0011
 1531BOLB   C3A36727  10.299  30.053   9.820 -0.0820 -0.0908 -0.0585
 1531BOLB   C4A36728  10.122  30.393   9.980 -0.2283  0.1667 -0.0693
 1531BOLB   C1B36729   9.889  29.413  10.289 -0.0431 -0.0193  0.2076
 1531BOLB   C2B36730   9.873  29.838  10.214 -0.0493 -0.1617  0.0754
 1531BOLB   C3B36731  10.161  30.093  10.430  0.1751 -0.0652  0.2458
 1531BOLB   C4B36732  10.508  30.200  10.630  0.3216  0.1486 -0.0343
 1531BOLB   NC236733  10.277  32.601   8.817 -0.0891 -0.2063 -0.1084
 1531BOLB   PO236734  10.578  32.307   8.964 -0.0327  0.2095 -0.1651
 1531BOLB   GL336735  10.803  32.156   9.399 -0.0538  0.0586 -0.3830
 1531BOLB   GL436736  11.091  32.000   9.209 -0.2388 -0.0220 -0.2022
 1531BOLB   C1C36737  10.904  31.852   9.795  0.1993  0.4699 -0.2297
 1531BOLB   C2C36738  10.885  31.528   9.942 -0.3103 -0.2597 -0.0001
 1531BOLB   C3C36739  10.623  31.080   9.929  0.0823 -0.0465  0.0260
 1531BOLB   C4C36740  10.208  30.814  10.000 -0.1398  0.0725 -0.1983
 1531BOLB   C1D36741  10.685  31.699   9.173 -0.0084 -0.0559 -0.0097
 1531BOLB   C2D36742  10.493  31.515   9.595 -0.0309  0.3336 -0.3089
 1531BOLB   C3D36743  10.109  31.259   9.613  0.1304  0.0592 -0.0331
 1531BOLB   C4D36744   9.919  30.822   9.537 -0.1961 -0.0816 -0.1095
 1532BOLB   NC136745  38.260  23.784  14.107  0.2636  0.1141  0.1549
 1532BOLB   PO136746  38.142  24.031  14.558 -0.2636 -0.1106 -0.0710
 1532BOLB   GL136747  37.797  24.158  14.676 -0.0141 -0.1170 -0.1222
 1532BOLB   GL236748  37.718  24.062  15.016  0.2967  0.0161  0.3162
 1532BOLB   C1A36749  37.612  24.528  14.710 -0.1839 -0.0015  0.2755
 1532BOLB   C2A36750  37.502  24.750  15.152  0.0654 -0.1081  0.0959
 1532BOLB   C3A36751  37.649  24.932  15.497  0.2192  0.0372 -0.1681
 1532BOLB   C4A36752  37.809  25.201  15.791  0.1961 -0.1391  0.2423
 1532BOLB   C1B36753  37.383  24.132  14.968  0.0887 -0.0254  0.1835
 1532BOLB   C2B36754  37.193  24.449  15.002  0.3229 -0.1430  0.1749
 1532BOLB   C3B36755  36.978  24.781  15.264 -0.0940 -0.2660 -0.0404
 1532BOLB   C4B36756  36.836  25.077  15.535 -0.2420  0.2058  0.1464
 1532BOLB   NC236757  35.689  25.710  17.175 -0.4902  0.1358 -0.2615
 1532BOLB   PO236758  36.089  25.774  16.901  0.0316 -0.3733  0.0130
 1532BOLB   GL336759  36.452  25.710  16.829  0.0386 -0.3615  0.1288
 1532BOLB   GL436760  36.482  25.721  16.511 -0.2668 -0.2428 -0.1118
 1532BOLB   C1C36761  36.852  25.419  16.779  0.1073  0.1091  0.3186
 1532BOLB   C2C36762  37.249  25.507  16.636 -0.0161 -0.1734  0.2840
 1532BOLB   C3C36763  37.588  25.375  16.543 -0.3480  0.1903  0.0834
 1532BOLB   C4C36764  37.809  25.112  16.184  0.0319  0.1273 -0.0893
 1532BOLB   C1D36765  36.880  25.743  16.433 -0.0586  0.0418 -0.3781
 1532BOLB   C2D36766  37.254  25.755  16.121 -0.3099  0.2858 -0.0242
 1532BOLB   C3D36767  37.177  25.858  15.654 -0.0294  0.0561  0.0324
 1532BOLB   C4D36768  37.047  26.124  15.382  0.3842 -0.0712  0.0762
 1533BOLB   NC136769  10.473  17.938  16.759 -0.1732 -0.0103 -0.3810
 1533BOLB   PO136770  10.152  17.731  16.929  0.2179 -0.1996  0.0382
 1533BOLB   GL136771  10.393  17.457  17.067  0.2723  0.3188  0.0805
 1533BOLB   GL236772  10.682  17.553  16.972  0.1334  0.0366  0.6455
 1533BOLB   C1A36773  10.465  17.216  17.318 -0.0824  0.1855  0.0110
 1533BOLB   C2A36774  10.683  16.947  17.490 -0.1188 -0.2136 -0.2985
 1533BOLB   C3A36775  10.851  16.491  17.552 -0.1279 -0.0099 -0.0171
 1533BOLB   C4A36776  11.163  16.380  17.768  0.2157 -0.1913 -0.1184
 1533BOLB   C1B36777  10.934  17.276  17.116  0.2618 -0.2633  0.0463
 1533BOLB   C2B36778  11.153  17.271  17.403  0.4620 -0.1334 -0.2555
 1533BOLB   C3B36779  11.197  17.000  17.790 -0.1527 -0.2955 -0.2037
 1533BOLB   C4B36780  10.867  16.790  18.012  0.0543  0.2731  0.0622
 1533BOLB   NC236781  12.542  15.081  18.780 -0.1264  0.2235 -0.0366
 1533BOLB   PO236782  12.078  14.913  18.845  0.1114  0.0320  0.0839
 1533BOLB   GL336783  11.844  15.296  18.757 -0.2228  0.0720 -0.1756
 1533BOLB   GL436784  11.920  15.628  18.722 -0.0303  0.1355  0.3054
 1533BOLB   C1C36785  11.751  15.120  18.271 -0.2183 -0.4394  0.3628
 1533BOLB   C2C36786  11.557  15.309  17.862 -0.0463  0.0285  0.4861
 1533BOLB   C3C36787  11.691  15.714  17.844  0.1975  0.2014 -0.1087
 1533BOLB   C4C36788  11.540  16.095  17.765 -0.1209  0.1742  0.1024
 1533BOLB   C1D36789  11.626  15.588  18.347  0.0418  0.0413 -0.0243
 1533BOLB   C2D36790  11.252  15.680  18.094  0.1900 -0.0541 -0.2492
 1533BOLB   C3D36791  11.218  15.644  17.716 -0.1447  0.0464  0.0821
 1533BOLB   C4D36792  11.152  16.020  17.420  0.0694 -0.0422  0.1028
 1534BOLB   NC136793  12.755  26.316   8.779 -0.1051  0.1675  0.0814
 1534BOLB   PO136794  12.225  26.500   8.670 -0.0058 -0.2049  0.3596
 1534BOLB   GL136795  12.560  26.584   8.359  0.0933 -0.0908  0.0260
 1534BOLB   GL236796  12.538  26.852   8.562 -0.0485  0.1120  0.1127
 1534BOLB   C1A36797  12.709  26.777   8.079 -0.0769  0.0784 -0.7205
 1534BOLB   C2A36798  12.989  26.897   7.861  0.1008  0.1364  0.3022
 1534BOLB   C3A36799  13.301  26.964   7.484  0.1036  0.2523  0.0077
 1534BOLB   C4A36800  13.667  27.105   7.202  0.3355 -0.1233  0.0232
 1534BOLB   C1B36801  12.783  27.267   8.392  0.0140  0.1928  0.1734
 1534BOLB   C2B36802  13.090  27.459   8.048  0.2089  0.1766  0.0957
 1534BOLB   C3B36803  13.434  27.607   7.847  0.1135  0.2168 -0.2952
 1534BOLB   C4B36804  13.795  27.842   7.721  0.1059 -0.2605 -0.0535
 1534BOLB   NC236805  15.600  28.421   6.478  0.2552 -0.2742 -0.3109
 1534BOLB   PO236806  15.242  28.685   6.440  0.1612  0.0599  0.0565
 1534BOLB   GL336807  15.215  28.244   6.715  0.1904 -0.0122 -0.1534
 1534BOLB   GL436808  15.443  28.001   6.846  0.0090 -0.1029 -0.1022
 1534BOLB   C1C36809  14.904  28.046   7.028  0.1877  0.2272  0.0375
 1534BOLB   C2C36810  14.525  27.958   7.116 -0.0721  0.0476 -0.0422
 1534BOLB   C3C36811  14.250  27.685   7.283 -0.3496  0.0592 -0.0184
 1534BOLB   C4C36812  14.035  27.333   7.206 -0.2329  0.1344 -0.1201
 1534BOLB   C1D36813  15.285  27.733   7.201  0.0378 -0.1150 -0.3033
 1534BOLB   C2D36814  15.220  27.222   7.293  0.0700  0.2154  0.4520
 1534BOLB   C3D36815  15.037  26.949   7.433  0.2693  0.1752 -0.3111
 1534BOLB   C4D36816  15.198  26.528   7.516 -0.2645  0.0326 -0.3305
 1535BOLB   NC136817  12.822  25.813   7.908  0.0420 -0.0214  0.0465
 1535BOLB   PO136818  13.134  25.455   7.805 -0.2631  0.2028 -0.4989
 1535BOLB   GL136819  13.464  25.542   7.607  0.0382  0.0763  0.1558
 1535BOLB   GL236820  13.485  25.581   7.256 -0.1119 -0.1024 -0.0910
 1535BOLB   C1A36821  13.782  25.812   7.658 -0.0506  0.0251 -0.0806
 1535BOLB   C2A36822  14.164  26.107   7.547  0.1234 -0.4241  0.0121
 1535BOLB   C3A36823  14.411  26.220   7.201  0.0747  0.0235 -0.1677
 1535BOLB   C4A36824  14.691  26.482   6.945 -0.0805 -0.1663  0.1646
 1535BOLB   C1B36825  13.790  25.742   6.923  0.0172  0.0840  0.0558
 1535BOLB   C2B36826  13.997  25.750   6.442 -0.2289 -0.0067  0.3432
 1535BOLB   C3B36827  14.146  26.111   6.171  0.1047  0.2862  0.0006
 1535BOLB   C4B36828  14.334  26.454   6.124 -0.0166 -0.1153 -0.0867
 1535BOLB   NC236829  15.375  28.699   5.957 -0.2561  0.2494  0.2793
 1535BOLB   PO236830  15.034  28.462   5.850  0.0131  0.3070 -0.2278
 1535BOLB   GL336831  15.186  28.114   5.989 -0.1191 -0.1175  0.1077
 1535BOLB   GL436832  15.023  28.205   6.276  0.5607 -0.1131  0.0034
 1535BOLB   C1C36833  15.315  27.806   6.209 -0.2596  0.1195 -0.3060
 1535BOLB   C2C36834  15.266  27.455   6.440 -0.0144 -0.1945 -0.2094
 1535BOLB   C3C36835  15.151  27.093   6.722  0.0631 -0.1612  0.0195
 1535BOLB   C4C36836  14.939  26.803   6.930 -0.0368  0.4935 -0.4047
 1535BOLB   C1D36837  14.938  27.866   6.520  0.0958 -0.2003 -0.0440
 1535BOLB   C2D36838  14.934  27.575   6.886 -0.1193 -0.1466  0.0815
 1535BOLB   C3D36839  14.751  27.315   7.250  0.0353 -0.0676 -0.0481
 1535BOLB   C4D36840  14.606  27.072   7.664  0.2318 -0.2722  0.0257
 1536BOLB   NC136841   0.121   7.940  16.123  0.4885  0.1593  0.1142
 1536BOLB   PO136842  -0.207   8.284  16.313 -0.1098  0.1009  0.0068
 1536BOLB   GL136843  -0.176   8.658  16.158  0.2175 -0.0952  0.0402
 1536BOLB   GL236844  -0.400   8.606  15.873  0.3090  0.3010  0.4043
 1536BOLB   C1A36845   0.054   8.776  15.819 -0.1329 -0.0828 -0.1888
 1536BOLB   C2A36846   0.451   8.682  15.576 -0.2967  0.0880  0.1451
 1536BOLB   C3A36847   0.728   8.599  15.182 -0.0308  0.0942  0.0463
 1536BOLB   C4A36848   0.908   8.485  14.842 -0.2382 -0.0379 -0.4210
 1536BOLB   C1B36849  -0.252   8.669  15.431  0.1510  0.0712 -0.0095
 1536BOLB   C2B36850  -0.089   8.827  15.046  0.0609 -0.1076 -0.0089
 1536BOLB   C3B36851  -0.007   8.972  14.699  0.2545 -0.0487 -0.2081
 1536BOLB   C4B36852   0.033   9.336  14.392  0.2241  0.0452 -0.0732
 1536BOLB   NC236853  -0.207   6.909  14.097 -0.0510  0.1961  0.0998
 1536BOLB   PO236854  -0.081   6.973  14.606 -0.1905 -0.2293  0.1796
 1536BOLB   GL336855   0.183   7.225  14.277  0.1766 -0.0045 -0.1577
 1536BOLB   GL436856   0.061   7.326  14.004  0.0752  0.0233 -0.0528
 1536BOLB   C1C36857   0.571   7.457  14.209 -0.0853  0.2722  0.0811
 1536BOLB   C2C36858   0.951   7.722  14.227 -0.2048 -0.0665  0.3118
 1536BOLB   C3C36859   1.096   8.017  14.282  0.0674 -0.1782  0.2129
 1536BOLB   C4C36860   1.226   8.161  14.675  0.3342 -0.2662 -0.1182
 1536BOLB   C1D36861  -0.092   7.695  14.087 -0.1395 -0.1449  0.0002
 1536BOLB   C2D36862  -0.402   7.971  13.779 -0.1970 -0.2339  0.0190
 1536BOLB   C3D36863  -0.563   8.312  13.471 -0.1340 -0.5196 -0.1324
 1536BOLB   C4D36864  -0.508   8.518  13.081 -0.0517  0.1761 -0.1570
 1537BOLB   NC136865  14.381  18.957  11.752  0.2551 -0.0040 -0.0613
 1537BOLB   PO136866  14.660  18.963  11.308 -0.3621  0.1188  0.3704
 1537BOLB   GL136867  14.895  18.794  11.524 -0.0368  0.0446  0.1484
 1537BOLB   GL236868  14.865  19.004  11.783 -0.0174 -0.1663 -0.0815
 1537BOLB   C1A36869  15.300  18.707  11.598 -0.0420  0.1434 -0.1247
 1537BOLB   C2A36870  15.715  18.476  11.519  0.2326  0.0925 -0.0086
 1537BOLB   C3A36871  16.071  18.238  11.626 -0.1880  0.1163  0.0425
 1537BOLB   C4A36872  16.441  18.032  11.667  0.0599  0.3076 -0.1040
 1537BOLB   C1B36873  15.288  18.902  12.016 -0.0706 -0.3543  0.0301
 1537BOLB   C2B36874  15.684  18.686  12.204 -0.0554 -0.1519  0.2738
 1537BOLB   C3B36875  16.051  18.721  12.015 -0.0095  0.1393  0.0878
 1537BOLB   C4B36876  16.450  18.636  11.858  0.0414  0.0608 -0.2285
 1537BOLB   NC236877  17.050  17.034  13.957 -0.0942  0.1619 -0.0469
 1537BOLB   PO236878  17.066  16.922  13.508  0.1268 -0.2244 -0.1437
 1537BOLB   GL336879  16.873  17.245  13.278  0.1766  0.0336 -0.2425
 1537BOLB   GL436880  16.852  17.417  13.060 -0.1986 -0.0398  0.2754
 1537BOLB   C1C36881  16.410  17.270  13.066 -0.0268  0.2297  0.0578
 1537BOLB   C2C36882  16.397  17.455  12.752  0.0343  0.2762 -0.3186
 1537BOLB   C3C36883  16.565  17.482  12.352 -0.0621  0.1548 -0.1698
 1537BOLB   C4C36884  16.415  17.747  11.936 -0.1549  0.0278  0.1547
 1537BOLB   C1D36885  16.744  17.811  12.991 -0.1139  0.2631 -0.4328
 1537BOLB   C2D36886  16.490  18.029  12.642  0.2933  0.0941  0.0682
 1537BOLB   C3D36887  16.192  17.826  12.420 -0.0893 -0.0780  0.0406
 1537BOLB   C4D36888  15.915  17.738  12.046  0.2091 -0.2717  0.3192
 1538BOLB   NC136889   3.801  16.656   3.494 -0.1191 -0.0388 -0.1192
 1538BOLB   PO136890   3.413  16.590   3.737  0.1366 -0.0943  0.2021
 1538BOLB   GL136891   3.419  16.465   3.285  0.4011  0.0939  0.0817
 1538BOLB   GL236892   3.748  16.188   3.311  0.0785 -0.0029  0.2816
 1538BOLB   C1A36893   3.401  16.281   2.926  0.1873 -0.2216  0.4375
 1538BOLB   C2A36894   3.451  15.891   2.766  0.1470 -0.0995 -0.0628
 1538BOLB   C3A36895   3.332  15.639   2.452  0.1771  0.1538 -0.0859
 1538BOLB   C4A36896   3.248  15.436   2.220 -0.1691  0.1827 -0.1800
 1538BOLB   C1B36897   3.902  15.834   3.004 -0.0827 -0.1946  0.3914
 1538BOLB   C2B36898   3.836  15.478   2.695 -0.4057  0.0802 -0.1079
 1538BOLB   C3B36899   3.956  15.153   2.394 -0.0652 -0.1292 -0.0579
 1538BOLB   C4B36900   4.334  14.785   2.534  0.0688 -0.3105  0.1850
 1538BOLB   NC236901   2.521  14.128   0.218  0.1883 -0.1135  0.0584
 1538BOLB   PO236902   2.441  14.427   0.419 -0.1804  0.2887 -0.2890
 1538BOLB   GL336903   2.466  14.732   0.570  0.0484  0.2783  0.2275
 1538BOLB   GL436904   2.571  15.000   0.367 -0.0779 -0.1339  0.1019
 1538BOLB   C1C36905   2.454  14.725   0.995  0.1842  0.0395 -0.0854
 1538BOLB   C2C36906   2.664  14.908   1.382 -0.1823  0.0971 -0.0750
 1538BOLB   C3C36907   2.814  14.975   1.810  0.2475 -0.1546 -0.0798
 1538BOLB   C4C36908   3.192  15.065   2.043  0.0342  0.0483  0.0968
 1538BOLB   C1D36909   2.767  15.083   0.696  0.2197  0.2035  0.0164
 1538BOLB   C2D36910   2.961  15.188   1.097 -0.0492  0.0944  0.1415
 1538BOLB   C3D36911   3.040  15.511   1.250  0.0300 -0.1349 -0.0071
 1538BOLB   C4D36912   3.415  15.755   1.375 -0.1393  0.1308  0.2418
 1539BOLB   NC136913  11.282  14.754   9.717  0.3614  0.0469 -0.1292
 1539BOLB   PO136914  11.690  14.893   9.905 -0.1299 -0.0581  0.1221
 1539BOLB   GL136915  12.125  14.701  10.051 -0.0993 -0.1262  0.0749
 1539BOLB   GL236916  11.874  14.495  10.184 -0.1215 -0.2323  0.2052
 1539BOLB   C1A36917  12.459  14.411   9.965 -0.0910  0.0645  0.0860
 1539BOLB   C2A36918  12.856  14.225   9.780  0.0761 -0.2365  0.0533
 1539BOLB   C3A36919  13.274  14.194   9.783  0.1158 -0.3453  0.1413
 1539BOLB   C4A36920  13.616  14.229  10.073  0.0131  0.1489 -0.5132
 1539BOLB   C1B36921  12.152  14.186  10.189 -0.4269 -0.2559  0.1509
 1539BOLB   C2B36922  11.956  13.830  10.265  0.0815  0.0797  0.2141
 1539BOLB   C3B36923  11.920  13.364  10.336  0.0740 -0.0003 -0.2898
 1539BOLB   C4B36924  11.954  12.964  10.586  0.2222  0.2204 -0.0480
 1539BOLB   NC236925  14.995  12.115  11.148  0.0853  0.1967 -0.0185
 1539BOLB   PO236926  14.691  12.252  10.954  0.1003  0.2257  0.0600
 1539BOLB   GL336927  14.574  12.624  10.853  0.0670  0.0325 -0.1327
 1539BOLB   GL436928  14.724  13.004  10.825  0.0520  0.1082  0.1602
 1539BOLB   C1C36929  14.228  12.960  10.839 -0.2306 -0.2675  0.3068
 1539BOLB   C2C36930  13.946  13.269  10.724  0.0449 -0.0334 -0.0614
 1539BOLB   C3C36931  13.679  13.578  10.724  0.0499 -0.0861 -0.0302
 1539BOLB   C4C36932  13.716  13.895  10.466 -0.0579  0.0049 -0.2437
 1539BOLB   C1D36933  14.478  13.364  10.671 -0.1238  0.1668 -0.0124
 1539BOLB   C2D36934  14.226  13.660  10.670  0.2222 -0.0760  0.1578
 1539BOLB   C3D36935  14.078  14.069  10.770 -0.0465 -0.2060 -0.2702
 1539BOLB   C4D36936  13.689  14.335  10.589 -0.0409  0.0862 -0.2510
 1540BOLB   NC136937  14.602  27.650  17.497 -0.1239 -0.1088 -0.1895
 1540BOLB   PO136938  14.494  27.427  17.758  0.1718  0.0194  0.2155
 1540BOLB   GL136939  14.400  26.983  17.694 -0.0690 -0.1036 -0.0926
 1540BOLB   GL236940  14.352  26.857  18.057  0.1982 -0.4422 -0.2494
 1540BOLB   C1A36941  14.140  26.804  17.510 -0.1183 -0.0333 -0.1499
 1540BOLB   C2A36942  14.103  26.558  17.137  0.1795  0.1108 -0.1545
 1540BOLB   C3A36943  14.173  26.132  17.183  0.3826  0.0717  0.0771
 1540BOLB   C4A36944  14.032  25.786  17.001 -0.1452  0.1785  0.0979
 1540BOLB   C1B36945  13.959  26.850  17.977 -0.3022 -0.0024 -0.1129
 1540BOLB   C2B36946  13.510  26.943  17.729 -0.2182  0.0880  0.2219
 1540BOLB   C3B36947  13.635  26.921  17.360  0.1024 -0.0278 -0.3047
 1540BOLB   C4B36948  13.391  26.933  16.983  0.1422 -0.1031  0.0750
 1540BOLB   NC236949  12.471  24.500  15.048 -0.6731  0.0424 -0.4428
 1540BOLB   PO236950  12.557  24.534  15.600 -0.1034  0.1605  0.0363
 1540BOLB   GL336951  12.785  24.606  15.950  0.1106 -0.2135 -0.0083
 1540BOLB   GL436952  12.973  24.833  15.858 -0.0776  0.0956 -0.0202
 1540BOLB   C1C36953  13.029  24.600  16.317  0.3339  0.0789 -0.4060
 1540BOLB   C2C36954  13.423  24.715  16.438  0.0002 -0.1417  0.0976
 1540BOLB   C3C36955  13.601  24.965  16.729 -0.2964 -0.0129  0.0806
 1540BOLB   C4C36956  13.867  25.301  16.871  0.2238  0.0863 -0.0597
 1540BOLB   C1D36957  12.836  25.058  16.161  0.0936  0.3965  0.0669
 1540BOLB   C2D36958  12.994  25.195  16.525 -0.1132 -0.1014  0.2111
 1540BOLB   C3D36959  13.319  25.509  16.739  0.2630 -0.0574  0.0204
 1540BOLB   C4D36960  13.749  25.738  16.583 -0.2256 -0.1625 -0.0099
 1541BOLB   NC136961  13.597  31.115  13.614  0.1240  0.1606 -0.1016
 1541BOLB   PO136962  13.626  30.645  13.776 -0.3750 -0.0270 -0.1944
 1541BOLB   GL136963  13.665  30.178  13.910 -0.1700 -0.1701  0.2593
 1541BOLB   GL236964  13.891  29.936  14.035 -0.1025  0.2774  0.2112
 1541BOLB   C1A36965  13.381  29.920  13.617 -0.0864  0.3397  0.1782
 1541BOLB   C2A36966  13.288  29.559  13.404  0.1609 -0.2462 -0.2552
 1541BOLB   C3A36967  13.120  29.141  13.244 -0.0206  0.1451 -0.2606
 1541BOLB   C4A36968  12.905  28.699  13.159 -0.2562 -0.2059 -0.3634
 1541BOLB   C1B36969  14.046  29.586  14.004  0.4983  0.1552  0.1575
 1541BOLB   C2B36970  14.197  29.195  14.117  0.3232 -0.0600 -0.1480
 1541BOLB   C3B36971  13.847  29.014  14.262  0.1048  0.3134  0.0613
 1541BOLB   C4B36972  13.711  28.540  14.256  0.1432 -0.0141  0.2209
 1541BOLB   NC236973  11.487  26.826  12.333 -0.2814  0.0575 -0.2475
 1541BOLB   PO236974  11.451  27.206  12.224 -0.0829  0.0384 -0.0274
 1541BOLB   GL336975  11.553  27.719  12.255 -0.0507  0.1810  0.5090
 1541BOLB   GL436976  11.430  27.894  12.006 -0.0012  0.2328  0.1160
 1541BOLB   C1C36977  11.933  27.949  12.242 -0.0526  0.1624  0.2531
 1541BOLB   C2C36978  12.235  28.175  12.411 -0.1724 -0.0779 -0.0001
 1541BOLB   C3C36979  12.480  28.182  12.808 -0.1216  0.0680  0.1898
 1541BOLB   C4C36980  12.656  28.511  13.011  0.0142  0.1100  0.1773
 1541BOLB   C1D36981  11.531  28.206  12.420  0.0326  0.1631 -0.5291
 1541BOLB   C2D36982  11.471  28.490  12.739 -0.1575 -0.3035 -0.2654
 1541BOLB   C3D36983  11.664  28.726  12.899  0.1552  0.0606 -0.0853
 1541BOLB   C4D36984  11.831  29.053  13.136  0.0635 -0.0772 -0.0455
 1542BOLB   NC136985  13.619  18.692   5.072  0.0375  0.1256  0.1709
 1542BOLB   PO136986  14.113  18.563   5.173  0.1253 -0.0964 -0.5057
 1542BOLB   GL136987  14.494  18.349   5.231 -0.0391 -0.0838  0.1743
 1542BOLB   GL236988  14.739  18.607   5.164 -0.1179  0.0002 -0.1062
 1542BOLB   C1A36989  14.862  18.097   5.125 -0.4485  0.0273  0.0429
 1542BOLB   C2A36990  15.278  17.993   4.725 -0.2742  0.0503  0.2421
 1542BOLB   C3A36991  15.705  18.233   4.637 -0.1414  0.0856  0.4690
 1542BOLB   C4A36992  15.959  18.059   4.456  0.0071 -0.0900 -0.4183
 1542BOLB   C1B36993  15.171  18.551   5.043  0.3537 -0.0999 -0.3494
 1542BOLB   C2B36994  15.484  18.657   4.820  0.0607  0.2462  0.2472
 1542BOLB   C3B36995  15.915  18.677   4.875 -0.1171 -0.3507 -0.1844
 1542BOLB   C4B36996  16.380  18.674   4.868  0.2208 -0.0832  0.0312
 1542BOLB   NC236997  18.087  18.212   4.352  0.3616 -0.0493 -0.2176
 1542BOLB   PO236998  18.032  17.843   4.241  0.3116  0.1131  0.0061
 1542BOLB   GL336999  17.718  17.833   4.374 -0.0130 -0.0462 -0.0756
 1542BOLB   GL437000  17.391  18.029   4.254  0.0221 -0.2134 -0.1352
 1542BOLB   C1C37001  17.373  17.648   4.609 -0.0045 -0.3027 -0.5591
 1542BOLB   C2C37002  16.985  17.406   4.655  0.0359  0.1768  0.3224
 1542BOLB   C3C37003  16.595  17.536   4.471  0.5404 -0.1898 -0.0711
 1542BOLB   C4C37004  16.222  17.764   4.435 -0.0008  0.3542 -0.0401
 1542BOLB   C1D37005  17.220  18.346   4.384 -0.0625  0.0083  0.1998
 1542BOLB   C2D37006  16.820  18.543   4.413 -0.4487 -0.4388  0.2651
 1542BOLB   C3D37007  16.802  19.041   4.613 -0.1492 -0.1156  0.2415
 1542BOLB   C4D37008  16.799  19.513   4.796  0.1977  0.3769 -0.2308
 1543BOLB   NC137009  11.733  15.513  10.640  0.2181  0.1135 -0.1839
 1543BOLB   PO137010  12.083  15.739  10.820  0.0898  0.3665 -0.2445
 1543BOLB   GL137011  12.353  15.551  11.116  0.0658  0.0325 -0.0497
 1543BOLB   GL237012  12.683  15.664  11.292 -0.0510 -0.2016 -0.4492
 1543BOLB   C1A37013  12.519  15.146  11.272 -0.4442 -0.0774 -0.0955
 1543BOLB   C2A37014  12.812  14.904  11.489 -0.1644  0.0491 -0.3235
 1543BOLB   C3A37015  12.824  14.662  11.818 -0.1096  0.0287 -0.1885
 1543BOLB   C4A37016  12.710  14.182  11.897 -0.0270  0.2426  0.0417
 1543BOLB   C1B37017  12.959  15.339  11.581 -0.1020  0.1204  0.0580
 1543BOLB   C2B37018  12.915  15.168  11.957  0.1202 -0.2101 -0.0595
 1543BOLB   C3B37019  12.842  14.985  12.361 -0.1214 -0.1744  0.2444
 1543BOLB   C4B37020  13.169  14.743  12.592 -0.0016  0.1873  0.0625
 1543BOLB   NC237021  13.946  13.541  14.270  0.4648 -0.0231 -0.1862
 1543BOLB   PO237022  14.024  13.595  13.772 -0.1015 -0.0273 -0.1196
 1543BOLB   GL337023  13.634  13.498  13.464  0.4658  0.0044  0.1516
 1543BOLB   GL437024  13.323  13.436  13.593  0.2633 -0.2508 -0.1509
 1543BOLB   C1C37025  13.283  13.511  13.076 -0.3179  0.1599 -0.1674
 1543BOLB   C2C37026  13.024  13.544  12.859  0.0984  0.2866  0.3458
 1543BOLB   C3C37027  12.678  13.655  12.641 -0.1970 -0.0499 -0.1001
 1543BOLB   C4C37028  12.652  13.964  12.327 -0.0996  0.1029  0.1015
 1543BOLB   C1D37029  13.086  13.859  13.529  0.1089  0.2980  0.1125
 1543BOLB   C2D37030  12.737  14.015  13.561 -0.2803 -0.3407 -0.1241
 1543BOLB   C3D37031  12.388  14.213  13.311 -0.0919 -0.0632 -0.1670
 1543BOLB   C4D37032  11.975  14.320  13.243 -0.0596  0.1325  0.1099
 1544BOLB   NC137033   2.468  19.530  17.933  0.0721  0.1139 -0.1891
 1544BOLB   PO137034   2.549  19.136  17.757  0.0192 -0.2335 -0.0019
 1544BOLB   GL137035   2.329  19.148  18.165  0.2446 -0.2380  0.1370
 1544BOLB   GL237036   2.409  18.829  18.273 -0.3500 -0.4049 -0.2016
 1544BOLB   C1A37037   2.085  18.934  18.585  0.0837  0.0040 -0.0053
 1544BOLB   C2A37038   1.663  18.775  18.708 -0.1629 -0.0643 -0.2029
 1544BOLB   C3A37039   1.399  18.515  19.026  0.3290 -0.0356  0.0922
 1544BOLB   C4A37040   1.041  18.304  19.285  0.2869 -0.1984  0.2910
 1544BOLB   C1B37041   2.481  18.451  18.491 -0.0530  0.0975 -0.0395
 1544BOLB   C2B37042   2.519  18.198  18.864 -0.0416  0.0163  0.0684
 1544BOLB   C3B37043   2.312  17.905  19.193 -0.2704  0.2222  0.1246
 1544BOLB   C4B37044   2.588  17.784  19.653 -0.0519 -0.0779 -0.0830
 1544BOLB   NC237045   0.593  18.105  21.651  0.3901 -0.0704  0.1308
 1544BOLB   PO237046   1.049  18.232  21.673  0.0322  0.2887 -0.4727
 1544BOLB   GL337047   0.986  18.048  21.176 -0.3252 -0.0531 -0.2511
 1544BOLB   GL437048   1.346  18.179  20.956  0.1351  0.1215 -0.0266
 1544BOLB   C1C37049   0.915  17.865  20.748 -0.2394 -0.1271  0.1017
 1544BOLB   C2C37050   0.653  17.889  20.378  0.2302  0.0759 -0.1414
 1544BOLB   C3C37051   0.663  17.834  19.928 -0.1089  0.1985  0.1993
 1544BOLB   C4C37052   0.847  18.000  19.515 -0.2659  0.0477 -0.1807
 1544BOLB   C1D37053   1.158  18.264  20.539  0.1656 -0.1041  0.1524
 1544BOLB   C2D37054   1.021  18.263  20.097 -0.4044  0.3339  0.0985
 1544BOLB   C3D37055   0.873  18.368  19.801 -0.0515 -0.1183  0.0844
 1544BOLB   C4D37056   0.811  18.759  19.583 -0.2126 -0.0410 -0.1021
 1545BOLB   NC137057   9.895  21.012  21.992 -0.3056  0.1364 -0.0535
 1545BOLB   PO137058  10.209  20.803  21.667  0.2792  0.4353 -0.1866
 1545BOLB   GL137059  10.049  21.088  21.427 -0.0765 -0.0553 -0.1276
 1545BOLB   GL237060   9.813  21.328  21.564  0.2629  0.1217  0.0496
 1545BOLB   C1A37061   9.916  21.140  21.047 -0.0298  0.1238  0.0573
 1545BOLB   C2A37062   9.622  21.421  20.889  0.3853  0.2433 -0.1846
 1545BOLB   C3A37063   9.281  21.278  20.628 -0.4120 -0.0206  0.0943
 1545BOLB   C4A37064   8.987  20.921  20.770 -0.1712 -0.0366 -0.1704
 1545BOLB   C1B37065   9.371  21.411  21.423  0.1139 -0.1892 -0.1513
 1545BOLB   C2B37066   9.045  21.359  21.052 -0.3381 -0.1984  0.3862
 1545BOLB   C3B37067   8.608  21.197  21.039 -0.2605  0.0126 -0.1502
 1545BOLB   C4B37068   8.533  21.239  20.692  0.1844 -0.1485 -0.0432
 1545BOLB   NC237069   8.653  19.565  22.809 -0.1306 -0.3919 -0.1611
 1545BOLB   PO237070   8.421  20.040  22.620  0.1131  0.1976 -0.0510
 1545BOLB   GL337071   8.287  19.922  22.167 -0.2902  0.1045  0.0677
 1545BOLB   GL437072   8.011  20.028  22.133 -0.1213  0.1965 -0.1294
 1545BOLB   C1C37073   8.476  19.895  21.805 -0.0081 -0.0654  0.2839
 1545BOLB   C2C37074   8.471  20.160  21.503  0.2131 -0.0735  0.2074
 1545BOLB   C3C37075   8.633  20.532  21.367 -0.1053 -0.1292  0.1034
 1545BOLB   C4C37076   8.643  20.690  20.938  0.0827 -0.1463 -0.1708
 1545BOLB   C1D37077   7.601  19.868  21.980 -0.0004 -0.0391 -0.1321
 1545BOLB   C2D37078   7.230  19.744  21.646 -0.1803  0.0857 -0.1909
 1545BOLB   C3D37079   6.977  19.723  21.741  0.3820 -0.1395 -0.1398
 1545BOLB   C4D37080   6.662  19.307  21.694  0.0597 -0.0118 -0.3491
 1546BOLB   NC137081   9.148  14.436   6.074 -0.0829  0.0168  0.3439
 1546BOLB   PO137082   8.915  14.174   6.491 -0.4136 -0.0677 -0.2309
 1546BOLB   GL137083   9.167  13.828   6.237  0.2208 -0.0147  0.0779
 1546BOLB   GL237084   9.397  13.585   6.413  0.1073  0.0465 -0.0491
 1546BOLB   C1A37085   9.171  13.499   5.968 -0.1523 -0.2106  0.0144
 1546BOLB   C2A37086   9.403  13.115   5.819  0.2006  0.2726  0.0081
 1546BOLB   C3A37087   9.600  12.662   5.696  0.0171  0.0296 -0.3364
 1546BOLB   C4A37088   9.956  12.498   6.076 -0.0836  0.0768  0.3882
 1546BOLB   C1B37089   9.631  13.691   6.012 -0.0519 -0.0509 -0.2003
 1546BOLB   C2B37090   9.804  13.821   5.667  0.1299  0.4901  0.0711
 1546BOLB   C3B37091   9.776  13.696   5.174  0.1606  0.0127 -0.1266
 1546BOLB   C4B37092   9.921  13.258   4.960  0.1168  0.0447  0.0630
 1546BOLB   NC237093  11.802  10.760   5.570  0.1950 -0.0763  0.0851
 1546BOLB   PO237094  11.388  10.550   5.688  0.2195 -0.2043 -0.2001
 1546BOLB   GL337095  11.128  10.908   5.843  0.2080  0.0045 -0.0619
 1546BOLB   GL437096  11.129  10.870   6.134  0.0725 -0.0092 -0.1131
 1546BOLB   C1C37097  10.994  11.338   5.750 -0.0105 -0.0053 -0.1356
 1546BOLB   C2C37098  10.974  11.699   6.045  0.2146 -0.3977  0.2359
 1546BOLB   C3C37099  10.758  12.080   6.230  0.0711 -0.0837  0.0948
 1546BOLB   C4C37100  10.409  12.401   6.272  0.2521  0.1295 -0.0751
 1546BOLB   C1D37101  11.252  11.283   6.175  0.2884  0.0602  0.1360
 1546BOLB   C2D37102  11.368  11.709   6.316  0.0111  0.1477  0.4011
 1546BOLB   C3D37103  11.278  12.190   6.420  0.0025  0.4766  0.1561
 1546BOLB   C4D37104  11.128  12.355   6.856  0.0079  0.1242 -0.1243
 1547BOLB   NC137105  13.481  17.085   7.452  0.0298  0.2026  0.1231
 1547BOLB   PO137106  13.153  16.780   7.250  0.1278  0.0828  0.0104
 1547BOLB   GL137107  13.409  16.393   7.160 -0.0139  0.3783 -0.1903
 1547BOLB   GL237108  13.642  16.762   7.074 -0.0159 -0.2744 -0.2989
 1547BOLB   C1A37109  13.721  16.166   6.893  0.1698 -0.2036  0.1018
 1547BOLB   C2A37110  13.841  15.794   6.779  0.0475  0.0135 -0.1083
 1547BOLB   C3A37111  14.236  15.573   6.800  0.1138 -0.3527 -0.0315
 1547BOLB   C4A37112  14.548  15.392   6.592  0.1419  0.0730  0.0219
 1547BOLB   C1B37113  13.920  16.561   7.300  0.0810 -0.1484  0.4357
 1547BOLB   C2B37114  14.359  16.457   7.326 -0.0837 -0.0409 -0.0546
 1547BOLB   C3B37115  14.769  16.328   7.229  0.1022  0.3250  0.1368
 1547BOLB   C4B37116  15.167  16.290   7.329 -0.2155  0.0487 -0.0332
 1547BOLB   NC237117  17.201  14.655   7.145 -0.1462 -0.4552 -0.0308
 1547BOLB   PO237118  16.789  14.487   7.071 -0.0025  0.0382  0.1829
 1547BOLB   GL337119  16.341  14.521   7.004  0.0840 -0.2015  0.1351
 1547BOLB   GL437120  16.387  14.671   6.694  0.0677  0.4636 -0.0938
 1547BOLB   C1C37121  15.942  14.661   7.056  0.1582 -0.1147 -0.2444
 1547BOLB   C2C37122  15.452  14.797   6.976  0.0275 -0.3149 -0.0130
 1547BOLB   C3C37123  15.230  15.043   6.761  0.3632 -0.0796 -0.1503
 1547BOLB   C4C37124  14.987  15.375   6.706  0.0383  0.4908  0.0012
 1547BOLB   C1D37125  16.102  15.060   6.639  0.1407  0.1826  0.0252
 1547BOLB   C2D37126  16.000  15.446   6.652 -0.2393 -0.2971  0.0265
 1547BOLB   C3D37127  15.715  15.793   6.802 -0.0365 -0.1328  0.3754
 1547BOLB   C4D37128  15.376  15.998   6.598  0.0309 -0.3507 -0.3036
 1548BOLB   NC137129  38.198  21.717  15.315  0.3527 -0.4922 -0.0412
 1548BOLB   PO137130  37.981  22.176  15.269 -0.0341 -0.0477  0.2487
 1548BOLB   GL137131  37.676  22.066  15.685  0.1804 -0.1419 -0.0841
 1548BOLB   GL237132  37.797  21.868  15.906  0.1843 -0.0421 -0.1598
 1548BOLB   C1A37133  37.317  21.844  15.802 -0.1347 -0.0671  0.2314
 1548BOLB   C2A37134  36.930  21.940  16.103 -0.1598 -0.1647 -0.1729
 1548BOLB   C3A37135  36.955  22.086  16.450  0.1682 -0.0399  0.0837
 1548BOLB   C4A37136  36.751  22.103  16.842  0.2171 -0.2269 -0.0643
 1548BOLB   C1B37137  37.473  21.847  16.296  0.1604 -0.3931  0.0080
 1548BOLB   C2B37138  37.388  21.978  16.752  0.2609 -0.0558 -0.2231
 1548BOLB   C3B37139  37.346  22.149  17.068  0.0445  0.0432 -0.3154
 1548BOLB   C4B37140  37.464  22.370  17.513  0.1217 -0.2053 -0.0058
 1548BOLB   NC237141  36.281  22.864  18.904 -0.1485 -0.0561  0.2355
 1548BOLB   PO237142  36.358  23.344  18.890 -0.1680  0.1426  0.0415
 1548BOLB   GL337143  36.329  23.195  18.488 -0.2160 -0.1009 -0.3439
 1548BOLB   GL437144  36.354  22.954  18.397 -0.2273 -0.2413  0.2828
 1548BOLB   C1C37145  36.639  23.236  18.062  0.0701  0.0592 -0.2166
 1548BOLB   C2C37146  36.589  22.968  17.705  0.0972 -0.3954 -0.0764
 1548BOLB   C3C37147  36.566  22.598  17.546  0.1684 -0.3621 -0.0021
 1548BOLB   C4C37148  36.822  22.383  17.307 -0.0297  0.2064 -0.0222
 1548BOLB   C1D37149  36.612  22.622  18.132  0.2274  0.1799  0.0783
 1548BOLB   C2D37150  36.759  22.327  17.923  0.0205 -0.2210  0.2416
 1548BOLB   C3D37151  37.137  22.077  17.633  0.1439 -0.1070  0.1712
 1548BOLB   C4D37152  37.236  21.677  17.560  0.2439 -0.2033 -0.1557
 1549BOLB   NC137153   7.137  23.406   2.634 -0.1078 -0.0205  0.2354
 1549BOLB   PO137154   6.736  23.307   2.579  0.1303  0.4563  0.2805
 1549BOLB   GL137155   6.765  23.522   2.220 -0.1950 -0.2476  0.0216
 1549BOLB   GL237156   6.588  23.843   2.363 -0.0943 -0.1308  0.3671
 1549BOLB   C1A37157   6.890  23.851   1.944 -0.2099  0.2677  0.1095
 1549BOLB   C2A37158   6.816  24.285   1.751 -0.3271  0.0339  0.0597
 1549BOLB   C3A37159   6.795  24.512   1.326 -0.2107 -0.1712 -0.2194
 1549BOLB   C4A37160   6.774  24.419   0.847  0.2791  0.1647  0.2188
 1549BOLB   C1B37161   6.356  23.941   2.031 -0.2448 -0.0075 -0.0625
 1549BOLB   C2B37162   6.433  23.926   1.669 -0.3581 -0.0837 -0.0145
 1549BOLB   C3B37163   6.639  23.932   1.329 -0.2782  0.0584  0.0220
 1549BOLB   C4B37164   6.963  24.113   1.137  0.0237  0.3382  0.1160
 1549BOLB   NC237165   6.712  24.601  -1.774  0.3938 -0.0947  0.3046
 1549BOLB   PO237166   6.698  24.383  -1.374 -0.0907 -0.0172 -0.0393
 1549BOLB   GL337167   6.821  24.419  -1.024  0.0723 -0.1579 -0.1191
 1549BOLB   GL437168   6.551  24.531  -0.823  0.1486 -0.1063  0.0635
 1549BOLB   C1C37169   6.836  24.108  -0.615 -0.0437  0.0479 -0.0041
 1549BOLB   C2C37170   6.606  23.971  -0.302  0.0389  0.0325  0.0826
 1549BOLB   C3C37171   6.725  24.198   0.046 -0.0404  0.1049 -0.2609
 1549BOLB   C4C37172   6.742  24.479   0.383  0.2402 -0.1406 -0.2998
 1549BOLB   C1D37173   6.398  24.192  -0.670  0.0627  0.2973  0.1587
 1549BOLB   C2D37174   6.143  23.814  -0.499 -0.3503  0.2712 -0.0062
 1549BOLB   C3D37175   5.910  23.738  -0.220  0.1492 -0.0924  0.0027
 1549BOLB   C4D37176   5.642  24.130  -0.100 -0.0300  0.1312 -0.1847
 1550BOLB   NC137177  13.144  20.212  15.537  0.0919  0.3390  0.0436
 1550BOLB   PO137178  13.248  20.621  15.473  0.1450 -0.3174  0.1073
 1550BOLB   GL137179  13.632  20.420  15.659  0.0380 -0.1232 -0.3409
 1550BOLB   GL237180  13.599  20.035  15.724  0.1337 -0.5492 -0.2297
 1550BOLB   C1A37181  14.031  20.336  15.885  0.3011  0.4357 -0.2585
 1550BOLB   C2A37182  14.105  20.130  16.288 -0.1749 -0.0661  0.0966
 1550BOLB   C3A37183  14.285  19.842  16.609  0.1902  0.1260 -0.1944
 1550BOLB   C4A37184  14.627  19.607  16.761 -0.0235  0.0893  0.1509
 1550BOLB   C1B37185  13.625  20.151  16.146  0.1493  0.4095 -0.0297
 1550BOLB   C2B37186  13.645  20.177  16.676  0.2338 -0.1659  0.1474
 1550BOLB   C3B37187  13.851  20.173  17.011  0.0913 -0.0100 -0.1036
 1550BOLB   C4B37188  14.128  20.167  17.241 -0.1994 -0.1188  0.0882
 1550BOLB   NC237189  16.087  19.028  18.227  0.0625  0.3898  0.0143
 1550BOLB   PO237190  16.170  18.639  17.934  0.1940  0.0202 -0.3336
 1550BOLB   GL337191  15.932  18.991  17.673 -0.4506 -0.0829  0.0558
 1550BOLB   GL437192  15.711  18.680  17.559 -0.0421 -0.0777 -0.1688
 1550BOLB   C1C37193  15.643  19.299  17.724  0.1887 -0.1465 -0.0137
 1550BOLB   C2C37194  15.235  19.467  17.588  0.4695 -0.2440  0.0185
 1550BOLB   C3C37195  15.139  19.312  17.170  0.1134 -0.0996  0.0028
 1550BOLB   C4C37196  14.987  19.530  16.879  0.1061  0.1202  0.0593
 1550BOLB   C1D37197  15.342  18.885  17.492  0.0209  0.0063 -0.0141
 1550BOLB   C2D37198  14.954  18.819  17.267 -0.1304  0.2790 -0.0585
 1550BOLB   C3D37199  14.412  18.949  17.223  0.2225 -0.0345 -0.0872
 1550BOLB   C4D37200  14.181  18.799  16.913  0.2128  0.0992  0.0776
 1551BOLB   NC137201  29.975  22.454  15.060  0.0848  0.1035  0.0111
 1551BOLB   PO137202  29.736  22.356  14.653 -0.1435 -0.0259 -0.1066
 1551BOLB   GL137203  30.145  22.200  14.588 -0.1803  0.1049 -0.0331
 1551BOLB   GL237204  30.410  22.372  14.767 -0.0591 -0.1928 -0.0074
 1551BOLB   C1A37205  30.400  22.065  14.365 -0.0572  0.0670 -0.1276
 1551BOLB   C2A37206  30.845  21.892  14.283 -0.3819 -0.0282  0.1321
 1551BOLB   C3A37207  31.175  22.064  14.245 -0.0616  0.0289 -0.0456
 1551BOLB   C4A37208  31.591  22.088  14.422 -0.1541  0.0920 -0.0942
 1551BOLB   C1B37209  30.666  21.960  14.788 -0.1169 -0.0613  0.0742
 1551BOLB   C2B37210  30.969  21.627  14.706 -0.0595  0.1054  0.2188
 1551BOLB   C3B37211  31.367  21.600  14.473  0.3589  0.1511 -0.1262
 1551BOLB   C4B37212  31.787  21.663  14.399  0.2850  0.0934 -0.0672
 1551BOLB   NC237213  31.024  24.634  14.830 -0.0613 -0.0802 -0.3436
 1551BOLB   PO237214  31.121  24.356  14.577  0.0312  0.2377  0.1520
 1551BOLB   GL337215  31.147  23.906  14.452 -0.2195 -0.0363  0.3638
 1551BOLB   GL437216  30.988  23.791  14.688  0.0565  0.1492  0.0954
 1551BOLB   C1C37217  31.402  23.589  14.401 -0.3240  0.0898 -0.4632
 1551BOLB   C2C37218  31.564  23.186  14.414  0.0477 -0.0838  0.0953
 1551BOLB   C3C37219  31.579  22.784  14.292  0.0907  0.0042 -0.0177
 1551BOLB   C4C37220  31.725  22.393  14.338 -0.3389  0.1751 -0.4031
 1551BOLB   C1D37221  31.010  23.302  14.528 -0.0791  0.3357  0.0621
 1551BOLB   C2D37222  31.061  22.876  14.334  0.0517 -0.1820 -0.3658
 1551BOLB   C3D37223  31.161  22.550  14.111  0.3111 -0.1436  0.3323
 1551BOLB   C4D37224  31.489  22.307  13.883 -0.3987 -0.1989 -0.1161
 1552BOLB   NC137225   3.095  18.741  16.912  0.0551  0.0181  0.0718
 1552BOLB   PO137226   2.985  18.527  17.269 -0.1344 -0.2621  0.1304
 1552BOLB   GL137227   2.748  18.295  17.600 -0.0403 -0.4528  0.3957
 1552BOLB   GL237228   2.587  18.077  17.429 -0.2479  0.0107  0.1779
 1552BOLB   C1A37229   2.537  18.206  18.000 -0.0667  0.2135  0.0881
 1552BOLB   C2A37230   2.692  17.896  18.394 -0.0789  0.1079 -0.0292
 1552BOLB   C3A37231   2.468  17.627  18.682 -0.0085 -0.0999  0.1062
 1552BOLB   C4A37232   2.137  17.322  18.784 -0.2107  0.1559  0.2947
 1552BOLB   C1B37233   2.438  17.779  17.689 -0.3159 -0.0446  0.0824
 1552BOLB   C2B37234   2.333  17.597  18.104 -0.0791 -0.0253  0.0341
 1552BOLB   C3B37235   2.255  17.186  18.325 -0.0030  0.0812 -0.1106
 1552BOLB   C4B37236   1.978  16.838  18.370  0.2043 -0.0439 -0.0964
 1552BOLB   NC237237   1.777  16.278  21.150  0.0979 -0.1536  0.3204
 1552BOLB   PO237238   1.748  16.403  20.741  0.2117 -0.1854 -0.0255
 1552BOLB   GL337239   1.658  16.404  20.344  0.0876  0.1145  0.0663
 1552BOLB   GL437240   1.638  16.100  20.187  0.1043  0.0816 -0.1310
 1552BOLB   C1C37241   1.602  16.639  20.047 -0.0071 -0.0843  0.2870
 1552BOLB   C2C37242   1.647  16.705  19.597  0.0555  0.0713  0.4397
 1552BOLB   C3C37243   1.640  16.641  19.172  0.1126  0.0691  0.1261
 1552BOLB   C4C37244   1.824  16.983  18.953  0.3471  0.0506 -0.1392
 1552BOLB   C1D37245   1.767  16.077  19.803  0.0324 -0.0182 -0.0256
 1552BOLB   C2D37246   1.810  16.253  19.414 -0.2453  0.3403  0.0132
 1552BOLB   C3D37247   1.822  16.307  18.882  0.2865  0.1270 -0.2191
 1552BOLB   C4D37248   1.518  16.214  18.498  0.1313  0.1485 -0.0049
 1553BOLB   NC137249   9.912  28.623  11.303 -0.0697 -0.1361  0.2100
 1553BOLB   PO137250   9.868  28.458  10.827  0.0461  0.2064  0.3050
 1553BOLB   GL137251  10.173  28.801  10.922 -0.1180  0.2616  0.1354
 1553BOLB   GL237252   9.974  29.102  10.932 -0.1302  0.1437  0.3887
 1553BOLB   C1A37253  10.682  29.098  10.860 -0.1817 -0.1541 -0.1118
 1553BOLB   C2A37254  10.837  29.343  10.449  0.1654 -0.2818 -0.2751
 1553BOLB   C3A37255  11.039  29.567  10.164 -0.2971 -0.0658 -0.2233
 1553BOLB   C4A37256  11.303  29.910  10.083 -0.0950 -0.2382  0.1024
 1553BOLB   C1B37257  10.317  29.371  10.792 -0.2761 -0.0204 -0.0749
 1553BOLB   C2B37258  10.675  29.721  10.745  0.1034  0.1348  0.1299
 1553BOLB   C3B37259  11.075  29.831  10.661 -0.1091 -0.1222  0.0170
 1553BOLB   C4B37260  11.449  29.702  10.566  0.1723 -0.1559  0.1134
 1553BOLB   NC237261  12.475  31.776   8.856 -0.1871 -0.1246  0.0222
 1553BOLB   PO237262  12.268  31.568   8.462  0.0013  0.1678  0.3619
 1553BOLB   GL337263  12.293  31.254   8.744 -0.2233 -0.2475 -0.0529
 1553BOLB   GL437264  12.493  31.175   8.935 -0.2196  0.0929  0.1612
 1553BOLB   C1C37265  12.061  31.190   9.164 -0.0401 -0.3108 -0.0347
 1553BOLB   C2C37266  12.037  30.900   9.553 -0.1681 -0.1513 -0.0483
 1553BOLB   C3C37267  11.960  30.490   9.852  0.0944  0.1429 -0.1028
 1553BOLB   C4C37268  11.670  30.315  10.110  0.3707 -0.0355 -0.1199
 1553BOLB   C1D37269  12.538  31.059   9.418  0.1129 -0.3136  0.0126
 1553BOLB   C2D37270  12.724  30.761   9.772  0.1779 -0.1658 -0.0370
 1553BOLB   C3D37271  12.606  30.301   9.906 -0.1003  0.1986  0.0320
 1553BOLB   C4D37272  12.333  30.039   9.934  0.0554  0.2598 -0.1119
 1554BOLB   NC137273  14.214  24.631  12.658  0.0209  0.1316  0.1739
 1554BOLB   PO137274  14.436  24.588  12.222 -0.3478  0.2463  0.3094
 1554BOLB   GL137275  14.647  24.820  12.485 -0.2204  0.1774 -0.2020
 1554BOLB   GL237276  14.920  24.892  12.320 -0.5033 -0.0132 -0.1194
 1554BOLB   C1A37277  14.782  25.071  12.818 -0.1296 -0.0510  0.2647
 1554BOLB   C2A37278  15.192  25.387  13.096  0.3036  0.3395  0.1615
 1554BOLB   C3A37279  15.464  25.676  13.269  0.0325  0.3045  0.0361
 1554BOLB   C4A37280  15.820  25.777  13.611 -0.0445 -0.1142  0.0369
 1554BOLB   C1B37281  15.250  25.087  12.553 -0.1426 -0.0185  0.0916
 1554BOLB   C2B37282  15.481  25.178  12.760 -0.2869 -0.1349 -0.3273
 1554BOLB   C3B37283  15.635  25.159  13.187  0.1040  0.0687 -0.1156
 1554BOLB   C4B37284  15.760  25.179  13.567  0.0189 -0.0719 -0.0868
 1554BOLB   NC237285  17.845  25.552  13.755  0.2567 -0.1093 -0.1030
 1554BOLB   PO237286  18.124  25.724  13.467  0.0205  0.1884  0.1353
 1554BOLB   GL337287  17.699  25.797  13.260 -0.1240 -0.1875  0.1185
 1554BOLB   GL437288  17.531  25.529  13.371 -0.5315  0.2564 -0.1852
 1554BOLB   C1C37289  17.343  25.720  12.950  0.0078  0.3932 -0.0114
 1554BOLB   C2C37290  16.911  25.675  13.032 -0.2119  0.0029 -0.0043
 1554BOLB   C3C37291  16.598  25.601  13.381 -0.0804 -0.1483  0.0939
 1554BOLB   C4C37292  16.159  25.539  13.503 -0.0939  0.4046 -0.1560
 1554BOLB   C1D37293  17.221  25.238  13.235 -0.0620 -0.1060 -0.1642
 1554BOLB   C2D37294  16.931  25.090  13.033  0.2198 -0.1056  0.2060
 1554BOLB   C3D37295  16.865  24.971  12.599 -0.1912  0.1557 -0.0424
 1554BOLB   C4D37296  16.916  25.122  12.214 -0.2520  0.0273  0.1512
 1555BOLB   NC137297   8.249  28.469  13.044 -0.0966 -0.2604 -0.0481
 1555BOLB   PO137298   7.867  28.629  12.866 -0.0595  0.2623  0.3940
 1555BOLB   GL137299   7.607  28.966  13.059  0.2192  0.2146  0.0301
 1555BOLB   GL237300   7.333  28.970  13.235  0.0606 -0.2257 -0.4079
 1555BOLB   C1A37301   7.505  29.383  13.149 -0.2175 -0.0965 -0.0481
 1555BOLB   C2A37302   7.492  29.897  13.088 -0.2848 -0.1483 -0.2304
 1555BOLB   C3A37303   7.227  30.296  13.120  0.3222 -0.0362  0.0180
 1555BOLB   C4A37304   7.281  30.696  13.370 -0.2545  0.3542  0.2419
 1555BOLB   C1B37305   7.062  29.332  13.347  0.1519  0.4319 -0.0463
 1555BOLB   C2B37306   7.060  29.759  13.363  0.1229  0.0567  0.0068
 1555BOLB   C3B37307   6.899  30.243  13.495  0.3858 -0.1045  0.0819
 1555BOLB   C4B37308   6.929  30.547  13.715 -0.1751  0.0953 -0.0495
 1555BOLB   NC237309   7.689  33.245  13.526  0.0437  0.0653 -0.0502
 1555BOLB   PO237310   7.902  32.933  13.748  0.1067  0.4437  0.1654
 1555BOLB   GL337311   7.818  32.590  13.932 -0.4473  0.1584 -0.1500
 1555BOLB   GL437312   7.705  32.479  14.285  0.2107  0.4910  0.3794
 1555BOLB   C1C37313   7.694  32.271  13.731 -0.0357  0.1502 -0.2347
 1555BOLB   C2C37314   7.684  31.910  13.597  0.0429  0.1645  0.2955
 1555BOLB   C3C37315   7.711  31.523  13.506  0.2244  0.0981  0.0864
 1555BOLB   C4C37316   7.591  31.096  13.407 -0.1223  0.1467  0.3709
 1555BOLB   C1D37317   7.336  32.326  14.127  0.1604 -0.0473 -0.2112
 1555BOLB   C2D37318   7.081  32.032  13.950 -0.2875 -0.0698 -0.4222
 1555BOLB   C3D37319   7.190  31.678  13.849 -0.0195  0.0267 -0.4175
 1555BOLB   C4D37320   7.171  31.187  13.717 -0.0725  0.0652 -0.0739
 1556BOLB   NC137321   6.460  20.926   2.269 -0.3279  0.1407 -0.3722
 1556BOLB   PO137322   6.093  20.739   2.344  0.1560 -0.2256  0.0771
 1556BOLB   GL137323   5.972  20.956   1.942 -0.0030 -0.1379  0.2042
 1556BOLB   GL237324   6.228  21.041   1.820 -0.1168  0.0924  0.3398
 1556BOLB   C1A37325   5.830  21.278   1.541 -0.0872 -0.1829  0.1882
 1556BOLB   C2A37326   5.889  21.167   1.191  0.0091 -0.0150 -0.1436
 1556BOLB   C3A37327   6.021  21.135   0.776  0.2777 -0.0224 -0.3842
 1556BOLB   C4A37328   6.167  21.106   0.377 -0.0318 -0.0595  0.4387
 1556BOLB   C1B37329   6.310  21.294   1.378  0.0598  0.0881  0.2310
 1556BOLB   C2B37330   6.339  21.494   0.934 -0.2722  0.0955  0.3765
 1556BOLB   C3B37331   6.232  21.779   0.570 -0.2484  0.1470 -0.0042
 1556BOLB   C4B37332   5.820  21.948   0.532  0.1120  0.1198 -0.1904
 1556BOLB   NC237333   6.699  21.986  -1.678 -0.0569  0.1937  0.0673
 1556BOLB   PO237334   6.423  22.175  -1.937 -0.2009 -0.1763 -0.1276
 1556BOLB   GL337335   6.269  22.232  -1.483  0.2451 -0.1199  0.1157
 1556BOLB   GL437336   6.149  22.062  -1.457  0.1839 -0.2295 -0.1366
 1556BOLB   C1C37337   6.521  22.083  -1.110  0.0964  0.0154  0.1381
 1556BOLB   C2C37338   6.446  21.921  -0.695  0.0632 -0.0004  0.2177
 1556BOLB   C3C37339   6.353  21.776  -0.269  0.1150  0.0501 -0.0466
 1556BOLB   C4C37340   6.291  21.535   0.163  0.2553  0.2633  0.1017
 1556BOLB   C1D37341   6.050  22.085  -0.965  0.0564  0.0647 -0.1242
 1556BOLB   C2D37342   5.962  22.148  -0.508  0.0328 -0.1444 -0.0059
 1556BOLB   C3D37343   5.662  21.934  -0.298  0.1591  0.1062 -0.1531
 1556BOLB   C4D37344   5.333  21.726  -0.254 -0.0005 -0.1374 -0.0624
 1557BOLB   NC137345   5.867  13.791   5.832  0.0684  0.2455 -0.0668
 1557BOLB   PO137346   5.920  13.347   5.659 -0.1048  0.0724  0.2037
 1557BOLB   GL137347   5.701  12.959   5.674  0.1265  0.2180 -0.1561
 1557BOLB   GL237348   5.354  13.055   5.736 -0.1762  0.1259 -0.2194
 1557BOLB   C1A37349   5.589  12.576   5.679 -0.1068  0.1802 -0.0689
 1557BOLB   C2A37350   5.808  12.281   5.384 -0.1641  0.1891 -0.0505
 1557BOLB   C3A37351   6.066  11.943   5.205 -0.0517 -0.1201  0.0017
 1557BOLB   C4A37352   6.180  11.634   4.997  0.3328 -0.1554 -0.2125
 1557BOLB   C1B37353   5.138  12.726   5.589  0.2334  0.2552 -0.0983
 1557BOLB   C2B37354   5.066  12.344   5.596 -0.1672 -0.0212  0.1632
 1557BOLB   C3B37355   4.798  12.030   5.473  0.0446  0.0065 -0.0501
 1557BOLB   C4B37356   4.629  11.761   5.661  0.1660  0.1169  0.3562
 1557BOLB   NC237357   5.040   9.908   4.220  0.0592  0.0150 -0.0715
 1557BOLB   PO237358   5.052  10.112   3.851 -0.0966  0.7049  0.2190
 1557BOLB   GL337359   5.240  10.386   4.107 -0.1632  0.1742  0.0226
 1557BOLB   GL437360   5.108  10.697   4.095 -0.0024  0.1973 -0.1533
 1557BOLB   C1C37361   5.624  10.616   4.240  0.0037  0.5382 -0.0799
 1557BOLB   C2C37362   5.948  10.690   4.563  0.4103 -0.1321  0.0647
 1557BOLB   C3C37363   6.053  11.075   4.677 -0.1302 -0.0389  0.0835
 1557BOLB   C4C37364   6.118  11.402   4.643 -0.1197 -0.1879  0.3335
 1557BOLB   C1D37365   5.274  10.998   4.232 -0.0250 -0.0351  0.0646
 1557BOLB   C2D37366   5.383  11.400   4.481  0.2982  0.0875  0.0441
 1557BOLB   C3D37367   5.728  11.756   4.631 -0.0155 -0.1048  0.0714
 1557BOLB   C4D37368   5.694  12.074   4.920  0.1427  0.2219 -0.0474
 1558BOLB   NC137369  38.080  25.151   7.919 -0.0193 -0.0168 -0.2429
 1558BOLB   PO137370  38.065  24.845   7.594 -0.0223  0.4954  0.1385
 1558BOLB   GL137371  37.656  25.008   7.736  0.1137 -0.1183  0.1905
 1558BOLB   GL237372  37.710  25.211   7.582  0.3819  0.0662 -0.2248
 1558BOLB   C1A37373  37.223  24.887   7.847 -0.1941  0.2217 -0.1032
 1558BOLB   C2A37374  36.849  25.003   7.739 -0.1364 -0.1637 -0.3382
 1558BOLB   C3A37375  36.433  25.233   7.771  0.0453  0.2524  0.0143
 1558BOLB   C4A37376  35.999  25.341   7.757 -0.2834 -0.1777 -0.0965
 1558BOLB   C1B37377  37.593  25.713   7.684  0.1360 -0.2688  0.0225
 1558BOLB   C2B37378  37.258  25.951   7.631 -0.0235  0.0631  0.1306
 1558BOLB   C3B37379  36.914  26.127   7.567  0.1425 -0.0469  0.0200
 1558BOLB   C4B37380  36.794  26.417   7.293 -0.0596  0.2214  0.1316
 1558BOLB   NC237381  33.993  26.951   7.959 -0.1207 -0.0628 -0.1677
 1558BOLB   PO237382  34.103  27.035   7.600 -0.1096 -0.1726 -0.1233
 1558BOLB   GL337383  34.428  26.734   7.746 -0.6873  0.1469  0.2268
 1558BOLB   GL437384  34.715  26.899   7.744  0.0411 -0.1267  0.1134
 1558BOLB   C1C37385  34.944  26.497   7.673  0.1945  0.0781 -0.2914
 1558BOLB   C2C37386  35.205  26.108   7.555  0.0823 -0.0036  0.3179
 1558BOLB   C3C37387  35.302  25.700   7.417 -0.0929  0.0445  0.0543
 1558BOLB   C4C37388  35.643  25.434   7.484 -0.0276  0.1988  0.4045
 1558BOLB   C1D37389  34.704  26.625   8.136 -0.3861  0.0360  0.2756
 1558BOLB   C2D37390  34.820  26.266   8.406  0.2849  0.2481 -0.1408
 1558BOLB   C3D37391  35.112  25.878   8.464 -0.1304 -0.3255 -0.3435
 1558BOLB   C4D37392  35.497  25.908   8.483 -0.1482 -0.3288 -0.0022
 1559BOLB   NC137393  32.992  26.439  11.652 -0.2925  0.1399  0.0935
 1559BOLB   PO137394  32.676  26.207  11.934  0.0834  0.0583 -0.2031
 1559BOLB   GL137395  32.661  25.861  11.738 -0.0259  0.0304  0.1490
 1559BOLB   GL237396  32.922  25.871  11.650 -0.2577  0.3404 -0.2759
 1559BOLB   C1A37397  32.543  25.417  11.785  0.1288 -0.0855 -0.1868
 1559BOLB   C2A37398  32.441  24.858  11.827 -0.1884  0.1330 -0.3270
 1559BOLB   C3A37399  32.245  24.510  11.924 -0.1302 -0.1824 -0.0676
 1559BOLB   C4A37400  32.034  24.188  11.917  0.2314  0.1603 -0.1205
 1559BOLB   C1B37401  33.442  25.785  11.649  0.0236 -0.2945  0.0098
 1559BOLB   C2B37402  33.672  25.668  11.891 -0.4316  0.0883  0.0135
 1559BOLB   C3B37403  33.897  25.360  12.194 -0.1612  0.0171  0.4549
 1559BOLB   C4B37404  34.247  25.097  12.199  0.3540 -0.1651  0.0068
 1559BOLB   NC237405  30.071  24.205  13.008 -0.0396 -0.0293  0.0622
 1559BOLB   PO237406  29.996  24.027  12.729 -0.0180 -0.1703 -0.1321
 1559BOLB   GL337407  30.311  23.719  12.755 -0.0868  0.1271 -0.3882
 1559BOLB   GL437408  30.352  23.427  13.012  0.2565 -0.0763  0.1064
 1559BOLB   C1C37409  30.765  23.720  12.749 -0.2261 -0.1689 -0.0747
 1559BOLB   C2C37410  31.188  23.633  12.510 -0.3528 -0.0063 -0.1230
 1559BOLB   C3C37411  31.390  23.709  12.179  0.2198 -0.1724  0.1533
 1559BOLB   C4C37412  31.736  23.833  12.050  0.3891 -0.0521  0.0225
 1559BOLB   C1D37413  30.757  23.481  13.161 -0.2468 -0.3260  0.1232
 1559BOLB   C2D37414  31.140  23.342  13.084 -0.0780  0.2449 -0.1115
 1559BOLB   C3D37415  31.495  23.150  13.252  0.2404  0.0863  0.1915
 1559BOLB   C4D37416  31.915  23.153  13.515 -0.2281 -0.1272 -0.0160
 1560BOLB   NC137417  34.679  10.456   4.492 -0.1747 -0.1234  0.2108
 1560BOLB   PO137418  34.776  10.656   4.220  0.2390  0.1390 -0.2681
 1560BOLB   GL137419  34.871  11.163   4.274 -0.0331 -0.0919  0.1194
 1560BOLB   GL237420  34.948  11.247   4.033  0.2055  0.1366  0.0401
 1560BOLB   C1A37421  34.971  11.610   4.372 -0.0971  0.0193  0.0740
 1560BOLB   C2A37422  35.337  11.916   4.402  0.1226 -0.0184  0.0942
 1560BOLB   C3A37423  35.546  12.264   4.570  0.0922  0.2057 -0.3650
 1560BOLB   C4A37424  35.756  12.685   4.682 -0.1184 -0.1843 -0.0065
 1560BOLB   C1B37425  35.130  11.654   3.862 -0.5211  0.0019 -0.0105
 1560BOLB   C2B37426  35.267  12.063   3.923 -0.0462  0.0683  0.2464
 1560BOLB   C3B37427  35.604  12.478   3.928 -0.1264  0.1915 -0.3008
 1560BOLB   C4B37428  35.881  12.766   3.931  0.0551  0.0424  0.2510
 1560BOLB   NC237429  33.471  11.919   5.349  0.2799 -0.2426 -0.3308
 1560BOLB   PO237430  33.385  12.052   4.920 -0.0896  0.2428 -0.1512
 1560BOLB   GL337431  33.717  12.252   4.775 -0.2151  0.1348 -0.2180
 1560BOLB   GL437432  33.500  12.618   4.871 -0.0618 -0.2563 -0.2160
 1560BOLB   C1C37433  34.136  12.472   4.577 -0.1819  0.0898  0.2633
 1560BOLB   C2C37434  34.566  12.571   4.583 -0.3561  0.1802 -0.1038
 1560BOLB   C3C37435  34.992  12.930   4.556  0.1459 -0.0710  0.1464
 1560BOLB   C4C37436  35.401  13.016   4.610 -0.1464  0.0752 -0.1485
 1560BOLB   C1D37437  33.663  12.821   4.628  0.2121  0.0386 -0.0155
 1560BOLB   C2D37438  34.010  13.007   4.742  0.0353  0.4170  0.0424
 1560BOLB   C3D37439  34.181  13.279   5.085  0.2092  0.0954  0.1482
 1560BOLB   C4D37440  34.535  13.476   5.410  0.0669 -0.0247  0.0761
 1561BOLB   NC137441   2.503  25.766  15.597 -0.2174  0.0822  0.2390
 1561BOLB   PO137442   2.652  25.426  15.843  0.2525 -0.0539  0.1912
 1561BOLB   GL137443   2.490  25.757  16.156 -0.0314  0.0306  0.0130
 1561BOLB   GL237444   2.570  25.843  16.395 -0.1239  0.0413  0.0900
 1561BOLB   C1A37445   2.195  26.015  16.110  0.0413  0.0567  0.2200
 1561BOLB   C2A37446   2.013  26.093  16.404 -0.1329  0.0551  0.3008
 1561BOLB   C3A37447   1.909  26.454  16.459  0.1210 -0.0661  0.0070
 1561BOLB   C4A37448   1.710  26.659  16.762  0.0897 -0.0479  0.3141
 1561BOLB   C1B37449   2.558  25.822  16.869  0.2076  0.3726  0.0348
 1561BOLB   C2B37450   2.402  25.976  17.269 -0.1382 -0.0581 -0.1462
 1561BOLB   C3B37451   2.483  26.153  17.672  0.0508 -0.0690  0.0786
 1561BOLB   C4B37452   2.546  26.095  18.175  0.0779  0.0426  0.1224
 1561BOLB   NC237453   0.479  29.114  17.352 -0.1870  0.0458  0.0093
 1561BOLB   PO237454   0.247  28.735  17.535  0.1453 -0.3549  0.0464
 1561BOLB   GL337455   0.404  28.297  17.366 -0.1432  0.3236  0.1528
 1561BOLB   GL437456   0.206  28.041  17.182 -0.2101  0.1802 -0.0634
 1561BOLB   C1C37457   0.720  28.075  17.239 -0.0882 -0.5479 -0.1858
 1561BOLB   C2C37458   1.054  27.623  17.109  0.2873 -0.1778  0.4738
 1561BOLB   C3C37459   1.415  27.472  16.902 -0.0577  0.0770  0.2437
 1561BOLB   C4C37460   1.641  27.112  16.818 -0.1734 -0.0345  0.2637
 1561BOLB   C1D37461   0.421  27.815  16.912  0.0374 -0.0641 -0.4559
 1561BOLB   C2D37462   0.575  27.579  16.542 -0.0738 -0.1344 -0.0675
 1561BOLB   C3D37463   0.731  27.389  16.175  0.2333  0.0142  0.3565
 1561BOLB   C4D37464   0.738  27.354  15.758 -0.2281  0.0116 -0.0440
 1562BOLB   NC137465   8.506  28.577  10.966  0.1918 -0.1160  0.0794
 1562BOLB   PO137466   8.305  28.907  11.003 -0.3678 -0.3463  0.1758
 1562BOLB   GL137467   8.630  29.292  10.764 -0.1668  0.1074  0.1146
 1562BOLB   GL237468   8.478  29.514  10.631 -0.3361  0.0482  0.0759
 1562BOLB   C1A37469   9.033  29.522  10.664  0.2716 -0.1106  0.0479
 1562BOLB   C2A37470   9.302  29.686  10.507 -0.0210 -0.1484 -0.1070
 1562BOLB   C3A37471   9.550  30.060  10.556  0.0913 -0.0289  0.1859
 1562BOLB   C4A37472   9.870  30.305  10.832  0.3227 -0.0075 -0.4109
 1562BOLB   C1B37473   8.688  29.881  10.627 -0.0299 -0.3319 -0.1287
 1562BOLB   C2B37474   8.618  30.286  10.377 -0.1680 -0.2087 -0.1650
 1562BOLB   C3B37475   8.223  30.268  10.181 -0.0785  0.3711  0.2601
 1562BOLB   C4B37476   7.937  30.134  10.065 -0.1307  0.3071  0.1062
 1562BOLB   NC237477  11.323  32.628  11.079 -0.3095 -0.0149 -0.2199
 1562BOLB   PO237478  10.910  32.384  11.031  0.2706 -0.1705 -0.2967
 1562BOLB   GL337479  10.901  31.969  11.074 -0.1452 -0.3225 -0.1275
 1562BOLB   GL437480  10.661  31.977  10.798  0.2681 -0.1864 -0.3358
 1562BOLB   C1C37481  10.858  31.569  11.294  0.0691  0.0500 -0.3344
 1562BOLB   C2C37482  10.756  31.128  11.219  0.4447  0.1154  0.1970
 1562BOLB   C3C37483  10.521  30.802  10.980 -0.0501  0.4117  0.1866
 1562BOLB   C4C37484  10.209  30.496  10.926 -0.1076  0.0589  0.4302
 1562BOLB   C1D37485  10.270  31.743  10.826 -0.1537  0.0053  0.0938
 1562BOLB   C2D37486   9.860  31.448  10.831 -0.0518 -0.1015 -0.3097
 1562BOLB   C3D37487   9.536  31.105  10.575 -0.0618 -0.0781 -0.0548
 1562BOLB   C4D37488   9.291  31.135  10.209  0.1027  0.0255  0.2298
 1563BOLB   NC137489   6.574  28.638  13.562  0.0707 -0.1116 -0.3342
 1563BOLB   PO137490   6.917  28.555  13.808 -0.0925  0.0680 -0.1184
 1563BOLB   GL137491   7.082  28.961  13.774  0.0023  0.0983 -0.0836
 1563BOLB   GL237492   7.474  28.956  13.691  0.0363  0.0240  0.0640
 1563BOLB   C1A37493   7.264  29.421  13.783 -0.1781  0.2869 -0.1725
 1563BOLB   C2A37494   7.544  29.738  13.692  0.2543 -0.0017  0.0402
 1563BOLB   C3A37495   7.642  30.063  13.975 -0.0304 -0.2133 -0.1889
 1563BOLB   C4A37496   7.708  30.451  13.988 -0.1864 -0.0113  0.1592
 1563BOLB   C1B37497   7.812  29.289  13.671  0.0585  0.3822 -0.0006
 1563BOLB   C2B37498   7.891  29.651  13.357 -0.2181 -0.2186  0.1218
 1563BOLB   C3B37499   7.985  29.988  13.138 -0.1825 -0.0416 -0.0596
 1563BOLB   C4B37500   8.196  30.336  13.004 -0.0842 -0.2496 -0.1173
 1563BOLB   NC237501   8.437  32.185  15.445  0.0652  0.0021  0.3247
 1563BOLB   PO237502   8.016  32.210  15.230  0.0267  0.3978  0.1586
 1563BOLB   GL337503   7.697  31.949  15.050 -0.0706 -0.0029 -0.1198
 1563BOLB   GL437504   7.806  31.688  15.096  0.3108  0.5613  0.1983
 1563BOLB   C1C37505   7.511  31.665  14.698  0.3227  0.1827 -0.1338
 1563BOLB   C2C37506   7.727  31.327  14.450 -0.3341  0.0289 -0.1985
 1563BOLB   C3C37507   7.973  31.066  14.269  0.0689  0.0249 -0.2967
 1563BOLB   C4C37508   8.017  30.717  14.141 -0.0917 -0.0102 -0.2125
 1563BOLB   C1D37509   7.675  31.268  15.117 -0.1251  0.1112 -0.0001
 1563BOLB   C2D37510   7.606  30.767  15.078 -0.2759 -0.0488 -0.1311
 1563BOLB   C3D37511   7.369  30.404  15.172 -0.2787 -0.0877 -0.1159
 1563BOLB   C4D37512   7.206  30.143  15.457  0.0447 -0.2229  0.0898
 1564BOLB   NC137513  36.452  29.258  10.306  0.1872  0.1683  0.0723
 1564BOLB   PO137514  36.184  29.522  10.609 -0.1835  0.3374 -0.2300
 1564BOLB   GL137515  36.502  29.349  10.907  0.2988 -0.1632  0.1165
 1564BOLB   GL237516  36.398  29.104  10.838 -0.0534  0.1161 -0.1435
 1564BOLB   C1A37517  36.896  29.201  11.164 -0.1936  0.0349  0.0300
 1564BOLB   C2A37518  37.362  29.116  11.437 -0.2436  0.2455  0.0106
 1564BOLB   C3A37519  37.581  28.865  11.668  0.0044 -0.0450  0.1065
 1564BOLB   C4A37520  37.709  28.501  11.785 -0.1576  0.1907 -0.0368
 1564BOLB   C1B37521  36.719  28.888  10.835  0.1793  0.0074  0.2352
 1564BOLB   C2B37522  37.036  28.489  10.700 -0.1180 -0.1941  0.1330
 1564BOLB   C3B37523  37.434  28.290  10.978  0.0850  0.0957  0.0269
 1564BOLB   C4B37524  37.797  28.034  10.874  0.3768 -0.0058  0.0956
 1564BOLB   NC237525  39.165  26.697  11.600 -0.2312  0.0299 -0.3554
 1564BOLB   PO237526  39.087  26.785  11.132 -0.0660  0.1106 -0.1449
 1564BOLB   GL337527  38.876  27.130  11.167 -0.0140  0.0400  0.0593
 1564BOLB   GL437528  38.802  27.408  10.977 -0.0378  0.1682 -0.2017
 1564BOLB   C1C37529  38.580  27.318  11.439 -0.0105  0.1348  0.0852
 1564BOLB   C2C37530  38.360  27.567  11.618 -0.0328 -0.5290 -0.0782
 1564BOLB   C3C37531  38.138  27.897  11.756 -0.0528 -0.1250  0.2645
 1564BOLB   C4C37532  37.823  28.134  11.885 -0.2093  0.2333  0.0267
 1564BOLB   C1D37533  38.603  27.755  11.012 -0.0713 -0.3904  0.2314
 1564BOLB   C2D37534  38.460  28.135  10.900 -0.4381 -0.0909 -0.0973
 1564BOLB   C3D37535  38.193  28.558  10.925 -0.1656  0.1371  0.1708
 1564BOLB   C4D37536  38.265  28.928  11.198 -0.1063  0.0283 -0.3085
 1565BOLB   NC137537  14.206  18.419   7.171  0.0626 -0.3077  0.0027
 1565BOLB   PO137538  14.152  17.999   6.971  0.3667 -0.2897 -0.0781
 1565BOLB   GL137539  14.458  17.695   6.842  0.1933 -0.1027 -0.1934
 1565BOLB   GL237540  14.433  17.607   6.473 -0.0663 -0.1038  0.3178
 1565BOLB   C1A37541  14.513  17.229   7.130  0.0863 -0.0741 -0.1906
 1565BOLB   C2A37542  14.640  16.863   7.232 -0.0344 -0.1693  0.0625
 1565BOLB   C3A37543  15.042  16.733   7.089 -0.1659  0.1267 -0.1606
 1565BOLB   C4A37544  15.229  16.497   6.839 -0.4338  0.0530  0.0340
 1565BOLB   C1B37545  14.884  17.504   6.389 -0.2457 -0.1356 -0.2941
 1565BOLB   C2B37546  14.991  17.122   6.292 -0.0216 -0.2106  0.0753
 1565BOLB   C3B37547  15.206  16.812   6.413  0.0857 -0.1948  0.3458
 1565BOLB   C4B37548  15.115  16.356   6.331 -0.4775  0.0924 -0.1167
 1565BOLB   NC237549  17.071  15.378   6.432 -0.2293 -0.0485 -0.1044
 1565BOLB   PO237550  17.027  15.662   6.036  0.1476  0.2141  0.0716
 1565BOLB   GL337551  16.743  15.821   6.279  0.2393  0.1687  0.2297
 1565BOLB   GL437552  16.786  15.905   6.693  0.1420 -0.2685 -0.2566
 1565BOLB   C1C37553  16.332  15.831   6.415  0.2433  0.1807  0.0043
 1565BOLB   C2C37554  16.203  15.936   6.714 -0.4536 -0.1293 -0.0181
 1565BOLB   C3C37555  15.969  16.160   7.043 -0.1683  0.0450  0.1473
 1565BOLB   C4C37556  15.571  16.213   7.030 -0.1808 -0.0269  0.1877
 1565BOLB   C1D37557  16.563  16.312   6.800  0.1480 -0.2199 -0.0154
 1565BOLB   C2D37558  16.160  16.452   6.624  0.2857 -0.1982  0.2011
 1565BOLB   C3D37559  15.690  16.474   6.438 -0.4138 -0.3776  0.1134
 1565BOLB   C4D37560  15.673  16.877   6.154  0.2957 -0.0614  0.0969
 1566BOLB   NC137561   8.908  22.725   2.922  0.3034  0.5712  0.1036
 1566BOLB   PO137562   9.060  22.349   2.732 -0.0252 -0.2830 -0.0831
 1566BOLB   GL137563   9.106  22.745   2.443 -0.2159  0.0233  0.1102
 1566BOLB   GL237564   8.839  22.970   2.473  0.0446  0.0076 -0.1604
 1566BOLB   C1A37565   9.062  23.004   2.044  0.0247  0.0515  0.2438
 1566BOLB   C2A37566   9.286  23.019   1.573  0.0168  0.0575  0.3299
 1566BOLB   C3A37567   9.228  23.108   1.235  0.1095  0.1149 -0.0547
 1566BOLB   C4A37568   9.231  23.513   1.073 -0.0986  0.0962 -0.3871
 1566BOLB   C1B37569   8.601  22.879   2.131 -0.3255  0.0517  0.3102
 1566BOLB   C2B37570   8.660  23.022   1.704 -0.1711  0.1802  0.1321
 1566BOLB   C3B37571   8.859  23.366   1.522 -0.1151  0.0146 -0.1371
 1566BOLB   C4B37572   8.967  23.738   1.409 -0.0895 -0.1612 -0.5256
 1566BOLB   NC237573   7.589  24.503  -1.228  0.0094  0.0750  0.1375
 1566BOLB   PO237574   7.920  24.806  -0.905  0.2195  0.2428  0.1916
 1566BOLB   GL337575   8.195  24.589  -0.488  0.1155 -0.1130  0.0809
 1566BOLB   GL437576   8.573  24.616  -0.467 -0.1659  0.0669  0.0104
 1566BOLB   C1C37577   8.235  24.150  -0.247 -0.3655  0.0011 -0.2008
 1566BOLB   C2C37578   8.553  23.932   0.043  0.2790 -0.1763  0.1642
 1566BOLB   C3C37579   8.908  23.916   0.368 -0.1980  0.2170  0.3269
 1566BOLB   C4C37580   9.141  23.813   0.779  0.1607  0.2264  0.0292
 1566BOLB   C1D37581   8.472  24.564  -0.002 -0.2601 -0.1151  0.1755
 1566BOLB   C2D37582   8.425  24.293   0.335  0.2944 -0.1696  0.2363
 1566BOLB   C3D37583   8.408  24.039   0.618  0.0977  0.2850 -0.2239
 1566BOLB   C4D37584   8.582  23.694   0.704 -0.4109  0.4646 -0.4073
 1567BOLB   NC137585  14.816  18.862   6.951 -0.2037 -0.2689  0.1303
 1567BOLB   PO137586  14.612  18.401   6.831 -0.0819  0.0147 -0.1463
 1567BOLB   GL137587  14.885  18.060   6.875  0.0366 -0.4795 -0.1169
 1567BOLB   GL237588  15.120  17.900   7.090 -0.3368  0.0713  0.1411
 1567BOLB   C1A37589  15.168  17.833   6.598 -0.0340 -0.1941 -0.0821
 1567BOLB   C2A37590  15.526  17.809   6.495  0.2138  0.0085  0.3373
 1567BOLB   C3A37591  15.836  17.551   6.491  0.0367 -0.0323 -0.2678
 1567BOLB   C4A37592  15.989  17.429   6.807 -0.0213 -0.1273  0.3471
 1567BOLB   C1B37593  14.885  17.555   7.018  0.2730 -0.2373 -0.1910
 1567BOLB   C2B37594  14.977  17.172   6.877  0.0555 -0.2476  0.2629
 1567BOLB   C3B37595  15.302  17.020   6.807 -0.0438  0.0167 -0.0121
 1567BOLB   C4B37596  15.626  16.853   6.977 -0.0196  0.0669  0.1831
 1567BOLB   NC237597  18.267  15.895   7.061 -0.0492  0.1902  0.1616
 1567BOLB   PO237598  18.030  16.139   7.369 -0.1859 -0.1812  0.1013
 1567BOLB   GL337599  17.777  16.368   7.050 -0.1276  0.0295  0.1509
 1567BOLB   GL437600  17.692  16.426   6.704 -0.0472  0.1020 -0.2823
 1567BOLB   C1C37601  17.368  16.562   7.106 -0.3542 -0.0062 -0.0634
 1567BOLB   C2C37602  17.019  16.768   6.997  0.0177 -0.0376  0.2586
 1567BOLB   C3C37603  16.762  17.183   6.944  0.0397  0.0278 -0.1524
 1567BOLB   C4C37604  16.444  17.419   6.973 -0.2909  0.0353  0.1694
 1567BOLB   C1D37605  17.288  16.467   6.596  0.0229 -0.2925  0.1994
 1567BOLB   C2D37606  16.884  16.393   6.286  0.0886  0.0766  0.2643
 1567BOLB   C3D37607  16.395  16.262   6.214 -0.0662  0.1105  0.0537
 1567BOLB   C4D37608  16.024  16.261   6.086 -0.0164  0.0718 -0.1159
 1568BOLB   NC137609   6.028  27.605   6.034  0.0477  0.1163 -0.2035
 1568BOLB   PO137610   6.463  27.731   6.101  0.3478  0.1972  0.2533
 1568BOLB   GL137611   6.515  28.106   5.910 -0.0317  0.0274  0.1199
 1568BOLB   GL237612   6.199  28.202   5.792 -0.1955 -0.2129 -0.0679
 1568BOLB   C1A37613   6.731  28.360   5.767 -0.0228 -0.0076  0.2383
 1568BOLB   C2A37614   6.840  28.656   5.675  0.0115 -0.0300  0.0581
 1568BOLB   C3A37615   6.937  29.011   5.528  0.1755  0.1323 -0.2214
 1568BOLB   C4A37616   6.694  29.337   5.284  0.0343 -0.0519  0.1118
 1568BOLB   C1B37617   6.348  28.297   5.472 -0.1084 -0.1018  0.2013
 1568BOLB   C2B37618   6.515  28.618   5.281 -0.1855  0.0972  0.0529
 1568BOLB   C3B37619   6.832  28.883   5.079  0.0904  0.1096  0.1643
 1568BOLB   C4B37620   7.104  29.056   4.860  0.0689  0.0226 -0.0954
 1568BOLB   NC237621   6.563  31.408   3.830 -0.0171 -0.1475 -0.0220
 1568BOLB   PO237622   6.191  31.544   4.096  0.0669  0.0348 -0.1913
 1568BOLB   GL337623   5.959  31.143   4.378 -0.0288  0.2577  0.0946
 1568BOLB   GL437624   5.639  31.155   4.705  0.0371  0.2243 -0.1243
 1568BOLB   C1C37625   6.001  30.746   4.715  0.0631  0.1604  0.1707
 1568BOLB   C2C37626   5.942  30.398   4.860 -0.3075 -0.4198 -0.0257
 1568BOLB   C3C37627   6.165  30.126   4.970  0.0987  0.3072  0.1405
 1568BOLB   C4C37628   6.369  29.678   5.152  0.0767 -0.0520 -0.2215
 1568BOLB   C1D37629   5.893  31.244   4.998  0.0096 -0.0728 -0.5265
 1568BOLB   C2D37630   6.267  31.146   4.845 -0.2895 -0.0188  0.4600
 1568BOLB   C3D37631   6.438  31.004   4.476  0.0525 -0.2966 -0.0398
 1568BOLB   C4D37632   6.274  30.510   4.391 -0.1382  0.3537  0.3300
 1569BOLB   NC137633   2.771  29.911   3.161  0.1291 -0.1721  0.2997
 1569BOLB   PO137634   2.452  29.666   3.058 -0.2809 -0.0048 -0.2690
 1569BOLB   GL137635   2.342  29.245   3.264 -0.0772  0.0443 -0.0198
 1569BOLB   GL237636   2.122  29.113   3.453  0.3714 -0.2931 -0.3423
 1569BOLB   C1A37637   2.565  28.936   3.405 -0.0788  0.1912 -0.0570
 1569BOLB   C2A37638   2.374  28.653   3.463 -0.1161 -0.0038  0.2086
 1569BOLB   C3A37639   2.418  28.342   3.601 -0.1038  0.1727 -0.1897
 1569BOLB   C4A37640   2.600  28.039   3.843 -0.0566 -0.0093 -0.2757
 1569BOLB   C1B37641   2.168  28.903   3.821  0.2431 -0.2386  0.1043
 1569BOLB   C2B37642   2.104  29.073   4.217  0.0218  0.1210 -0.1731
 1569BOLB   C3B37643   1.808  29.204   4.609 -0.0410  0.0639  0.0867
 1569BOLB   C4B37644   1.401  29.282   4.841 -0.0475 -0.0390  0.1268
 1569BOLB   NC237645   2.785  26.359   6.085 -0.1612  0.1394  0.0672
 1569BOLB   PO237646   2.965  26.412   5.670  0.1333  0.1860  0.0105
 1569BOLB   GL337647   2.947  26.664   5.330  0.1338  0.2572  0.0278
 1569BOLB   GL437648   2.786  26.379   5.012 -0.3142 -0.0569  0.2167
 1569BOLB   C1C37649   2.812  26.915   5.048  0.0851  0.1288  0.0251
 1569BOLB   C2C37650   2.671  27.324   4.853  0.2506  0.2115 -0.1368
 1569BOLB   C3C37651   2.750  27.471   4.481  0.0165  0.2184 -0.0575
 1569BOLB   C4C37652   2.625  27.710   4.080 -0.3289  0.1705 -0.1991
 1569BOLB   C1D37653   2.539  26.531   4.862 -0.2413  0.2602  0.2292
 1569BOLB   C2D37654   2.399  26.526   4.359 -0.0834  0.2880 -0.1016
 1569BOLB   C3D37655   2.452  26.732   4.048 -0.2113 -0.0702 -0.0958
 1569BOLB   C4D37656   2.143  26.571   3.689 -0.0496  0.0872 -0.0785
 1570BOLB   NC137657   8.328  27.245  15.351 -0.3467  0.0705  0.3035
 1570BOLB   PO137658   8.112  27.595  15.430 -0.3402  0.1948  0.3492
 1570BOLB   GL137659   8.261  27.984  15.323 -0.0971 -0.2113 -0.2795
 1570BOLB   GL237660   7.964  28.100  15.149  0.2623  0.2861  0.0379
 1570BOLB   C1A37661   8.396  28.277  15.656  0.3236 -0.0011 -0.0113
 1570BOLB   C2A37662   8.558  28.789  15.761  0.0629  0.1410 -0.1909
 1570BOLB   C3A37663   8.681  29.074  15.699 -0.1014 -0.0144  0.0967
 1570BOLB   C4A37664   9.008  29.509  15.692  0.1925  0.0571 -0.0944
 1570BOLB   C1B37665   7.991  28.491  15.451  0.3595 -0.0964 -0.1995
 1570BOLB   C2B37666   8.075  28.758  15.758  0.0845 -0.1156 -0.3417
 1570BOLB   C3B37667   8.223  29.142  15.886  0.1740  0.1460 -0.2404
 1570BOLB   C4B37668   8.181  29.536  16.177  0.5520  0.0256  0.3086
 1570BOLB   NC237669  10.948  30.836  16.990 -0.1258  0.0049 -0.3457
 1570BOLB   PO237670  10.587  30.956  16.772  0.1853  0.0302  0.0694
 1570BOLB   GL337671  10.628  30.551  16.487  0.3150  0.2839 -0.0610
 1570BOLB   GL437672  10.921  30.344  16.655  0.1589  0.3567 -0.2153
 1570BOLB   C1C37673  10.197  30.300  16.415 -0.2501 -0.0033 -0.0827
 1570BOLB   C2C37674   9.816  30.196  16.503 -0.1204 -0.2122 -0.0953
 1570BOLB   C3C37675   9.530  29.987  16.211 -0.1742  0.1157  0.1142
 1570BOLB   C4C37676   9.134  29.922  15.873 -0.2626  0.1599  0.0056
 1570BOLB   C1D37677  10.767  29.948  16.490 -0.2824  0.4874 -0.2168
 1570BOLB   C2D37678  10.478  29.697  16.322  0.2393  0.2601  0.2604
 1570BOLB   C3D37679  10.044  29.750  16.393 -0.2440  0.3687 -0.1072
 1570BOLB   C4D37680   9.697  29.755  16.809 -0.1701  0.2430 -0.1401
 1571BOLB   NC137681   1.057  26.493  12.469  0.2635 -0.2813  0.1723
 1571BOLB   PO137682   1.065  26.798  12.112  0.2359 -0.2024 -0.1087
 1571BOLB   GL137683   0.836  27.103  11.841  0.1764 -0.3206 -0.0522
 1571BOLB   GL237684   0.561  27.251  11.741  0.2430  0.1512 -0.2442
 1571BOLB   C1A37685   0.822  27.646  11.896  0.0895  0.1447 -0.0849
 1571BOLB   C2A37686   0.712  28.072  12.071 -0.1484 -0.0237  0.1348
 1571BOLB   C3A37687   0.659  28.499  12.248 -0.0277  0.0395  0.0039
 1571BOLB   C4A37688   0.600  28.938  12.469  0.0620  0.1863  0.1738
 1571BOLB   C1B37689   0.399  27.398  12.008 -0.0931  0.1037  0.0846
 1571BOLB   C2B37690   0.083  27.620  12.081 -0.0826 -0.2505  0.3048
 1571BOLB   C3B37691  -0.223  27.897  12.251 -0.0633 -0.2951  0.1037
 1571BOLB   C4B37692  -0.367  28.285  12.452 -0.0210  0.1396  0.0639
 1571BOLB   NC237693  -0.786  31.250  11.783 -0.0200  0.1945 -0.0634
 1571BOLB   PO237694  -0.440  31.027  12.129 -0.0672  0.1401  0.0731
 1571BOLB   GL337695  -0.098  30.689  11.980 -0.0547  0.0297 -0.0148
 1571BOLB   GL437696  -0.198  30.399  11.888 -0.2795  0.2200  0.0034
 1571BOLB   C1C37697   0.263  30.492  12.193  0.0066  0.0892 -0.1292
 1571BOLB   C2C37698   0.482  30.149  12.436  0.1225 -0.4224 -0.0976
 1571BOLB   C3C37699   0.573  29.682  12.329 -0.1241  0.1787 -0.1851
 1571BOLB   C4C37700   0.585  29.239  12.468  0.1368  0.0201  0.3740
 1571BOLB   C1D37701   0.086  30.209  11.713 -0.2382  0.0006 -0.2554
 1571BOLB   C2D37702   0.426  29.957  11.773 -0.0022 -0.2370  0.3237
 1571BOLB   C3D37703   0.523  29.583  11.837  0.1059 -0.0890  0.3666
 1571BOLB   C4D37704   0.836  29.343  11.985  0.0063 -0.1389 -0.0341
 1572BOLB   NC137705   1.857  19.147   4.034 -0.0838  0.0692 -0.0431
 1572BOLB   PO137706   1.939  18.765   3.778  0.1275 -0.0133 -0.1203
 1572BOLB   GL137707   1.585  19.002   3.529 -0.0775 -0.2848  0.4209
 1572BOLB   GL237708   1.353  19.091   3.739  0.0540  0.0143  0.2575
 1572BOLB   C1A37709   1.363  19.076   3.189 -0.3214  0.2083  0.0689
 1572BOLB   C2A37710   1.228  19.002   2.733  0.1137 -0.0861  0.1932
 1572BOLB   C3A37711   1.129  19.057   2.371 -0.1233 -0.1906 -0.1702
 1572BOLB   C4A37712   1.055  19.098   1.880 -0.1014 -0.3540 -0.0461
 1572BOLB   C1B37713   1.141  18.761   3.683  0.0254  0.4103 -0.1680
 1572BOLB   C2B37714   1.146  18.546   3.330  0.0534 -0.4608 -0.0345
 1572BOLB   C3B37715   1.391  18.262   3.198  0.0358 -0.1580 -0.0875
 1572BOLB   C4B37716   1.607  17.993   2.972 -0.0606 -0.2243 -0.0493
 1572BOLB   NC237717  -0.138  18.814  -0.583  0.2663  0.1052  0.1711
 1572BOLB   PO237718   0.118  19.001  -0.263  0.1661  0.2800 -0.0001
 1572BOLB   GL337719   0.401  18.870   0.126  0.3240 -0.2009 -0.3318
 1572BOLB   GL437720   0.579  19.066   0.303 -0.1159  0.0206 -0.0616
 1572BOLB   C1C37721   0.464  18.704   0.538  0.1091  0.1665 -0.2217
 1572BOLB   C2C37722   0.678  18.548   0.837  0.1924 -0.3057 -0.2227
 1572BOLB   C3C37723   0.866  18.599   1.225 -0.3058 -0.0880  0.0038
 1572BOLB   C4C37724   1.153  18.961   1.437 -0.0465  0.1051  0.1577
 1572BOLB   C1D37725   0.909  18.833   0.442  0.1026 -0.0626 -0.1861
 1572BOLB   C2D37726   1.163  18.648   0.746 -0.2230 -0.0929 -0.3058
 1572BOLB   C3D37727   1.161  18.258   1.011  0.0623  0.1144 -0.2039
 1572BOLB   C4D37728   1.493  18.149   1.238  0.1989 -0.0044  0.0360
 1573BOLB   NC137729  13.136  20.112   3.973  0.3282 -0.1880  0.3398
 1573BOLB   PO137730  13.157  19.708   4.346  0.0835 -0.2410  0.1949
 1573BOLB   GL137731  13.322  19.684   3.900  0.3164 -0.0857 -0.2116
 1573BOLB   GL237732  13.063  19.542   3.647 -0.3177  0.2128 -0.1578
 1573BOLB   C1A37733  13.681  19.651   3.642 -0.4068 -0.3421 -0.1115
 1573BOLB   C2A37734  13.840  19.735   3.286  0.1020  0.0836 -0.3944
 1573BOLB   C3A37735  13.766  19.518   2.954 -0.1685  0.2337 -0.0750
 1573BOLB   C4A37736  13.849  19.445   2.599  0.1292 -0.1911 -0.3926
 1573BOLB   C1B37737  12.803  19.516   3.186  0.0436 -0.1507 -0.2574
 1573BOLB   C2B37738  12.804  19.179   2.929 -0.4251  0.0585  0.0865
 1573BOLB   C3B37739  13.130  18.830   2.917 -0.1528  0.0578  0.1469
 1573BOLB   C4B37740  13.587  18.992   2.937  0.0438  0.2011 -0.0401
 1573BOLB   NC237741  15.150  18.653   1.060 -0.0835  0.2256 -0.2137
 1573BOLB   PO237742  15.609  18.583   1.168  0.2397  0.1719 -0.1792
 1573BOLB   GL337743  15.271  18.579   1.527  0.2192 -0.0506 -0.0029
 1573BOLB   GL437744  15.047  18.332   1.432 -0.0041  0.0152 -0.1568
 1573BOLB   C1C37745  14.914  18.551   1.853  0.0898  0.2428 -0.2373
 1573BOLB   C2C37746  14.516  18.564   2.009  0.1029  0.2329 -0.2489
 1573BOLB   C3C37747  14.132  18.846   2.018 -0.1470  0.1734  0.2911
 1573BOLB   C4C37748  13.833  19.188   2.218  0.3735 -0.0398 -0.0799
 1573BOLB   C1D37749  14.612  18.398   1.431 -0.0176 -0.1834  0.1025
 1573BOLB   C2D37750  14.258  18.315   1.590  0.1191  0.1675  0.1849
 1573BOLB   C3D37751  13.839  18.445   1.680  0.0552 -0.1210  0.0001
 1573BOLB   C4D37752  13.654  18.673   2.039 -0.0607  0.0469 -0.0248
 1574BOLB   NC137753  12.065  19.642   3.280  0.1710 -0.3729  0.2098
 1574BOLB   PO137754  12.108  19.285   3.536  0.0599 -0.0602 -0.2717
 1574BOLB   GL137755  12.395  19.254   3.265  0.2963 -0.0948  0.0833
 1574BOLB   GL237756  12.203  19.084   3.059  0.4093  0.2431 -0.1381
 1574BOLB   C1A37757  12.424  19.545   2.823 -0.0730  0.1499  0.1740
 1574BOLB   C2A37758  12.726  19.487   2.533  0.0272 -0.2137 -0.0821
 1574BOLB   C3A37759  12.895  19.340   2.101 -0.3440  0.0004 -0.0517
 1574BOLB   C4A37760  12.732  19.094   1.843  0.1272  0.0319 -0.0160
 1574BOLB   C1B37761  12.461  19.006   2.660 -0.0155 -0.0596 -0.1284
 1574BOLB   C2B37762  12.970  18.978   2.462  0.0400  0.0636  0.1660
 1574BOLB   C3B37763  13.354  18.813   2.403 -0.0181  0.0654 -0.1645
 1574BOLB   C4B37764  13.865  18.771   2.534 -0.2843 -0.2379  0.0316
 1574BOLB   NC237765  14.302  18.940   0.257  0.1776 -0.2966 -0.1400
 1574BOLB   PO237766  13.925  18.662   0.198 -0.0261 -0.1673  0.1810
 1574BOLB   GL337767  13.640  18.568   0.370  0.2750  0.0448  0.0739
 1574BOLB   GL437768  13.386  18.352   0.351 -0.2601  0.0957 -0.0961
 1574BOLB   C1C37769  13.318  18.801   0.529 -0.0972  0.0231  0.1151
 1574BOLB   C2C37770  13.045  18.832   0.724 -0.1108  0.2073 -0.0946
 1574BOLB   C3C37771  13.129  18.671   1.117 -0.0197 -0.1587 -0.3434
 1574BOLB   C4C37772  12.976  18.824   1.513 -0.3165  0.2962 -0.2586
 1574BOLB   C1D37773  13.368  18.366   0.840  0.2335  0.0238 -0.2174
 1574BOLB   C2D37774  13.700  18.438   1.153  0.1576  0.0581 -0.0906
 1574BOLB   C3D37775  13.982  18.747   1.341  0.1101 -0.2046  0.0222
 1574BOLB   C4D37776  14.360  18.807   1.579  0.0488 -0.2019  0.0047
 1575BOLB   NC137777   0.013  21.286  15.918  0.4812 -0.3165 -0.0568
 1575BOLB   PO137778  -0.322  21.493  15.761 -0.1727  0.1051  0.1363
 1575BOLB   GL137779  -0.640  21.274  16.079  0.2092  0.3286 -0.1783
 1575BOLB   GL237780  -0.602  20.954  16.098 -0.3144 -0.0079  0.1664
 1575BOLB   C1A37781  -0.997  21.015  16.428  0.3261  0.1227  0.1410
 1575BOLB   C2A37782  -1.174  20.721  16.798 -0.3080  0.1135 -0.0082
 1575BOLB   C3A37783  -1.214  20.729  17.287 -0.1824 -0.1200 -0.0004
 1575BOLB   C4A37784  -1.510  21.066  17.470 -0.1946  0.2965  0.2083
 1575BOLB   C1B37785  -0.365  20.920  16.502 -0.0070 -0.2685 -0.0664
 1575BOLB   C2B37786  -0.564  21.108  16.863 -0.4602  0.1934  0.0967
 1575BOLB   C3B37787  -0.861  21.110  17.182  0.3122  0.0868  0.3339
 1575BOLB   C4B37788  -0.915  20.943  17.639 -0.0291  0.1331 -0.1261
 1575BOLB   NC237789  -2.900  21.731  19.526  0.1375 -0.1772  0.3032
 1575BOLB   PO237790  -2.581  21.922  19.322 -0.0298 -0.4684 -0.2253
 1575BOLB   GL337791  -2.382  21.809  18.983  0.0254 -0.2154  0.0184
 1575BOLB   GL437792  -2.140  21.673  19.112 -0.0517 -0.1739  0.2133
 1575BOLB   C1C37793  -2.149  21.813  18.493  0.3105 -0.1431 -0.3543
 1575BOLB   C2C37794  -1.910  21.923  18.197 -0.0474  0.0617  0.0166
 1575BOLB   C3C37795  -1.629  21.695  17.847 -0.0785  0.0448 -0.0620
 1575BOLB   C4C37796  -1.669  21.475  17.453 -0.0310 -0.0721 -0.3522
 1575BOLB   C1D37797  -1.975  21.297  18.875 -0.4537  0.1768  0.2636
 1575BOLB   C2D37798  -2.056  20.904  18.797 -0.0175  0.2241  0.0966
 1575BOLB   C3D37799  -1.863  20.513  18.741 -0.1283 -0.2063 -0.1631
 1575BOLB   C4D37800  -1.720  20.285  18.377  0.1925  0.1463  0.2345
 1576BOLB   NC137801  10.758  27.437  10.525  0.2009  0.2105 -0.0244
 1576BOLB   PO137802  11.088  27.678  10.181  0.1311  0.0446 -0.2025
 1576BOLB   GL137803  11.376  28.155  10.065  0.3912 -0.0252  0.0076
 1576BOLB   GL237804  11.358  28.504  10.269 -0.1621 -0.2974  0.0107
 1576BOLB   C1A37805  11.729  28.343   9.948  0.1569  0.0957  0.0433
 1576BOLB   C2A37806  12.180  28.574   9.910 -0.1936  0.0336 -0.1947
 1576BOLB   C3A37807  12.590  28.556   9.827  0.1740 -0.1229 -0.0012
 1576BOLB   C4A37808  12.789  28.815   9.484 -0.2866  0.1142  0.0681
 1576BOLB   C1B37809  11.778  28.779  10.311 -0.2140  0.2375  0.2922
 1576BOLB   C2B37810  12.092  29.102  10.030  0.2090  0.4733  0.1244
 1576BOLB   C3B37811  12.299  29.507  10.015 -0.2228 -0.1621 -0.1947
 1576BOLB   C4B37812  12.662  29.667  10.175  0.2027  0.2450 -0.0586
 1576BOLB   NC237813  13.991  30.282   8.306 -0.2428 -0.1030  0.1309
 1576BOLB   PO237814  13.777  30.092   8.027  0.2756 -0.0617  0.1644
 1576BOLB   GL337815  13.538  29.801   8.007  0.2388 -0.1752 -0.1670
 1576BOLB   GL437816  13.275  29.900   7.930  0.2248 -0.1428 -0.0223
 1576BOLB   C1C37817  13.518  29.355   8.150 -0.1631 -0.3020  0.2372
 1576BOLB   C2C37818  13.424  29.394   8.600 -0.0940  0.0715 -0.1273
 1576BOLB   C3C37819  13.049  29.290   8.677 -0.0327  0.0629 -0.0228
 1576BOLB   C4C37820  12.879  28.971   9.085 -0.2321 -0.2165  0.0664
 1576BOLB   C1D37821  13.077  29.585   8.270 -0.0130 -0.1016 -0.1046
 1576BOLB   C2D37822  12.728  29.320   8.227 -0.2516  0.1551 -0.2334
 1576BOLB   C3D37823  12.624  28.981   8.510  0.1139  0.1224 -0.0877
 1576BOLB   C4D37824  12.397  28.711   8.848  0.1102  0.0351  0.1043
 1577BOLB   NC137825  11.048  23.910   4.364 -0.1495  0.0797  0.0032
 1577BOLB   PO137826  11.387  24.139   4.324 -0.0571  0.0735 -0.0701
 1577BOLB   GL137827  11.603  24.365   3.947 -0.0923 -0.0907 -0.0130
 1577BOLB   GL237828  11.650  24.770   3.952  0.2490  0.1543 -0.1175
 1577BOLB   C1A37829  11.481  24.444   3.491 -0.2399 -0.1246 -0.2868
 1577BOLB   C2A37830  11.658  24.564   3.117  0.0363 -0.0079  0.0270
 1577BOLB   C3A37831  11.967  24.582   2.862 -0.2603  0.0884  0.0890
 1577BOLB   C4A37832  12.028  24.610   2.570  0.0493 -0.0322  0.5028
 1577BOLB   C1B37833  11.874  24.728   3.606  0.0397  0.0366  0.2265
 1577BOLB   C2B37834  12.064  24.935   3.206  0.1212  0.1755  0.1407
 1577BOLB   C3B37835  12.420  24.976   3.037 -0.1228  0.2228 -0.1140
 1577BOLB   C4B37836  12.462  24.851   2.697 -0.0209 -0.1770  0.3090
 1577BOLB   NC237837  13.113  24.524   0.493  0.1858  0.1300  0.2680
 1577BOLB   PO237838  12.731  24.458   0.354  0.0290  0.0653 -0.0998
 1577BOLB   GL337839  12.580  24.491   0.713 -0.3111 -0.0567  0.1348
 1577BOLB   GL437840  12.776  24.365   0.929  0.1900 -0.0565 -0.0906
 1577BOLB   C1C37841  12.394  24.526   1.175  0.2188 -0.0785  0.1018
 1577BOLB   C2C37842  12.261  24.455   1.523 -0.0527 -0.0542  0.1321
 1577BOLB   C3C37843  12.413  24.369   1.937  0.3281  0.1111 -0.2289
 1577BOLB   C4C37844  12.272  24.467   2.297  0.0470  0.1347 -0.0076
 1577BOLB   C1D37845  12.948  24.240   1.336  0.2960 -0.0040  0.0965
 1577BOLB   C2D37846  12.880  24.138   1.677  0.3435 -0.1779  0.0418
 1577BOLB   C3D37847  12.848  24.181   2.170  0.0902 -0.0515 -0.2320
 1577BOLB   C4D37848  13.075  23.884   2.401  0.1127 -0.1652 -0.2186
 1578BOLB   NC137849   4.156  23.256   3.012 -0.2141  0.4166 -0.1507
 1578BOLB   PO137850   4.201  23.689   3.065 -0.2633  0.3038 -0.0686
 1578BOLB   GL137851   3.970  23.768   2.750 -0.0014 -0.0344 -0.0209
 1578BOLB   GL237852   3.878  23.548   2.590  0.1536 -0.3879 -0.0773
 1578BOLB   C1A37853   3.902  24.012   2.293 -0.2057  0.3427  0.0683
 1578BOLB   C2A37854   4.042  23.962   1.869  0.0494  0.2070  0.1568
 1578BOLB   C3A37855   3.834  24.026   1.506 -0.2484 -0.1389 -0.2806
 1578BOLB   C4A37856   3.655  24.293   1.195 -0.3204  0.2929  0.2801
 1578BOLB   C1B37857   3.694  23.560   2.157  0.2983  0.0702 -0.0269
 1578BOLB   C2B37858   3.665  23.591   1.658 -0.2259 -0.1933  0.2041
 1578BOLB   C3B37859   3.337  23.655   1.480 -0.0775 -0.2444 -0.1066
 1578BOLB   C4B37860   2.897  23.666   1.512  0.2406  0.2488  0.2631
 1578BOLB   NC237861   4.187  24.673  -0.875 -0.1507 -0.2427 -0.3328
 1578BOLB   PO237862   4.313  24.374  -1.122 -0.3256 -0.3330  0.1098
 1578BOLB   GL337863   4.635  24.157  -0.910 -0.2139  0.4319 -0.1246
 1578BOLB   GL437864   4.578  23.812  -0.955 -0.0404  0.1715 -0.2218
 1578BOLB   C1C37865   4.679  24.007  -0.386  0.1102  0.1388 -0.1816
 1578BOLB   C2C37866   4.542  23.825   0.063 -0.3848  0.0129 -0.2766
 1578BOLB   C3C37867   4.280  23.894   0.514 -0.0948 -0.3212  0.1147
 1578BOLB   C4C37868   3.919  24.252   0.836  0.0386  0.2149 -0.0070
 1578BOLB   C1D37869   4.873  23.672  -0.758 -0.0255 -0.0756 -0.1520
 1578BOLB   C2D37870   4.930  23.494  -0.365  0.0009  0.2491  0.1236
 1578BOLB   C3D37871   4.990  23.602   0.034  0.0075  0.3005 -0.0106
 1578BOLB   C4D37872   5.390  23.716   0.270  0.0690  0.3392  0.2142
 1579BOLB   NC137873  14.780  22.347   6.348  0.1492  0.1637  0.0759
 1579BOLB   PO137874  14.541  22.160   5.900  0.1763  0.0606  0.0753
 1579BOLB   GL137875  14.901  22.336   5.846  0.2840 -0.3505  0.4446
 1579BOLB   GL237876  15.173  22.296   5.973 -0.1871  0.0630  0.0846
 1579BOLB   C1A37877  15.151  22.536   5.540  0.1301  0.1596 -0.0856
 1579BOLB   C2A37878  15.486  22.615   5.326  0.1591 -0.5118 -0.1593
 1579BOLB   C3A37879  15.912  22.500   5.447  0.2409  0.1847  0.0787
 1579BOLB   C4A37880  16.333  22.526   5.271 -0.1243 -0.0383 -0.3159
 1579BOLB   C1B37881  15.517  22.279   5.744 -0.1253  0.1683 -0.0209
 1579BOLB   C2B37882  15.899  22.461   5.915  0.1926  0.2935 -0.2588
 1579BOLB   C3B37883  16.261  22.305   6.069 -0.0693 -0.1936 -0.0962
 1579BOLB   C4B37884  16.721  22.204   6.072 -0.4847  0.0184 -0.2616
 1579BOLB   NC237885  18.361  23.373   5.159  0.0263  0.2906  0.1111
 1579BOLB   PO237886  18.581  23.022   5.002 -0.1414 -0.2351 -0.1359
 1579BOLB   GL337887  18.163  22.887   4.797 -0.2037  0.0925 -0.4671
 1579BOLB   GL437888  18.157  22.585   4.738 -0.2616 -0.0187  0.0235
 1579BOLB   C1C37889  17.780  22.960   4.808  0.3255  0.0372  0.0670
 1579BOLB   C2C37890  17.287  23.003   4.877  0.0063  0.0759 -0.0814
 1579BOLB   C3C37891  16.915  23.105   5.089  0.0891 -0.1800 -0.2904
 1579BOLB   C4C37892  16.629  22.823   5.341  0.0988 -0.0185 -0.0746
 1579BOLB   C1D37893  17.887  22.417   5.000 -0.1078 -0.1758 -0.0947
 1579BOLB   C2D37894  17.804  22.650   5.374  0.2314 -0.1851  0.0926
 1579BOLB   C3D37895  17.554  22.546   5.708 -0.0514 -0.2748  0.3921
 1579BOLB   C4D37896  17.351  22.200   5.644  0.0464  0.2468  0.1528
 1580BOLB   NC137897   0.852  25.632  12.521 -0.1524 -0.0618  0.0884
 1580BOLB   PO137898   0.480  25.962  12.510 -0.3357 -0.0895 -0.1153
 1580BOLB   GL137899   0.124  26.202  12.742 -0.2194 -0.0538  0.0573
 1580BOLB   GL237900  -0.237  26.132  12.577  0.2676  0.5143 -0.1530
 1580BOLB   C1A37901  -0.126  26.396  13.018 -0.1620 -0.1966 -0.0810
 1580BOLB   C2A37902  -0.267  26.798  13.187 -0.2620 -0.2844  0.0020
 1580BOLB   C3A37903  -0.595  27.058  13.380 -0.3622  0.3441  0.1329
 1580BOLB   C4A37904  -1.000  27.019  13.595  0.2337  0.0178 -0.1449
 1580BOLB   C1B37905  -0.596  26.362  12.452 -0.0261 -0.5045  0.1063
 1580BOLB   C2B37906  -1.005  26.614  12.461  0.4289  0.4480  0.2566
 1580BOLB   C3B37907  -1.320  26.635  12.200 -0.0865 -0.0747 -0.3455
 1580BOLB   C4B37908  -1.301  26.938  11.865  0.1727 -0.0367 -0.0303
 1580BOLB   NC237909  -3.227  27.978  14.142 -0.0813  0.3520 -0.0365
 1580BOLB   PO237910  -2.851  28.300  14.361 -0.1432 -0.3176 -0.0414
 1580BOLB   GL337911  -2.448  27.932  14.316  0.0696  0.1899 -0.1153
 1580BOLB   GL437912  -2.204  28.097  14.337 -0.0179  0.0156 -0.3144
 1580BOLB   C1C37913  -2.180  27.514  14.226 -0.0062 -0.1481  0.3585
 1580BOLB   C2C37914  -1.924  27.220  14.253 -0.1412  0.0690  0.2595
 1580BOLB   C3C37915  -1.467  26.855  14.230 -0.1147  0.2095 -0.0940
 1580BOLB   C4C37916  -1.322  26.910  13.848  0.1436 -0.3960  0.0102
 1580BOLB   C1D37917  -1.781  27.755  14.344  0.1764 -0.5444 -0.5195
 1580BOLB   C2D37918  -1.473  27.395  14.308 -0.0270 -0.1028  0.1954
 1580BOLB   C3D37919  -1.101  27.106  14.427  0.2161 -0.1859  0.0764
 1580BOLB   C4D37920  -0.815  26.763  14.670 -0.1752  0.2320  0.3263
 1581BOLB   NC137921   9.638  28.154   8.879  0.4249 -0.1157  0.2287
 1581BOLB   PO137922   9.372  28.489   8.788  0.0477  0.0779  0.0410
 1581BOLB   GL137923   9.462  28.833   8.662  0.0088 -0.0587  0.4429
 1581BOLB   GL237924   9.270  29.099   8.682  0.2708 -0.0425  0.0682
 1581BOLB   C1A37925   9.769  29.179   8.516 -0.0176 -0.1977 -0.1682
 1581BOLB   C2A37926   9.730  29.611   8.782  0.1650 -0.1191  0.1051
 1581BOLB   C3A37927  10.042  29.681   8.994  0.0259  0.0718  0.0895
 1581BOLB   C4A37928  10.411  29.736   8.873 -0.0005  0.1311 -0.2380
 1581BOLB   C1B37929   9.318  29.537   8.504 -0.2674  0.1007  0.2123
 1581BOLB   C2B37930   9.573  29.870   8.423  0.0939  0.2228  0.0822
 1581BOLB   C3B37931   9.990  29.830   8.430 -0.2161  0.3892 -0.0780
 1581BOLB   C4B37932  10.177  29.859   8.078  0.1125  0.0536 -0.2986
 1581BOLB   NC237933  12.215  31.742   7.972 -0.0493 -0.0518  0.0962
 1581BOLB   PO237934  12.348  31.371   7.935  0.2354  0.0299  0.0739
 1581BOLB   GL337935  11.916  30.970   8.108  0.0475  0.1133  0.0870
 1581BOLB   GL437936  11.972  31.114   8.372  0.3046 -0.3466  0.1225
 1581BOLB   C1C37937  11.556  30.812   8.469 -0.0375  0.1484 -0.0085
 1581BOLB   C2C37938  11.162  30.667   8.657  0.2158 -0.2101 -0.1377
 1581BOLB   C3C37939  10.893  30.275   8.749  0.1832  0.0354 -0.2497
 1581BOLB   C4C37940  10.566  30.035   8.801  0.0963  0.0039 -0.1451
 1581BOLB   C1D37941  11.979  30.857   8.717  0.0088 -0.1386 -0.0898
 1581BOLB   C2D37942  11.687  30.490   8.878 -0.2143  0.3088 -0.0755
 1581BOLB   C3D37943  11.344  30.289   8.867  0.0401 -0.1999 -0.0004
 1581BOLB   C4D37944  11.244  29.897   8.613  0.2542  0.2378  0.2584
 1582BOLB   NC137945   1.587  26.454  12.817  0.1542  0.1094 -0.0540
 1582BOLB   PO137946   1.197  26.599  12.927 -0.2294 -0.3312 -0.0346
 1582BOLB   GL137947   0.805  26.882  13.045 -0.0254  0.2053  0.2171
 1582BOLB   GL237948   0.704  26.773  13.303 -0.0827  0.4253 -0.3688
 1582BOLB   C1A37949   0.523  27.208  12.819  0.0133 -0.0715  0.0168
 1582BOLB   C2A37950   0.251  27.545  12.782 -0.2322  0.2216  0.2458
 1582BOLB   C3A37951  -0.055  27.913  12.698 -0.2397  0.0059 -0.2564
 1582BOLB   C4A37952  -0.025  28.338  12.890  0.0320  0.1199 -0.1339
 1582BOLB   C1B37953   0.601  27.294  13.318 -0.1692 -0.3708  0.1503
 1582BOLB   C2B37954   0.385  27.583  13.324 -0.1438  0.2198  0.0031
 1582BOLB   C3B37955  -0.028  27.807  13.222 -0.1562 -0.0665 -0.2435
 1582BOLB   C4B37956  -0.235  28.061  13.343 -0.0802  0.3807 -0.1525
 1582BOLB   NC237957  -1.462  29.388  13.546 -0.1944  0.1629 -0.1879
 1582BOLB   PO237958  -1.403  29.397  13.979  0.0182  0.1052  0.0928
 1582BOLB   GL337959  -1.029  29.327  13.833  0.2587 -0.2651 -0.1223
 1582BOLB   GL437960  -0.979  29.320  13.559  0.2368  0.2291 -0.0720
 1582BOLB   C1C37961  -0.913  28.866  13.969  0.1157 -0.1733  0.2767
 1582BOLB   C2C37962  -0.569  28.586  13.838 -0.2476  0.0885  0.1756
 1582BOLB   C3C37963  -0.251  28.542  13.615  0.0859 -0.1178 -0.0329
 1582BOLB   C4C37964   0.024  28.467  13.297  0.1860 -0.0123  0.0905
 1582BOLB   C1D37965  -0.861  29.237  13.140  0.1730  0.1311 -0.2012
 1582BOLB   C2D37966  -0.643  28.870  13.005 -0.0237 -0.2565 -0.0548
 1582BOLB   C3D37967  -0.302  28.817  12.689 -0.2528 -0.0292 -0.2164
 1582BOLB   C4D37968   0.088  29.013  12.565 -0.0493  0.1770  0.0096
 1583BOLB   NC137969   3.231  19.244   2.791 -0.3001 -0.1622  0.2600
 1583BOLB   PO137970   2.770  19.130   2.841 -0.0626  0.0292  0.0250
 1583BOLB   GL137971   2.333  19.135   2.866  0.1656  0.0837 -0.0988
 1583BOLB   GL237972   2.172  18.875   3.112 -0.2503  0.1637  0.1842
 1583BOLB   C1A37973   2.110  19.002   2.493  0.0735 -0.1847  0.1006
 1583BOLB   C2A37974   2.363  19.162   2.206  0.0395  0.0233  0.1065
 1583BOLB   C3A37975   2.317  19.105   1.698 -0.2047 -0.3951 -0.2050
 1583BOLB   C4A37976   2.383  18.921   1.286 -0.1016  0.0400 -0.0806
 1583BOLB   C1B37977   1.792  18.967   2.952  0.1327 -0.1233 -0.1263
 1583BOLB   C2B37978   1.647  19.086   2.478  0.1698  0.2222  0.2691
 1583BOLB   C3B37979   1.752  19.078   2.086  0.0857 -0.1587 -0.0025
 1583BOLB   C4B37980   1.486  18.895   1.801 -0.0371  0.1020 -0.2508
 1583BOLB   NC237981   2.178  19.130  -0.925 -0.1195 -0.0532  0.2431
 1583BOLB   PO237982   1.953  18.778  -1.004 -0.1049 -0.2029  0.0135
 1583BOLB   GL337983   1.919  18.721  -0.598 -0.0336 -0.2876  0.1739
 1583BOLB   GL437984   1.707  18.624  -0.518 -0.0149  0.3212  0.1407
 1583BOLB   C1C37985   2.070  18.939  -0.277  0.2626 -0.1529  0.1821
 1583BOLB   C2C37986   2.134  18.962   0.165  0.1385 -0.0008 -0.4543
 1583BOLB   C3C37987   2.177  18.820   0.604  0.2306 -0.0830 -0.2469
 1583BOLB   C4C37988   2.145  18.729   0.927  0.0886  0.2907 -0.1391
 1583BOLB   C1D37989   1.628  18.813  -0.014 -0.1031 -0.0283  0.1716
 1583BOLB   C2D37990   1.577  18.834   0.491  0.0725  0.1994  0.1333
 1583BOLB   C3D37991   1.422  19.076   0.838 -0.2360 -0.1087  0.1503
 1583BOLB   C4D37992   1.070  19.103   0.993  0.3365  0.0459  0.2311
 1584BOLB   NC137993   5.891  17.253  16.991 -0.3317 -0.1045  0.1077
 1584BOLB   PO137994   5.690  17.096  17.357 -0.1618  0.2022  0.1784
 1584BOLB   GL137995   5.772  16.904  17.665  0.0812  0.2299  0.3256
 1584BOLB   GL237996   5.510  16.657  17.682 -0.3355 -0.1576 -0.1397
 1584BOLB   C1A37997   5.889  16.646  18.146 -0.0306  0.1384 -0.1522
 1584BOLB   C2A37998   5.850  16.445  18.448 -0.0047  0.1173  0.1786
 1584BOLB   C3A37999   5.701  16.205  18.629 -0.1124 -0.0620 -0.2539
 1584BOLB   C4A38000   5.596  15.956  18.933 -0.1073  0.0231 -0.1007
 1584BOLB   C1B38001   5.391  16.355  17.882 -0.4054  0.0358  0.1318
 1584BOLB   C2B38002   5.304  16.004  18.048  0.2437  0.2272 -0.1412
 1584BOLB   C3B38003   5.374  15.888  18.424 -0.1354  0.1332 -0.2384
 1584BOLB   C4B38004   5.581  15.564  18.618  0.0187  0.0993  0.3810
 1584BOLB   NC238005   5.289  14.370  20.487 -0.1545  0.2121 -0.0768
 1584BOLB   PO238006   5.621  14.590  20.556 -0.0161 -0.0337  0.3893
 1584BOLB   GL338007   5.539  15.053  20.375 -0.2047  0.4040  0.0495
 1584BOLB   GL438008   5.345  14.894  20.247 -0.0819 -0.1848  0.0889
 1584BOLB   C1C38009   5.481  15.399  20.370  0.0126  0.1608 -0.0656
 1584BOLB   C2C38010   5.365  15.777  20.288 -0.0698  0.0117 -0.2478
 1584BOLB   C3C38011   5.397  15.874  19.800  0.0940  0.1767 -0.3837
 1584BOLB   C4C38012   5.531  15.836  19.409  0.0777  0.0205 -0.0608
 1584BOLB   C1D38013   5.373  14.886  19.815 -0.2985 -0.1995 -0.0783
 1584BOLB   C2D38014   5.411  14.971  19.476  0.2405  0.0955  0.4506
 1584BOLB   C3D38015   5.118  14.691  19.181 -0.2793 -0.2524  0.1589
 1584BOLB   C4D38016   4.863  14.435  19.050 -0.1478  0.0531  0.1301
 1585BOLB   NC138017   0.752  21.518  16.250 -0.0658  0.0615 -0.1214
 1585BOLB   PO138018   0.735  21.908  16.549  0.0222 -0.2792 -0.3659
 1585BOLB   GL138019   0.553  21.997  16.911 -0.3322  0.1699 -0.1045
 1585BOLB   GL238020   0.624  22.236  16.966  0.4908 -0.0554 -0.1466
 1585BOLB   C1A38021   0.215  21.867  17.174 -0.2139 -0.0712  0.1081
 1585BOLB   C2A38022  -0.136  21.855  17.397 -0.0574  0.1227 -0.0874
 1585BOLB   C3A38023  -0.032  22.102  17.789 -0.1866 -0.0728 -0.0642
 1585BOLB   C4A38024  -0.228  22.031  18.162 -0.0527 -0.3645  0.2453
 1585BOLB   C1B38025   0.297  22.349  17.241  0.2699  0.2914 -0.1437
 1585BOLB   C2B38026  -0.042  22.569  17.422 -0.0467 -0.1600  0.0629
 1585BOLB   C3B38027  -0.399  22.790  17.588  0.1458 -0.0838  0.1722
 1585BOLB   C4B38028  -0.489  23.115  17.839 -0.1609 -0.1426  0.1228
 1585BOLB   NC238029  -1.627  23.470  19.282  0.2857  0.2086 -0.2024
 1585BOLB   PO238030  -1.374  23.157  19.406  0.1228  0.2513 -0.0638
 1585BOLB   GL338031  -0.988  22.992  19.541  0.1569  0.0856 -0.1706
 1585BOLB   GL438032  -0.807  23.166  19.671  0.0260  0.1254 -0.0888
 1585BOLB   C1C38033  -0.682  22.685  19.337 -0.2144  0.0761  0.0376
 1585BOLB   C2C38034  -0.407  22.366  19.432  0.0640 -0.0544  0.1466
 1585BOLB   C3C38035  -0.320  22.216  18.977  0.2860  0.1571 -0.1384
 1585BOLB   C4C38036  -0.197  22.095  18.584  0.2248  0.1894 -0.2033
 1585BOLB   C1D38037  -0.389  23.087  19.444  0.2245  0.1911 -0.1211
 1585BOLB   C2D38038  -0.302  22.785  19.045  0.0245  0.0707  0.3315
 1585BOLB   C3D38039   0.089  22.609  18.813  0.1358 -0.0210  0.1205
 1585BOLB   C4D38040   0.271  22.245  18.745  0.2870 -0.2844 -0.2657
 1586BOLB   NC138041  10.005  23.940   3.636  0.0441  0.0033  0.0227
 1586BOLB   PO138042   9.986  24.411   3.756  0.2865 -0.0319  0.2315
 1586BOLB   GL138043   9.945  24.612   3.409  0.0816  0.0719  0.0606
 1586BOLB   GL238044   9.973  24.301   3.195  0.2415 -0.1469 -0.1504
 1586BOLB   C1A38045  10.206  24.796   3.103 -0.3913 -0.1403  0.0932
 1586BOLB   C2A38046  10.193  24.953   2.628  0.0691  0.2919 -0.0375
 1586BOLB   C3A38047  10.373  25.165   2.213 -0.0034  0.0196  0.0259
 1586BOLB   C4A38048  10.508  25.498   1.978  0.1752  0.1667  0.0612
 1586BOLB   C1B38049   9.869  24.509   2.830 -0.2302  0.0560  0.0220
 1586BOLB   C2B38050   9.874  24.642   2.403  0.0041  0.0210 -0.1539
 1586BOLB   C3B38051  10.035  24.692   2.024  0.4058  0.0898  0.0123
 1586BOLB   C4B38052  10.507  24.789   1.863  0.0350  0.0627  0.0596
 1586BOLB   NC238053  12.354  25.980   1.017 -0.0244 -0.2523 -0.0142
 1586BOLB   PO238054  12.069  26.290   1.154 -0.3021 -0.1338 -0.1254
 1586BOLB   GL338055  11.973  26.184   1.470  0.0658  0.0237 -0.3381
 1586BOLB   GL438056  12.138  25.960   1.475 -0.0918  0.1246 -0.1131
 1586BOLB   C1C38057  11.526  26.172   1.662  0.1683  0.4313 -0.0425
 1586BOLB   C2C38058  11.129  26.299   1.580  0.2066 -0.1136 -0.2094
 1586BOLB   C3C38059  10.813  26.214   1.770 -0.1496  0.0689  0.1848
 1586BOLB   C4C38060  10.792  25.867   1.837 -0.1683 -0.0920 -0.3040
 1586BOLB   C1D38061  12.054  26.036   1.919 -0.0693 -0.0493 -0.0785
 1586BOLB   C2D38062  11.899  25.994   2.340  0.0276  0.2564 -0.1135
 1586BOLB   C3D38063  11.667  26.005   2.759 -0.4095 -0.2651  0.3119
 1586BOLB   C4D38064  11.658  25.742   3.126  0.1464 -0.1763 -0.0971
 1587BOLB   NC138065  10.703  14.858   8.536 -0.0361 -0.0615 -0.1686
 1587BOLB   PO138066  10.773  14.520   8.813  0.1854  0.3530 -0.1040
 1587BOLB   GL138067  11.105  14.143   8.702  0.2717 -0.0558 -0.3309
 1587BOLB   GL238068  11.179  14.095   8.465  0.2900  0.3170  0.0745
 1587BOLB   C1A38069  11.508  13.974   8.846  0.1138  0.2437 -0.1250
 1587BOLB   C2A38070  11.796  13.799   8.987 -0.1880  0.1112  0.1966
 1587BOLB   C3A38071  12.044  13.495   9.028 -0.1150  0.0818 -0.0143
 1587BOLB   C4A38072  12.386  13.198   9.195 -0.1063  0.1549  0.2458
 1587BOLB   C1B38073  11.243  13.716   8.537 -0.1386  0.1973  0.0830
 1587BOLB   C2B38074  11.524  13.416   8.598 -0.0383 -0.2952 -0.0091
 1587BOLB   C3B38075  11.977  13.321   8.554  0.3074 -0.2133  0.1449
 1587BOLB   C4B38076  12.335  13.104   8.687  0.3519  0.2065 -0.0004
 1587BOLB   NC238077  12.878  10.466   9.135  0.2031  0.0286 -0.1545
 1587BOLB   PO238078  12.569  10.597   9.293  0.1011  0.0906 -0.1997
 1587BOLB   GL338079  12.454  11.119   9.391 -0.2061 -0.0625  0.2405
 1587BOLB   GL438080  12.251  11.164   9.163 -0.2590  0.2088  0.0283
 1587BOLB   C1C38081  12.344  11.515   9.739  0.1966 -0.0794 -0.1143
 1587BOLB   C2C38082  12.037  11.950   9.662  0.2147  0.0105  0.0148
 1587BOLB   C3C38083  12.182  12.273   9.469 -0.0848 -0.3863 -0.2971
 1587BOLB   C4C38084  12.343  12.754   9.350 -0.0296 -0.1293 -0.1133
 1587BOLB   C1D38085  11.985  11.404   9.390  0.1641 -0.0014 -0.0629
 1587BOLB   C2D38086  11.661  11.686   9.341 -0.0671 -0.1135  0.0617
 1587BOLB   C3D38087  11.148  11.691   9.130 -0.1925 -0.0574  0.0177
 1587BOLB   C4D38088  11.005  12.005   8.786  0.0945 -0.0859 -0.1423
 1588BOLB   NC138089  12.237  11.843   3.995 -0.2487 -0.1217 -0.1813
 1588BOLB   PO138090  12.596  11.956   4.176  0.0768 -0.0883 -0.0213
 1588BOLB   GL138091  12.410  12.107   4.549 -0.1429  0.1600 -0.0115
 1588BOLB   GL238092  12.233  11.889   4.671  0.1099  0.0279 -0.4751
 1588BOLB   C1A38093  12.182  12.460   4.524 -0.3021  0.1876  0.1744
 1588BOLB   C2A38094  12.067  12.963   4.368 -0.2999  0.0058  0.2682
 1588BOLB   C3A38095  11.947  13.425   4.559  0.0481 -0.2975 -0.3538
 1588BOLB   C4A38096  12.202  13.768   4.848 -0.1201  0.2987  0.1106
 1588BOLB   C1B38097  11.970  11.991   4.827 -0.0902  0.2057  0.1755
 1588BOLB   C2B38098  11.619  12.306   4.802 -0.0692 -0.0989  0.1474
 1588BOLB   C3B38099  11.105  12.457   4.870 -0.2634 -0.2337 -0.1184
 1588BOLB   C4B38100  10.851  12.795   5.003  0.0158 -0.0220  0.0484
 1588BOLB   NC238101  14.729  12.395   5.067  0.0795 -0.1320 -0.0536
 1588BOLB   PO238102  14.256  12.428   5.047 -0.1478 -0.2616  0.2442
 1588BOLB   GL338103  13.936  12.761   5.001  0.1490 -0.1376 -0.0583
 1588BOLB   GL438104  13.974  13.032   4.745 -0.1792  0.1808 -0.1044
 1588BOLB   C1C38105  13.645  13.035   5.151 -0.0725 -0.2237  0.1665
 1588BOLB   C2C38106  13.239  13.148   5.132  0.0713 -0.1751  0.0789
 1588BOLB   C3C38107  12.903  13.357   4.815  0.0585 -0.0555 -0.3539
 1588BOLB   C4C38108  12.612  13.729   4.928  0.0068 -0.1961  0.1575
 1588BOLB   C1D38109  13.845  13.419   4.869 -0.0960 -0.1434 -0.0472
 1588BOLB   C2D38110  13.417  13.578   5.074  0.3094 -0.1867  0.1734
 1588BOLB   C3D38111  13.090  13.826   4.834  0.0317  0.0349  0.0700
 1588BOLB   C4D38112  12.856  13.808   4.467  0.1520 -0.6263  0.2029
 1589BOLB   NC138113  34.129  16.168   0.111  0.1607 -0.0590  0.1853
 1589BOLB   PO138114  34.134  15.982   0.490  0.5001  0.0461 -0.1955
 1589BOLB   GL138115  34.441  16.117   0.692 -0.2186  0.1314  0.0526
 1589BOLB   GL238116  34.742  15.920   0.681 -0.1326 -0.0316  0.0131
 1589BOLB   C1A38117  34.685  16.566   0.541 -0.1922 -0.2492 -0.0134
 1589BOLB   C2A38118  35.053  16.757   0.729  0.1691  0.0853  0.0595
 1589BOLB   C3A38119  35.425  16.908   0.857 -0.0090  0.3315  0.0227
 1589BOLB   C4A38120  35.695  17.160   0.977 -0.0035 -0.0052  0.0928
 1589BOLB   C1B38121  34.675  15.764   1.081  0.1424  0.1295 -0.0412
 1589BOLB   C2B38122  34.480  15.538   1.460 -0.3213 -0.1341 -0.0668
 1589BOLB   C3B38123  34.674  15.198   1.622 -0.2125  0.0134 -0.1916
 1589BOLB   C4B38124  34.683  14.758   1.898  0.3570  0.1520  0.1356
 1589BOLB   NC238125  35.758  18.539  -0.612  0.0172 -0.2528 -0.1028
 1589BOLB   PO238126  36.268  18.460  -0.731 -0.0999  0.2804 -0.0192
 1589BOLB   GL338127  36.343  18.500  -0.236  0.1100  0.1289 -0.3678
 1589BOLB   GL438128  36.305  18.661   0.048 -0.2885 -0.1149  0.0786
 1589BOLB   C1C38129  36.314  18.091   0.003 -0.0946  0.2140  0.0478
 1589BOLB   C2C38130  36.388  17.856   0.246 -0.1189 -0.2218  0.2721
 1589BOLB   C3C38131  36.375  17.553   0.598 -0.1424 -0.0803  0.3297
 1589BOLB   C4C38132  36.146  17.312   0.862  0.2946 -0.0065  0.0840
 1589BOLB   C1D38133  36.440  18.967   0.398 -0.0763 -0.0337  0.2036
 1589BOLB   C2D38134  36.831  18.769   0.518  0.3892  0.3439 -0.1092
 1589BOLB   C3D38135  37.272  18.645   0.339 -0.2554  0.1835  0.0695
 1589BOLB   C4D38136  37.551  18.796   0.139 -0.2707  0.0949  0.2057
 1590BOLB   NC138137   4.352  15.266  15.458  0.0703  0.1681  0.2001
 1590BOLB   PO138138   4.608  15.328  15.796  0.0031 -0.2256 -0.3566
 1590BOLB   GL138139   4.385  14.963  15.811  0.0236 -0.0664 -0.0745
 1590BOLB   GL238140   4.279  14.722  15.483 -0.1429 -0.0482 -0.0134
 1590BOLB   C1A38141   4.313  14.549  15.962  0.0780 -0.0519  0.0438
 1590BOLB   C2A38142   4.026  14.185  16.151  0.1787  0.2035  0.0262
 1590BOLB   C3A38143   3.934  13.818  16.430 -0.2673 -0.0067  0.0576
 1590BOLB   C4A38144   3.768  13.575  16.713  0.1274  0.0696 -0.2194
 1590BOLB   C1B38145   3.913  14.652  15.716  0.0048 -0.2249  0.0554
 1590BOLB   C2B38146   3.839  14.294  15.719  0.0075 -0.1758  0.2688
 1590BOLB   C3B38147   3.662  14.026  15.406  0.0969 -0.5717 -0.0013
 1590BOLB   C4B38148   3.273  13.720  15.532 -0.0396 -0.1497 -0.2203
 1590BOLB   NC238149   4.449  12.738  18.726  0.1173 -0.1228 -0.1626
 1590BOLB   PO238150   4.356  12.258  18.633  0.1688 -0.0485  0.2846
 1590BOLB   GL338151   4.032  12.435  18.340  0.1890  0.1401 -0.1928
 1590BOLB   GL438152   4.083  12.768  18.393  0.1560 -0.2745 -0.0294
 1590BOLB   C1C38153   3.896  12.582  17.935 -0.2192  0.4359  0.1217
 1590BOLB   C2C38154   3.975  12.940  17.712  0.2569 -0.2262 -0.3619
 1590BOLB   C3C38155   3.793  13.217  17.419 -0.1361 -0.1176 -0.2221
 1590BOLB   C4C38156   3.675  13.457  17.073 -0.1005 -0.1479 -0.1857
 1590BOLB   C1D38157   3.903  13.022  18.190 -0.1749 -0.2085 -0.1332
 1590BOLB   C2D38158   3.822  13.417  17.907 -0.0821 -0.0139  0.2194
 1590BOLB   C3D38159   3.721  13.658  17.637 -0.1459 -0.2724  0.0531
 1590BOLB   C4D38160   3.888  13.857  17.300 -0.2536  0.0847 -0.1751
 1591BOLB   NC138161  30.098  23.984   6.336  0.1278 -0.0909 -0.0868
 1591BOLB   PO138162  30.123  23.550   6.203 -0.4475 -0.0126  0.2782
 1591BOLB   GL138163  30.217  23.435   6.594 -0.0015 -0.1112  0.1444
 1591BOLB   GL238164  30.363  23.695   6.815 -0.2987 -0.0878  0.6268
 1591BOLB   C1A38165  30.314  23.173   6.926 -0.1181  0.2221 -0.2481
 1591BOLB   C2A38166  30.617  22.970   7.033  0.0626 -0.3063 -0.0972
 1591BOLB   C3A38167  31.046  22.653   6.901 -0.1330  0.4003 -0.3307
 1591BOLB   C4A38168  31.423  22.893   6.862 -0.0531 -0.1394 -0.1663
 1591BOLB   C1B38169  30.372  23.653   7.275 -0.0537  0.1380 -0.4128
 1591BOLB   C2B38170  30.595  23.524   7.631 -0.1438 -0.1076  0.0908
 1591BOLB   C3B38171  31.018  23.323   7.723  0.0990  0.0526 -0.2957
 1591BOLB   C4B38172  31.081  23.190   8.165 -0.1499 -0.1885 -0.0039
 1591BOLB   NC238173  30.810  24.948   5.596 -0.0593  0.2257 -0.0932
 1591BOLB   PO238174  30.989  24.581   5.557 -0.4210  0.0011  0.1996
 1591BOLB   GL338175  31.476  24.292   5.527 -0.2445 -0.3139 -0.1457
 1591BOLB   GL438176  31.741  24.432   5.378  0.2539 -0.0155 -0.0055
 1591BOLB   C1C38177  31.769  24.064   5.729 -0.1434  0.2595  0.3195
 1591BOLB   C2C38178  31.855  23.679   5.889  0.0994 -0.2821 -0.2186
 1591BOLB   C3C38179  31.556  23.437   6.160 -0.1640  0.2124 -0.3435
 1591BOLB   C4C38180  31.593  23.056   6.455  0.0040 -0.1029 -0.1958
 1591BOLB   C1D38181  32.011  24.069   5.317 -0.3744  0.3331 -0.1115
 1591BOLB   C2D38182  32.128  23.613   5.471  0.1151 -0.1653 -0.0159
 1591BOLB   C3D38183  32.211  23.253   5.299  0.0290  0.1664 -0.1432
 1591BOLB   C4D38184  31.920  23.029   5.161 -0.0162 -0.3361 -0.1691
 1592BOLB   NC138185   0.713  23.563   4.964  0.1465 -0.0341 -0.1287
 1592BOLB   PO138186   0.939  23.268   5.003  0.0690 -0.0703 -0.0449
 1592BOLB   GL138187   0.690  23.276   4.539 -0.1333 -0.1018 -0.1166
 1592BOLB   GL238188   0.549  23.581   4.442 -0.0976 -0.0769  0.0774
 1592BOLB   C1A38189   0.442  23.314   4.039 -0.4208  0.0440 -0.0565
 1592BOLB   C2A38190   0.225  23.611   3.770  0.4831 -0.0124 -0.2120
 1592BOLB   C3A38191   0.157  23.891   3.414  0.0494 -0.1105 -0.2596
 1592BOLB   C4A38192   0.142  24.365   3.322 -0.3171  0.0126 -0.1655
 1592BOLB   C1B38193   0.545  23.793   4.044  0.2686  0.0008 -0.0342
 1592BOLB   C2B38194   0.605  24.034   3.668 -0.1475 -0.1882  0.3545
 1592BOLB   C3B38195   0.706  24.121   3.217  0.0316 -0.1808 -0.1763
 1592BOLB   C4B38196   0.409  24.143   2.834 -0.1304  0.0817  0.1035
 1592BOLB   NC238197  -0.571  25.697   2.162 -0.0726  0.0722 -0.2849
 1592BOLB   PO238198  -0.301  26.051   2.100  0.1279 -0.1611 -0.0351
 1592BOLB   GL338199  -0.164  25.841   2.524  0.3021  0.3136  0.1997
 1592BOLB   GL438200   0.124  25.753   2.393  0.1489 -0.1688 -0.1230
 1592BOLB   C1C38201  -0.138  25.570   2.833 -0.1811 -0.1435 -0.1474
 1592BOLB   C2C38202  -0.196  25.222   3.117 -0.3200 -0.0942 -0.2742
 1592BOLB   C3C38203  -0.195  25.065   3.572 -0.1411 -0.0938  0.2293
 1592BOLB   C4C38204   0.034  24.735   3.605  0.1487 -0.0173 -0.0353
 1592BOLB   C1D38205   0.367  25.463   2.559 -0.1652 -0.2236  0.0538
 1592BOLB   C2D38206   0.560  25.335   2.896 -0.1234  0.0316  0.0318
 1592BOLB   C3D38207   0.732  25.194   3.298 -0.0491  0.1713 -0.2115
 1592BOLB   C4D38208   0.646  25.573   3.648  0.0124 -0.0494  0.2573
 1593BOLB   NC138209   8.124  23.332   3.003 -0.1328 -0.0389 -0.3063
 1593BOLB   PO138210   7.889  23.193   2.772  0.0498 -0.1537 -0.0639
 1593BOLB   GL138211   7.804  23.299   2.400 -0.2061  0.1407 -0.0447
 1593BOLB   GL238212   7.710  23.598   2.363 -0.1497  0.2039 -0.0459
 1593BOLB   C1A38213   7.757  23.331   1.940  0.3339  0.0486  0.3644
 1593BOLB   C2A38214   7.779  23.499   1.577  0.1622  0.2325 -0.0003
 1593BOLB   C3A38215   7.967  23.676   1.229  0.2907 -0.2905  0.0403
 1593BOLB   C4A38216   8.127  23.626   0.859 -0.3878 -0.2350  0.3213
 1593BOLB   C1B38217   7.557  23.857   2.041 -0.2021 -0.0008  0.1664
 1593BOLB   C2B38218   7.339  23.999   1.738  0.1552  0.1945  0.1513
 1593BOLB   C3B38219   7.333  24.345   1.443 -0.1761  0.0012 -0.0985
 1593BOLB   C4B38220   7.604  24.633   1.288  0.2136  0.0144 -0.0005
 1593BOLB   NC238221   6.652  25.056  -0.710 -0.3107  0.0753  0.2015
 1593BOLB   PO238222   7.125  25.083  -0.739 -0.0780 -0.1416  0.2472
 1593BOLB   GL338223   7.326  24.897  -0.385  0.1397 -0.0639 -0.0411
 1593BOLB   GL438224   7.415  24.988  -0.082 -0.1830  0.1569 -0.4268
 1593BOLB   C1C38225   7.654  24.535  -0.286 -0.1470 -0.0560  0.1012
 1593BOLB   C2C38226   7.727  24.155  -0.115  0.1759 -0.2208  0.0114
 1593BOLB   C3C38227   8.001  24.049   0.206  0.1600 -0.0134 -0.2038
 1593BOLB   C4C38228   8.143  23.630   0.440 -0.1960 -0.2928  0.0607
 1593BOLB   C1D38229   7.556  24.806   0.196 -0.2087  0.0265 -0.1480
 1593BOLB   C2D38230   7.740  24.858   0.689 -0.0476  0.1909  0.1298
 1593BOLB   C3D38231   7.968  24.734   0.949  0.0815  0.0783 -0.1966
 1593BOLB   C4D38232   8.095  24.579   1.277 -0.1187  0.1083 -0.1747
 1594BOLB   NC138233  14.805  22.958  12.344  0.1522  0.0061  0.1600
 1594BOLB   PO138234  14.604  23.165  12.501  0.1962 -0.0413 -0.2078
 1594BOLB   GL138235  14.990  23.345  12.760  0.2088  0.1422 -0.2920
 1594BOLB   GL238236  15.107  23.436  12.499 -0.3405  0.1294  0.3217
 1594BOLB   C1A38237  15.362  23.575  12.989  0.0338  0.1793 -0.0863
 1594BOLB   C2A38238  15.694  23.815  13.003 -0.0478  0.0228  0.0737
 1594BOLB   C3A38239  16.088  23.779  13.162 -0.2389 -0.2325  0.2729
 1594BOLB   C4A38240  16.565  23.518  13.199  0.3073 -0.2611  0.0634
 1594BOLB   C1B38241  15.537  23.644  12.538 -0.2574 -0.0870  0.1426
 1594BOLB   C2B38242  15.904  23.436  12.327  0.1114  0.2919 -0.2265
 1594BOLB   C3B38243  16.211  23.582  12.350 -0.4237  0.0468  0.0833
 1594BOLB   C4B38244  16.404  24.011  12.208  0.2164 -0.1609 -0.0399
 1594BOLB   NC238245  18.777  22.439  14.094 -0.0052 -0.0442 -0.1929
 1594BOLB   PO238246  18.464  22.355  13.698 -0.0815 -0.2725  0.0488
 1594BOLB   GL338247  18.076  22.305  13.490  0.0332  0.1101 -0.2922
 1594BOLB   GL438248  17.906  22.385  13.788 -0.0979 -0.0180 -0.2280
 1594BOLB   C1C38249  17.696  22.564  13.292 -0.1607 -0.0423  0.2760
 1594BOLB   C2C38250  17.477  22.776  12.945  0.1117  0.2936  0.1156
 1594BOLB   C3C38251  17.049  23.007  13.061  0.1303  0.5163 -0.1523
 1594BOLB   C4C38252  16.816  23.306  13.050 -0.0442 -0.1011 -0.5365
 1594BOLB   C1D38253  17.576  22.521  13.784  0.0820  0.1596  0.0703
 1594BOLB   C2D38254  17.377  22.827  14.043 -0.3938  0.3309 -0.2117
 1594BOLB   C3D38255  16.887  23.037  14.049 -0.0402  0.1986 -0.2650
 1594BOLB   C4D38256  16.526  23.161  13.865  0.3142 -0.0050  0.3176
 1595BOLB   NC138257   7.811  24.879  18.147 -0.2907  0.2369  0.0190
 1595BOLB   PO138258   8.195  25.020  18.179  0.0116  0.2368 -0.1597
 1595BOLB   GL138259   8.274  25.246  18.486 -0.5496 -0.0716  0.0262
 1595BOLB   GL238260   8.562  25.377  18.350  0.0154 -0.2323 -0.1676
 1595BOLB   C1A38261   8.412  25.406  18.826 -0.0388 -0.0774  0.0390
 1595BOLB   C2A38262   8.481  25.833  19.080 -0.1400 -0.1164  0.3034
 1595BOLB   C3A38263   8.614  25.882  19.452 -0.0509 -0.4414 -0.0406
 1595BOLB   C4A38264   8.582  25.662  19.827  0.0904  0.0422  0.1892
 1595BOLB   C1B38265   8.797  25.674  18.611  0.2127 -0.0573 -0.2885
 1595BOLB   C2B38266   8.932  25.677  18.943  0.1726 -0.3730 -0.3084
 1595BOLB   C3B38267   8.997  25.565  19.353 -0.1685  0.1185  0.2327
 1595BOLB   C4B38268   9.126  25.854  19.584 -0.0974  0.2278 -0.2532
 1595BOLB   NC238269   7.403  26.454  22.030 -0.0835 -0.0292 -0.0922
 1595BOLB   PO238270   7.178  26.544  21.680  0.0776  0.0874 -0.2131
 1595BOLB   GL338271   7.266  26.209  21.596  0.0031  0.1355  0.1734
 1595BOLB   GL438272   7.170  26.161  21.262  0.1572  0.0523  0.0398
 1595BOLB   C1C38273   7.422  25.731  21.334 -0.0841  0.0642  0.1173
 1595BOLB   C2C38274   7.549  25.570  20.904  0.0283 -0.5757 -0.3505
 1595BOLB   C3C38275   7.920  25.578  20.532 -0.2168 -0.1199  0.4720
 1595BOLB   C4C38276   8.370  25.541  20.241  0.3012 -0.6147  0.3646
 1595BOLB   C1D38277   7.354  26.023  20.890 -0.0395  0.0791 -0.0601
 1595BOLB   C2D38278   7.317  25.849  20.524  0.1728  0.2459  0.4557
 1595BOLB   C3D38279   7.330  25.770  20.068 -0.2339  0.0296  0.1962
 1595BOLB   C4D38280   7.485  25.726  19.649 -0.0860  0.2557  0.0339
 1596BOLB   NC138281   5.921  15.268   3.918  0.1886  0.0774 -0.2038
 1596BOLB   PO138282   5.656  14.831   4.050 -0.1045 -0.2230  0.1833
 1596BOLB   GL138283   5.762  14.789   3.645 -0.2892 -0.2649 -0.5582
 1596BOLB   GL238284   6.057  14.624   3.795  0.1472 -0.3488  0.0089
 1596BOLB   C1A38285   5.924  14.670   3.251 -0.4408 -0.0659  0.2416
 1596BOLB   C2A38286   6.167  14.348   3.124  0.0889 -0.2433 -0.2045
 1596BOLB   C3A38287   6.272  14.034   3.173  0.0203 -0.0327 -0.2327
 1596BOLB   C4A38288   6.355  13.785   2.899 -0.0655  0.0849  0.0152
 1596BOLB   C1B38289   6.092  14.231   3.633  0.2334 -0.1210  0.0277
 1596BOLB   C2B38290   6.073  13.802   3.583  0.2076 -0.3581  0.1782
 1596BOLB   C3B38291   5.868  13.483   3.717  0.1316  0.1274 -0.2790
 1596BOLB   C4B38292   5.674  13.086   3.729 -0.1895 -0.2394 -0.0149
 1596BOLB   NC238293   7.405  13.021   0.534 -0.1339  0.1069 -0.4343
 1596BOLB   PO238294   7.036  12.863   0.789 -0.0915 -0.1920  0.2935
 1596BOLB   GL338295   7.132  13.013   1.233 -0.0419 -0.0749  0.0251
 1596BOLB   GL438296   7.014  12.763   1.476 -0.1606 -0.1626  0.2411
 1596BOLB   C1C38297   7.102  13.246   1.577  0.1948  0.2334  0.1117
 1596BOLB   C2C38298   6.849  13.401   1.875 -0.4988 -0.1570 -0.1807
 1596BOLB   C3C38299   6.582  13.314   2.229  0.1206 -0.0128 -0.0450
 1596BOLB   C4C38300   6.444  13.513   2.620 -0.0487 -0.1552 -0.2515
 1596BOLB   C1D38301   6.898  12.895   1.943  0.0535 -0.0526  0.3249
 1596BOLB   C2D38302   6.713  12.800   2.221 -0.3583  0.1174 -0.0367
 1596BOLB   C3D38303   6.535  13.001   2.574  0.3791  0.3334  0.1499
 1596BOLB   C4D38304   6.586  13.164   2.921 -0.2370  0.0167 -0.1746
 1597BOLB   NC138305   5.145  23.890  17.807 -0.2081  0.1968 -0.0609
 1597BOLB   PO138306   4.980  24.138  18.043 -0.0212  0.1011 -0.1941
 1597BOLB   GL138307   4.982  24.093  18.448  0.1422  0.0794  0.5222
 1597BOLB   GL238308   4.710  24.123  18.502 -0.1277 -0.1243  0.1429
 1597BOLB   C1A38309   5.066  24.377  18.791 -0.0631 -0.0595  0.1496
 1597BOLB   C2A38310   4.993  24.436  19.193  0.0948 -0.0374 -0.1818
 1597BOLB   C3A38311   5.054  24.405  19.665 -0.5728  0.0051 -0.0963
 1597BOLB   C4A38312   5.286  24.465  20.059 -0.0670 -0.0235  0.0103
 1597BOLB   C1B38313   4.677  24.165  18.944 -0.3049 -0.0018 -0.2602
 1597BOLB   C2B38314   4.451  24.307  19.329 -0.1956 -0.0927  0.0008
 1597BOLB   C3B38315   4.302  24.506  19.727 -0.1561  0.2076  0.4504
 1597BOLB   C4B38316   3.968  24.397  19.965 -0.2731  0.3930  0.3848
 1597BOLB   NC238317   4.265  25.194  22.153 -0.2156  0.1557  0.1495
 1597BOLB   PO238318   4.065  24.855  21.930 -0.1262 -0.1888 -0.0657
 1597BOLB   GL338319   4.146  24.737  21.528 -0.1494 -0.0813  0.1826
 1597BOLB   GL438320   3.863  24.560  21.377  0.2058  0.4289  0.2213
 1597BOLB   C1C38321   4.493  24.963  21.278 -0.1403  0.0804  0.0027
 1597BOLB   C2C38322   4.809  24.843  20.984  0.1738 -0.2643  0.1390
 1597BOLB   C3C38323   5.018  24.538  20.713 -0.1288  0.1936  0.0658
 1597BOLB   C4C38324   5.332  24.663  20.422  0.1855 -0.0153 -0.1642
 1597BOLB   C1D38325   4.144  24.566  21.036  0.0733 -0.3003 -0.1228
 1597BOLB   C2D38326   4.492  24.524  20.675  0.0728  0.2122  0.2747
 1597BOLB   C3D38327   4.324  24.694  20.217 -0.0378 -0.3434  0.1829
 1597BOLB   C4D38328   4.534  24.893  19.890 -0.0497  0.0925  0.0169
 1598BOLB   NC138329   2.220  23.571   4.876 -0.1420 -0.3232  0.1555
 1598BOLB   PO138330   1.885  23.681   4.586  0.0638 -0.1799 -0.1217
 1598BOLB   GL138331   1.970  23.612   4.071  0.0360 -0.0799  0.1926
 1598BOLB   GL238332   1.663  23.642   3.965  0.0203 -0.2665 -0.2316
 1598BOLB   C1A38333   1.847  23.328   3.663 -0.0954  0.0348  0.1150
 1598BOLB   C2A38334   1.761  23.579   3.283 -0.1724  0.0755 -0.3652
 1598BOLB   C3A38335   1.634  23.873   2.933  0.0329  0.0304  0.3181
 1598BOLB   C4A38336   1.520  24.024   2.458  0.4120 -0.0141 -0.0897
 1598BOLB   C1B38337   1.696  23.918   3.694  0.0110  0.1778  0.1385
 1598BOLB   C2B38338   1.830  24.066   3.349 -0.0945 -0.1540  0.0199
 1598BOLB   C3B38339   1.721  24.385   3.089 -0.0426  0.1858  0.0665
 1598BOLB   C4B38340   1.490  24.740   3.004  0.2311  0.1803  0.2079
 1598BOLB   NC238341  -0.395  25.257   1.384 -0.2616  0.2502 -0.1530
 1598BOLB   PO238342  -0.651  25.355   1.749  0.3252  0.0710  0.0720
 1598BOLB   GL338343  -0.292  25.172   1.959 -0.0188 -0.0396 -0.0992
 1598BOLB   GL438344  -0.145  25.435   2.068 -0.0001 -0.1307  0.1375
 1598BOLB   C1C38345   0.019  24.848   1.986 -0.0705 -0.2128  0.0241
 1598BOLB   C2C38346   0.484  24.662   1.996 -0.1265  0.1869  0.0641
 1598BOLB   C3C38347   0.930  24.571   2.070 -0.0089  0.0982  0.2699
 1598BOLB   C4C38348   1.322  24.300   2.259  0.0596 -0.0435  0.0065
 1598BOLB   C1D38349  -0.002  25.192   2.391 -0.0107 -0.0637 -0.2386
 1598BOLB   C2D38350  -0.011  25.029   2.727 -0.4890 -0.1743  0.4325
 1598BOLB   C3D38351  -0.032  24.615   2.809  0.0283  0.0197 -0.0744
 1598BOLB   C4D38352  -0.142  24.159   3.025  0.3215 -0.0158 -0.3896
 1599BOLB   NC138353  12.029  17.631  14.070 -0.2144 -0.1348 -0.0029
 1599BOLB   PO138354  12.114  17.799  14.474 -0.2270 -0.0858  0.0479
 1599BOLB   GL138355  12.584  17.868  14.496  0.0483 -0.0264 -0.0359
 1599BOLB   GL238356  12.830  18.076  14.341  0.0282 -0.0029 -0.0748
 1599BOLB   C1A38357  12.934  17.615  14.591  0.2762  0.1956  0.1191
 1599BOLB   C2A38358  13.220  17.429  14.912  0.0684  0.0604  0.0947
 1599BOLB   C3A38359  13.504  17.283  15.151 -0.1847 -0.6965 -0.2136
 1599BOLB   C4A38360  13.552  17.064  15.501  0.0175 -0.0290  0.3177
 1599BOLB   C1B38361  13.274  17.905  14.182 -0.1277  0.1713 -0.3111
 1599BOLB   C2B38362  13.635  17.774  14.305 -0.1914  0.1852  0.2478
 1599BOLB   C3B38363  13.788  17.416  14.587 -0.1202  0.2746 -0.3042
 1599BOLB   C4B38364  14.030  17.012  14.590  0.1311 -0.1551 -0.2390
 1599BOLB   NC238365  15.190  16.289  16.836  0.0520  0.1117  0.0572
 1599BOLB   PO238366  15.161  16.132  16.325 -0.0876 -0.4405 -0.1971
 1599BOLB   GL338367  14.625  16.301  16.477 -0.1557  0.1551  0.0931
 1599BOLB   GL438368  14.668  16.576  16.693  0.0346  0.2514  0.1852
 1599BOLB   C1C38369  14.284  16.027  16.618 -0.1148  0.0787  0.0383
 1599BOLB   C2C38370  13.834  16.194  16.516  0.2643 -0.0499 -0.0571
 1599BOLB   C3C38371  13.599  16.502  16.225  0.2448 -0.2065  0.0651
 1599BOLB   C4C38372  13.749  16.831  15.814  0.0623 -0.2808  0.0402
 1599BOLB   C1D38373  14.594  16.919  16.763 -0.1387 -0.0146 -0.1524
 1599BOLB   C2D38374  14.184  17.069  16.549 -0.0380  0.2568  0.1614
 1599BOLB   C3D38375  13.877  17.412  16.503  0.3604 -0.3375  0.2545
 1599BOLB   C4D38376  13.439  17.524  16.405  0.1893  0.2222  0.1966
 1600BOLB   NC138377  10.437  16.373   4.445  0.1876 -0.1654 -0.2091
 1600BOLB   PO138378  10.304  16.079   4.749  0.2691 -0.1737 -0.2273
 1600BOLB   GL138379  10.501  15.800   4.487  0.0451  0.0813 -0.2056
 1600BOLB   GL238380  10.272  15.526   4.382 -0.1275 -0.2599 -0.3666
 1600BOLB   C1A38381  10.689  15.546   4.120 -0.3754 -0.1233  0.1322
 1600BOLB   C2A38382  11.083  15.309   4.083  0.1897 -0.0189 -0.2752
 1600BOLB   C3A38383  11.430  15.097   4.000 -0.1263 -0.1850 -0.0253
 1600BOLB   C4A38384  11.738  14.760   3.920  0.2029  0.0492  0.3179
 1600BOLB   C1B38385  10.244  15.173   4.218  0.0299 -0.0333  0.0194
 1600BOLB   C2B38386   9.961  14.937   3.863 -0.0144 -0.0738  0.1512
 1600BOLB   C3B38387   9.861  14.791   3.504 -0.1443  0.0381 -0.2069
 1600BOLB   C4B38388   9.922  14.586   3.110 -0.1063 -0.0325  0.1731
 1600BOLB   NC238389  11.855  12.310   2.309  0.0387 -0.0967  0.2218
 1600BOLB   PO238390  12.055  12.748   2.483 -0.1239 -0.2273  0.6503
 1600BOLB   GL338391  11.836  13.179   2.586 -0.2205 -0.0188 -0.2533
 1600BOLB   GL438392  11.832  13.255   3.009  0.0863  0.1151  0.2753
 1600BOLB   C1C38393  11.616  13.574   2.643 -0.2925  0.2119 -0.1140
 1600BOLB   C2C38394  11.630  14.005   2.877  0.0886  0.0308 -0.0492
 1600BOLB   C3C38395  11.488  14.314   3.181 -0.2187  0.0709 -0.2089
 1600BOLB   C4C38396  11.487  14.540   3.600 -0.1276  0.1033 -0.1206
 1600BOLB   C1D38397  12.096  13.424   3.411  0.0729 -0.0570  0.1125
 1600BOLB   C2D38398  12.505  13.248   3.600 -0.4222  0.1044  0.1489
 1600BOLB   C3D38399  12.862  13.323   4.018 -0.0475  0.1387 -0.0393
 1600BOLB   C4D38400  13.011  13.393   4.363 -0.4433  0.2098  0.2267
 1601BOLB   NC138401  13.949  24.180   7.443  0.3186  0.0094 -0.0245
 1601BOLB   PO138402  13.786  24.576   7.529  0.3013  0.0302  0.1782
 1601BOLB   GL138403  14.088  24.870   7.556  0.2528 -0.0861  0.0907
 1601BOLB   GL238404  14.326  24.832   7.804 -0.3422 -0.0712 -0.1815
 1601BOLB   C1A38405  14.361  25.208   7.426 -0.0006  0.2573 -0.0536
 1601BOLB   C2A38406  14.671  25.553   7.298  0.1106  0.0777 -0.1828
 1601BOLB   C3A38407  14.935  25.963   7.269 -0.0824  0.0474 -0.0092
 1601BOLB   C4A38408  15.133  26.296   7.106  0.0212 -0.0065 -0.0875
 1601BOLB   C1B38409  14.832  24.947   7.811 -0.1181 -0.0811  0.3133
 1601BOLB   C2B38410  15.303  24.932   7.797  0.5012  0.2533  0.5172
 1601BOLB   C3B38411  15.630  24.850   7.424  0.2155 -0.0310 -0.3601
 1601BOLB   C4B38412  16.061  24.990   7.408  0.2715 -0.0727  0.1070
 1601BOLB   NC238413  16.229  27.873   5.878 -0.1003 -0.0735  0.2101
 1601BOLB   PO238414  16.607  27.700   6.062  0.0983 -0.0034 -0.0953
 1601BOLB   GL338415  16.340  27.309   6.014  0.1702 -0.0197 -0.2465
 1601BOLB   GL438416  16.097  27.334   5.787 -0.0728  0.0021 -0.0871
 1601BOLB   C1C38417  16.164  27.014   6.243 -0.1388  0.1959 -0.3947
 1601BOLB   C2C38418  15.810  26.762   6.391 -0.1798 -0.0308 -0.0197
 1601BOLB   C3C38419  15.562  26.684   6.610 -0.4020  0.3203 -0.0348
 1601BOLB   C4C38420  15.223  26.486   6.686 -0.3655 -0.2942  0.0343
 1601BOLB   C1D38421  15.848  26.921   5.841  0.0599 -0.0088 -0.1331
 1601BOLB   C2D38422  15.484  26.688   6.023 -0.0270 -0.3136  0.3355
 1601BOLB   C3D38423  15.150  26.808   6.235  0.0510 -0.1379  0.0758
 1601BOLB   C4D38424  14.744  26.645   6.393 -0.2526  0.0550 -0.2225
 1602BOLB   NC138425   4.827  16.900  17.282  0.0284 -0.1489 -0.1069
 1602BOLB   PO138426   5.198  16.727  17.228 -0.2417  0.2795  0.0594
 1602BOLB   GL138427   5.268  16.285  17.336  0.1889 -0.2168  0.0070
 1602BOLB   GL238428   5.034  15.987  17.171  0.3478  0.2513  0.1275
 1602BOLB   C1A38429   5.435  15.993  17.511 -0.0584  0.1158 -0.0924
 1602BOLB   C2A38430   5.534  15.692  17.765 -0.1223 -0.2448 -0.0872
 1602BOLB   C3A38431   5.325  15.443  18.136 -0.0085 -0.2573  0.0389
 1602BOLB   C4A38432   5.342  15.153  18.310  0.0454 -0.2748 -0.1722
 1602BOLB   C1B38433   5.141  15.597  17.395  0.1991 -0.2923  0.4537
 1602BOLB   C2B38434   5.300  15.262  17.694 -0.0117 -0.1260 -0.1266
 1602BOLB   C3B38435   5.143  14.830  17.979  0.0968  0.0899  0.3485
 1602BOLB   C4B38436   5.042  14.365  18.035 -0.1997  0.0557 -0.0787
 1602BOLB   NC238437   5.974  13.144  18.923  0.3733  0.1117  0.2434
 1602BOLB   PO238438   5.915  12.799  18.589  0.1857 -0.2458  0.1624
 1602BOLB   GL338439   5.849  13.134  18.312 -0.0352  0.3841  0.0394
 1602BOLB   GL438440   5.699  13.338  18.530  0.2441 -0.2908  0.0555
 1602BOLB   C1C38441   5.782  13.474  18.078 -0.1868 -0.1467  0.0858
 1602BOLB   C2C38442   5.643  13.784  18.293 -0.1460  0.1594  0.0605
 1602BOLB   C3C38443   5.460  14.212  18.496 -0.0876  0.2177  0.0399
 1602BOLB   C4C38444   5.375  14.721  18.523 -0.1595  0.1244 -0.0024
 1602BOLB   C1D38445   5.323  13.375  18.468  0.3157 -0.0097  0.2666
 1602BOLB   C2D38446   5.089  13.445  18.123 -0.0273  0.2081  0.0283
 1602BOLB   C3D38447   4.757  13.524  17.845 -0.0725 -0.0893 -0.1122
 1602BOLB   C4D38448   4.753  13.638  17.307  0.0593 -0.2348  0.1680
 1603BOLB   NC138449   2.182  22.104   3.541 -0.0767  0.3912  0.3419
 1603BOLB   PO138450   2.127  21.649   3.608  0.0662 -0.1950  0.3160
 1603BOLB   GL138451   1.907  21.745   3.218  0.0616 -0.3285  0.3875
 1603BOLB   GL238452   1.598  21.533   3.213  0.0609  0.1308 -0.0562
 1603BOLB   C1A38453   1.739  22.097   2.854  0.5737 -0.1454  0.1007
 1603BOLB   C2A38454   1.418  22.274   2.682 -0.4269  0.3112 -0.1594
 1603BOLB   C3A38455   1.325  22.647   2.489  0.0226  0.2945  0.2228
 1603BOLB   C4A38456   1.204  23.111   2.567 -0.0434  0.0710  0.1999
 1603BOLB   C1B38457   1.384  21.354   2.909 -0.1010 -0.1739  0.1493
 1603BOLB   C2B38458   1.019  21.364   2.726 -0.3030 -0.1899 -0.0456
 1603BOLB   C3B38459   0.602  21.362   2.488 -0.3890  0.1010  0.1282
 1603BOLB   C4B38460   0.808  20.969   2.359  0.5732  0.1969  0.0017
 1603BOLB   NC238461   0.069  25.020   0.955  0.2368 -0.0647 -0.0840
 1603BOLB   PO238462  -0.335  24.872   1.033  0.2234 -0.0570 -0.1323
 1603BOLB   GL338463  -0.115  24.801   1.393  0.1065  0.1765 -0.1152
 1603BOLB   GL438464  -0.346  24.797   1.554 -0.3845 -0.2357 -0.2075
 1603BOLB   C1C38465   0.134  24.470   1.675  0.1565 -0.1442 -0.1265
 1603BOLB   C2C38466   0.505  24.141   1.825 -0.1494 -0.0717 -0.1347
 1603BOLB   C3C38467   0.685  23.713   2.063  0.2950  0.0100 -0.0438
 1603BOLB   C4C38468   0.990  23.398   2.287 -0.2375 -0.0208  0.0673
 1603BOLB   C1D38469  -0.323  24.463   1.868 -0.1756  0.1628  0.3617
 1603BOLB   C2D38470   0.099  24.288   2.097  0.0371 -0.0013  0.1572
 1603BOLB   C3D38471   0.544  24.228   2.338  0.1974 -0.0904  0.1529
 1603BOLB   C4D38472   0.813  24.389   2.692  0.1586 -0.0610  0.0167
 1604BOLB   NC138473  13.789  18.451   9.670 -0.0896  0.0455  0.1530
 1604BOLB   PO138474  14.080  18.065   9.642  0.2188  0.2975 -0.0641
 1604BOLB   GL138475  14.462  17.895   9.844  0.2004 -0.0014 -0.1222
 1604BOLB   GL238476  14.608  17.640   9.690 -0.0438  0.1242 -0.2820
 1604BOLB   C1A38477  14.935  17.784  10.006  0.0630  0.0703 -0.1560
 1604BOLB   C2A38478  15.206  17.601  10.145  0.0623  0.3829 -0.2087
 1604BOLB   C3A38479  15.373  17.430  10.510  0.1256  0.2038  0.1227
 1604BOLB   C4A38480  15.477  17.090  10.757 -0.1659 -0.3225  0.0932
 1604BOLB   C1B38481  14.887  17.365   9.794 -0.0522 -0.0550 -0.0742
 1604BOLB   C2B38482  15.103  17.023   9.711  0.1415  0.0188 -0.3831
 1604BOLB   C3B38483  15.401  16.772   9.659  0.0600  0.3233  0.2180
 1604BOLB   C4B38484  15.644  16.356   9.789 -0.0583 -0.0411  0.0496
 1604BOLB   NC238485  18.320  15.855  11.025  0.2711 -0.0231 -0.2154
 1604BOLB   PO238486  17.978  16.032  11.374 -0.2105  0.2810  0.2280
 1604BOLB   GL338487  17.636  16.387  11.139  0.1568  0.1658 -0.1988
 1604BOLB   GL438488  17.407  16.207  10.959 -0.1638  0.0116 -0.0555
 1604BOLB   C1C38489  17.181  16.585  11.223  0.1744 -0.4686 -0.2023
 1604BOLB   C2C38490  16.696  16.670  11.173 -0.3230 -0.1071 -0.4354
 1604BOLB   C3C38491  16.261  16.919  11.055 -0.1558 -0.1267  0.2221
 1604BOLB   C4C38492  15.912  16.982  10.857 -0.0229 -0.0712  0.3195
 1604BOLB   C1D38493  17.130  16.348  10.793  0.1385 -0.2177 -0.0651
 1604BOLB   C2D38494  16.769  16.326  10.704  0.1174  0.2476  0.3237
 1604BOLB   C3D38495  16.311  16.453  10.779  0.0906 -0.1837  0.2679
 1604BOLB   C4D38496  15.883  16.484  10.507 -0.0162  0.1510  0.3224
 1605BOLB   NC138497  13.232  18.537  13.476  0.0843  0.1308  0.0367
 1605BOLB   PO138498  13.183  18.104  13.432  0.1308  0.0053 -0.1903
 1605BOLB   GL138499  13.384  18.128  13.736 -0.0393 -0.0818  0.2187
 1605BOLB   GL238500  13.366  18.393  13.943  0.0050 -0.0974  0.0812
 1605BOLB   C1A38501  13.762  18.001  13.884  0.1416 -0.3269 -0.1819
 1605BOLB   C2A38502  14.152  17.771  14.000 -0.0739 -0.0432 -0.1726
 1605BOLB   C3A38503  14.315  17.374  14.253  0.0882  0.0215 -0.3853
 1605BOLB   C4A38504  14.486  17.155  14.668  0.0471 -0.0124  0.1043
 1605BOLB   C1B38505  13.605  18.290  14.343  0.1990 -0.1377  0.1129
 1605BOLB   C2B38506  13.912  18.050  14.556 -0.1213  0.0868 -0.0285
 1605BOLB   C3B38507  14.334  18.006  14.567  0.0342  0.0225 -0.0571
 1605BOLB   C4B38508  14.355  17.590  14.748  0.3192  0.0199 -0.2548
 1605BOLB   NC238509  15.741  15.258  14.820 -0.0799  0.1939 -0.2803
 1605BOLB   PO238510  15.408  15.185  14.912 -0.0373 -0.1873 -0.0211
 1605BOLB   GL338511  15.284  15.551  14.913  0.1090 -0.2229 -0.1446
 1605BOLB   GL438512  15.405  15.704  14.769  0.0992  0.2654 -0.2267
 1605BOLB   C1C38513  14.948  15.802  15.064  0.0693 -0.1857  0.1856
 1605BOLB   C2C38514  14.805  16.213  14.982  0.1128  0.0551 -0.0697
 1605BOLB   C3C38515  14.507  16.445  15.043  0.3799 -0.3289 -0.3431
 1605BOLB   C4C38516  14.360  16.903  14.950 -0.2413  0.1877 -0.2718
 1605BOLB   C1D38517  15.208  16.120  14.752 -0.2440 -0.0837 -0.0729
 1605BOLB   C2D38518  15.013  16.465  14.623  0.3726 -0.2116 -0.1263
 1605BOLB   C3D38519  14.599  16.644  14.554 -0.1532 -0.0206 -0.1204
 1605BOLB   C4D38520  14.201  16.661  14.233 -0.1943  0.0557 -0.2595
 1606BOLB   NC138521   1.579   7.274  15.389  0.2700  0.1337  0.2254
 1606BOLB   PO138522   1.337   7.611  15.414 -0.0130  0.0190 -0.0566
 1606BOLB   GL138523   1.432   8.046  15.328  0.3650  0.0916  0.1670
 1606BOLB   GL238524   1.057   8.118  15.205 -0.2346 -0.0629  0.3850
 1606BOLB   C1A38525   1.351   8.529  15.089 -0.0196 -0.0210 -0.0585
 1606BOLB   C2A38526   1.187   8.974  15.086 -0.1167 -0.0389 -0.3244
 1606BOLB   C3A38527   1.282   9.384  15.031 -0.2385  0.0575  0.1183
 1606BOLB   C4A38528   1.122   9.622  15.272  0.0456  0.0672 -0.0846
 1606BOLB   C1B38529   1.074   8.341  15.506  0.4455  0.0017  0.1102
 1606BOLB   C2B38530   0.921   8.722  15.803  0.1093  0.0802  0.2172
 1606BOLB   C3B38531   0.597   8.848  16.107  0.0972 -0.0914  0.1178
 1606BOLB   C4B38532   0.212   8.935  16.319  0.1424  0.0269 -0.0961
 1606BOLB   NC238533   1.237   8.170  16.809  0.1896  0.2478 -0.1818
 1606BOLB   PO238534   0.885   7.868  16.773  0.1579 -0.0202 -0.0552
 1606BOLB   GL338535   0.855   8.401  16.660 -0.0797 -0.2221  0.1508
 1606BOLB   GL438536   0.577   8.597  16.797  0.0532  0.1056 -0.0196
 1606BOLB   C1C38537   0.900   8.567  16.351 -0.2332  0.2412 -0.1726
 1606BOLB   C2C38538   1.123   8.880  16.186 -0.0328 -0.1651  0.1489
 1606BOLB   C3C38539   1.074   9.189  15.941  0.3173 -0.1484  0.1049
 1606BOLB   C4C38540   1.051   9.573  15.647  0.3686  0.0050  0.2139
 1606BOLB   C1D38541   0.909   8.925  16.663  0.1675 -0.1681 -0.0247
 1606BOLB   C2D38542   0.922   9.266  16.443  0.1458 -0.0520  0.6049
 1606BOLB   C3D38543   0.861   9.699  16.482  0.3613  0.2322  0.0022
 1606BOLB   C4D38544   0.851  10.189  16.257 -0.2107  0.1660 -0.0992
 1607BOLB   NC138545   8.130  16.375  15.471 -0.1956 -0.2987 -0.3451
 1607BOLB   PO138546   8.403  16.043  15.747  0.0556 -0.0436 -0.0225
 1607BOLB   GL138547   8.409  15.686  16.048 -0.1953 -0.1888  0.3152
 1607BOLB   GL238548   8.140  15.543  15.947  0.1145  0.1210  0.1773
 1607BOLB   C1A38549   8.461  15.218  16.243  0.2382  0.0335  0.0238
 1607BOLB   C2A38550   8.632  15.126  16.583  0.0796  0.0868 -0.0003
 1607BOLB   C3A38551   8.821  14.782  16.824  0.4052  0.0339 -0.1112
 1607BOLB   C4A38552   8.929  14.382  16.946  0.3684 -0.3621  0.2470
 1607BOLB   C1B38553   7.809  15.390  16.248  0.1535  0.2548 -0.3713
 1607BOLB   C2B38554   7.579  15.217  16.581 -0.1587  0.1369 -0.1085
 1607BOLB   C3B38555   7.363  15.078  16.993  0.3069 -0.1633 -0.3263
 1607BOLB   C4B38556   7.593  14.898  17.378 -0.1628  0.1440 -0.0791
 1607BOLB   NC238557   9.675  13.756  19.027 -0.0725  0.1691 -0.3333
 1607BOLB   PO238558   9.208  13.886  19.085  0.0040  0.1695 -0.1226
 1607BOLB   GL338559   9.263  13.964  18.706  0.0223 -0.1925  0.2526
 1607BOLB   GL438560   9.044  14.293  18.759  0.1138 -0.1686  0.1999
 1607BOLB   C1C38561   9.216  13.866  18.244  0.1234 -0.0250 -0.1581
 1607BOLB   C2C38562   9.042  13.633  17.906 -0.0496  0.1078 -0.4280
 1607BOLB   C3C38563   9.117  13.865  17.527 -0.2483 -0.1578  0.1853
 1607BOLB   C4C38564   9.102  14.085  17.097 -0.0001 -0.1294 -0.2509
 1607BOLB   C1D38565   8.941  14.722  18.578 -0.2040  0.0794  0.2200
 1607BOLB   C2D38566   8.770  14.909  18.223  0.2420  0.0815  0.0057
 1607BOLB   C3D38567   8.509  15.123  17.960 -0.0840 -0.2155  0.1716
 1607BOLB   C4D38568   8.612  15.267  17.497  0.3937 -0.0803  0.3762
 1608BOLB   NC138569  11.183  25.289   6.149  0.3123 -0.4077  0.0070
 1608BOLB   PO138570  11.065  25.580   5.850 -0.3406 -0.1099 -0.3637
 1608BOLB   GL138571  11.279  26.044   5.707  0.4853  0.1724 -0.0537
 1608BOLB   GL238572  11.310  25.988   5.423 -0.1822 -0.0415 -0.0862
 1608BOLB   C1A38573  11.687  26.225   5.826  0.2728 -0.2510 -0.1667
 1608BOLB   C2A38574  12.001  26.371   5.591 -0.1658 -0.0935  0.0093
 1608BOLB   C3A38575  12.435  26.458   5.430 -0.1609 -0.1453 -0.0468
 1608BOLB   C4A38576  12.903  26.643   5.447  0.4512  0.2533 -0.2132
 1608BOLB   C1B38577  11.490  26.347   5.344  0.1810  0.1426  0.0729
 1608BOLB   C2B38578  11.680  26.592   5.207  0.0627  0.2268 -0.1760
 1608BOLB   C3B38579  12.060  26.776   5.134 -0.1671 -0.0900  0.1061
 1608BOLB   C4B38580  12.589  26.834   5.019 -0.0609 -0.1588  0.1819
 1608BOLB   NC238581  14.552  28.555   4.563 -0.0721  0.3094  0.2431
 1608BOLB   PO238582  14.130  28.589   4.863 -0.1433  0.1901 -0.0589
 1608BOLB   GL338583  14.013  28.302   5.025  0.1627  0.0793 -0.3836
 1608BOLB   GL438584  13.980  28.420   5.288  0.0459 -0.1748  0.1226
 1608BOLB   C1C38585  13.986  27.895   5.271 -0.2654  0.0291 -0.0694
 1608BOLB   C2C38586  13.894  27.472   5.207  0.0863 -0.2444  0.1962
 1608BOLB   C3C38587  13.715  27.060   5.405  0.2076 -0.3000  0.0062
 1608BOLB   C4C38588  13.259  26.994   5.606 -0.0400 -0.0277  0.0473
 1608BOLB   C1D38589  13.952  28.323   5.698 -0.0880  0.0607 -0.3857
 1608BOLB   C2D38590  14.098  28.134   6.160 -0.0110 -0.2856  0.2500
 1608BOLB   C3D38591  14.105  28.383   6.559  0.0082 -0.1788  0.0792
 1608BOLB   C4D38592  14.166  28.261   6.969 -0.0961 -0.1482  0.0168
 1609BOLB   NC138593  34.052  11.017   3.472 -0.0872  0.1127  0.2084
 1609BOLB   PO138594  34.358  11.331   3.448 -0.1824  0.0761 -0.1811
 1609BOLB   GL138595  34.542  11.570   3.222  0.0443 -0.1182 -0.1158
 1609BOLB   GL238596  34.833  11.587   3.327  0.2046  0.4495  0.1565
 1609BOLB   C1A38597  34.628  12.027   3.177  0.0746 -0.1274 -0.1325
 1609BOLB   C2A38598  34.466  12.408   3.136  0.2058  0.2332  0.3097
 1609BOLB   C3A38599  34.420  12.747   3.046  0.2375 -0.0989 -0.0211
 1609BOLB   C4A38600  34.394  13.214   2.910 -0.3670 -0.4124 -0.1940
 1609BOLB   C1B38601  35.094  11.940   3.454  0.0328 -0.0409  0.1182
 1609BOLB   C2B38602  35.005  12.327   3.379  0.3486 -0.0230 -0.1172
 1609BOLB   C3B38603  34.766  12.668   3.424  0.0140  0.0675  0.1794
 1609BOLB   C4B38604  34.943  13.017   3.372 -0.2858  0.2896  0.0763
 1609BOLB   NC238605  34.000  14.270   0.627 -0.1224 -0.0546  0.2164
 1609BOLB   PO238606  34.140  14.607   0.954  0.0291 -0.2895 -0.2021
 1609BOLB   GL338607  34.579  14.364   0.969  0.0021 -0.0207  0.2523
 1609BOLB   GL438608  34.893  14.497   0.966 -0.0447  0.0175 -0.2711
 1609BOLB   C1C38609  34.603  14.167   1.439 -0.0419  0.1560 -0.1542
 1609BOLB   C2C38610  34.694  13.918   1.816  0.1876 -0.1757 -0.0098
 1609BOLB   C3C38611  34.632  13.774   2.258 -0.0780  0.0022  0.0010
 1609BOLB   C4C38612  34.678  13.318   2.455 -0.2337 -0.0989  0.0629
 1609BOLB   C1D38613  35.087  14.798   1.101 -0.2468 -0.2931 -0.0537
 1609BOLB   C2D38614  35.215  15.073   1.488  0.2126 -0.0844  0.3511
 1609BOLB   C3D38615  35.120  15.212   1.911 -0.5588 -0.3779  0.1674
 1609BOLB   C4D38616  35.301  15.290   2.260 -0.0997 -0.2336  0.0693
 1610BOLB   NC138617   5.476  15.537  16.288 -0.1460 -0.1818  0.0383
 1610BOLB   PO138618   5.377  15.353  15.949 -0.1372 -0.2613 -0.1868
 1610BOLB   GL138619   5.719  14.969  16.117 -0.0070  0.0595  0.1335
 1610BOLB   GL238620   5.593  14.879  16.455  0.0117 -0.1350  0.2111
 1610BOLB   C1A38621   5.767  14.412  16.118 -0.1677  0.2803 -0.2358
 1610BOLB   C2A38622   5.773  13.904  16.125  0.1559 -0.1928  0.1293
 1610BOLB   C3A38623   5.659  13.456  16.085 -0.1665 -0.0960  0.2766
 1610BOLB   C4A38624   5.924  13.105  15.894 -0.0411  0.0122 -0.1431
 1610BOLB   C1B38625   5.588  14.570  16.756  0.1232 -0.4616  0.0313
 1610BOLB   C2B38626   5.474  14.253  16.886  0.0479 -0.0930 -0.1675
 1610BOLB   C3B38627   5.690  13.891  17.124 -0.0587  0.0369 -0.1621
 1610BOLB   C4B38628   5.586  13.388  17.076 -0.0914  0.4326 -0.1527
 1610BOLB   NC238629   5.851  10.823  15.829  0.1368 -0.0325 -0.1359
 1610BOLB   PO238630   5.910  11.043  16.277  0.0458 -0.3205 -0.1926
 1610BOLB   GL338631   5.918  11.277  15.985  0.1337  0.0949 -0.4757
 1610BOLB   GL438632   5.668  11.234  15.616  0.2489 -0.1522 -0.1709
 1610BOLB   C1C38633   5.875  11.706  15.772  0.1253  0.0406  0.0759
 1610BOLB   C2C38634   6.043  12.121  15.827  0.4303 -0.1962  0.0513
 1610BOLB   C3C38635   5.942  12.486  15.685 -0.2111 -0.0350  0.1422
 1610BOLB   C4C38636   5.945  12.901  15.548 -0.2085 -0.0445  0.1160
 1610BOLB   C1D38637   5.302  11.529  15.613  0.1607 -0.0643 -0.0245
 1610BOLB   C2D38638   5.066  11.966  15.450  0.0468  0.0538  0.1030
 1610BOLB   C3D38639   4.921  12.308  15.092 -0.1708  0.0017  0.1582
 1610BOLB   C4D38640   4.851  12.381  14.630 -0.2466  0.1754 -0.1040
 1611BOLB   NC138641  14.464  19.179  10.889 -0.0804 -0.0268  0.4242
 1611BOLB   PO138642  14.576  19.257  10.314  0.0698 -0.0418  0.2252
 1611BOLB   GL138643  15.020  19.255  10.563  0.1403 -0.1646  0.2758
 1611BOLB   GL238644  15.277  19.317  10.695 -0.4162 -0.0211 -0.0889
 1611BOLB   C1A38645  15.417  19.100  10.305  0.2036  0.3865 -0.2853
 1611BOLB   C2A38646  15.560  18.722  10.247 -0.0372  0.2115  0.1409
 1611BOLB   C3A38647  15.757  18.376  10.413  0.0275  0.2231  0.5082
 1611BOLB   C4A38648  16.134  18.138  10.440  0.0687  0.1632  0.3968
 1611BOLB   C1B38649  15.356  18.932  10.809 -0.4250 -0.4402 -0.1755
 1611BOLB   C2B38650  15.749  18.790  10.735 -0.0375  0.2653  0.2424
 1611BOLB   C3B38651  16.154  18.577  10.753 -0.0170 -0.0018  0.2240
 1611BOLB   C4B38652  16.160  18.213  10.968 -0.0184 -0.1854 -0.1057
 1611BOLB   NC238653  18.546  17.656  11.189  0.1231  0.3602 -0.1010
 1611BOLB   PO238654  18.452  17.609  10.729  0.0794  0.1446 -0.1834
 1611BOLB   GL338655  17.934  17.614  10.684 -0.0665 -0.2370  0.1553
 1611BOLB   GL438656  17.909  17.747  10.342 -0.2949  0.1473 -0.1129
 1611BOLB   C1C38657  17.480  17.612  10.836 -0.1106  0.3729  0.0197
 1611BOLB   C2C38658  17.079  17.638  10.948 -0.1880 -0.0048  0.0596
 1611BOLB   C3C38659  16.734  17.717  10.708  0.2162  0.1812 -0.2879
 1611BOLB   C4C38660  16.390  17.869  10.625  0.2838 -0.0297  0.1831
 1611BOLB   C1D38661  17.564  17.810  10.360 -0.0968 -0.1299 -0.0897
 1611BOLB   C2D38662  17.178  17.773  10.397 -0.0205  0.0897  0.3735
 1611BOLB   C3D38663  16.850  17.464  10.309 -0.1048  0.0262 -0.4569
 1611BOLB   C4D38664  16.472  17.413  10.428  0.3222 -0.0072  0.0083
 1612BOLB   NC138665   6.684  26.815  17.022 -0.2349 -0.1788  0.0985
 1612BOLB   PO138666   7.102  26.721  16.775  0.2418 -0.3481 -0.0437
 1612BOLB   GL138667   7.190  27.128  17.004 -0.0852  0.1165  0.1366
 1612BOLB   GL238668   7.005  27.075  17.294 -0.2073 -0.0454  0.2048
 1612BOLB   C1A38669   7.273  27.506  17.245 -0.0122  0.1261  0.1178
 1612BOLB   C2A38670   7.561  27.847  17.432  0.0203  0.1611  0.1090
 1612BOLB   C3A38671   7.303  28.139  17.598  0.0222  0.1351 -0.2655
 1612BOLB   C4A38672   7.147  28.503  17.740  0.0565  0.1767 -0.1226
 1612BOLB   C1B38673   7.374  27.019  17.617  0.1030 -0.2748  0.4312
 1612BOLB   C2B38674   7.453  26.802  18.034  0.1994  0.7215 -0.0707
 1612BOLB   C3B38675   7.536  26.899  18.434  0.0759 -0.0707 -0.2583
 1612BOLB   C4B38676   7.616  26.991  18.940  0.0553 -0.0738  0.0520
 1612BOLB   NC238677   6.915  30.661  18.871 -0.0564  0.4446  0.4961
 1612BOLB   PO238678   7.223  30.568  18.596 -0.2445  0.1879 -0.2045
 1612BOLB   GL338679   7.163  30.382  18.234  0.1738  0.1709 -0.2167
 1612BOLB   GL438680   7.312  30.116  18.293  0.0065 -0.0590 -0.0468
 1612BOLB   C1C38681   6.926  30.107  17.909 -0.0526 -0.2224  0.3910
 1612BOLB   C2C38682   6.884  29.589  17.863  0.0777  0.0841 -0.1773
 1612BOLB   C3C38683   7.060  29.270  18.052 -0.1180 -0.0067  0.4852
 1612BOLB   C4C38684   7.185  28.898  17.913  0.4000 -0.2434  0.1839
 1612BOLB   C1D38685   7.399  29.826  17.988  0.0725  0.1076  0.3664
 1612BOLB   C2D38686   7.315  29.485  17.652 -0.0167  0.3589  0.1025
 1612BOLB   C3D38687   7.212  29.272  17.313 -0.2855 -0.0152  0.0635
 1612BOLB   C4D38688   7.053  29.043  16.937  0.3514 -0.2716 -0.2017
 1613BOLB   NC138689  10.557  26.403  14.991 -0.3499  0.2327  0.1451
 1613BOLB   PO138690  10.669  26.783  15.143  0.2440 -0.2802  0.0808
 1613BOLB   GL138691  11.006  27.006  15.218  0.3952  0.2231 -0.2811
 1613BOLB   GL238692  11.223  26.956  14.965 -0.3475 -0.0976 -0.1406
 1613BOLB   C1A38693  11.169  27.346  15.185 -0.2805 -0.2468  0.1799
 1613BOLB   C2A38694  11.375  27.665  15.383  0.3499 -0.0243 -0.2644
 1613BOLB   C3A38695  11.197  28.006  15.638  0.0750  0.1507 -0.3643
 1613BOLB   C4A38696  11.228  28.332  15.939 -0.0716 -0.0831 -0.0170
 1613BOLB   C1B38697  11.633  27.079  14.880  0.0509  0.2368  0.3048
 1613BOLB   C2B38698  11.927  27.361  14.580  0.1172 -0.0206 -0.1363
 1613BOLB   C3B38699  11.993  27.836  14.661 -0.2589 -0.4553 -0.0380
 1613BOLB   C4B38700  11.736  28.120  14.488  0.1482  0.1236 -0.2116
 1613BOLB   NC238701  11.570  30.751  17.278 -0.3570 -0.1402  0.1212
 1613BOLB   PO238702  11.326  30.363  17.038 -0.2323 -0.2242  0.0862
 1613BOLB   GL338703  11.392  30.039  16.823 -0.0753  0.0164  0.0015
 1613BOLB   GL438704  11.557  29.901  16.586  0.1401  0.0799 -0.1489
 1613BOLB   C1C38705  11.157  29.582  16.674 -0.3644 -0.4130  0.0840
 1613BOLB   C2C38706  11.275  29.201  16.716  0.0241  0.0998  0.1333
 1613BOLB   C3C38707  11.329  28.895  16.418 -0.0690  0.0314 -0.0094
 1613BOLB   C4C38708  11.142  28.570  16.229 -0.1615  0.1970  0.1344
 1613BOLB   C1D38709  11.722  29.491  16.563  0.1847 -0.2572  0.0850
 1613BOLB   C2D38710  11.753  29.133  16.386  0.2241  0.0240  0.1375
 1613BOLB   C3D38711  11.805  28.937  16.011  0.0618 -0.2510  0.2693
 1613BOLB   C4D38712  11.714  28.751  15.604  0.1959 -0.0905 -0.1025
 1614BOLB   NC138713   9.646  25.151   4.532 -0.0801 -0.0550 -0.1567
 1614BOLB   PO138714   9.396  24.887   4.344 -0.0098  0.2556 -0.2559
 1614BOLB   GL138715   9.678  25.068   4.032 -0.3453 -0.0864 -0.2357
 1614BOLB   GL238716   9.720  24.912   3.767 -0.0967  0.1378  0.3390
 1614BOLB   C1A38717   9.543  25.437   3.866  0.0040  0.1401  0.0502
 1614BOLB   C2A38718   9.268  25.657   3.517  0.1466 -0.1724  0.0818
 1614BOLB   C3A38719   9.320  26.020   3.260 -0.1179  0.0780 -0.1129
 1614BOLB   C4A38720   9.121  26.323   2.924  0.1531  0.5088 -0.0531
 1614BOLB   C1B38721   9.516  25.190   3.449 -0.0137 -0.1785 -0.0481
 1614BOLB   C2B38722   9.571  25.522   3.166 -0.0860 -0.2484  0.0239
 1614BOLB   C3B38723   9.970  25.732   2.812 -0.0214 -0.0478 -0.1410
 1614BOLB   C4B38724  10.152  25.684   2.424 -0.2612 -0.0342 -0.1833
 1614BOLB   NC238725   9.051  27.208   0.572 -0.0955  0.1804 -0.0132
 1614BOLB   PO238726   9.346  27.019   0.698  0.3887 -0.2006 -0.2813
 1614BOLB   GL338727   9.291  26.897   1.054  0.0652  0.0036  0.2873
 1614BOLB   GL438728   9.105  27.193   1.216  0.2704 -0.0331  0.1052
 1614BOLB   C1C38729   9.090  26.685   1.359 -0.0601  0.0312  0.0535
 1614BOLB   C2C38730   9.165  26.643   1.723 -0.2012  0.1943  0.0578
 1614BOLB   C3C38731   9.064  26.570   2.013 -0.0177 -0.1292 -0.2817
 1614BOLB   C4C38732   9.020  26.557   2.509  0.1087  0.1760  0.1049
 1614BOLB   C1D38733   8.850  27.095   1.509 -0.2853  0.0703  0.2141
 1614BOLB   C2D38734   8.673  26.667   1.625  0.2649  0.1345  0.0710
 1614BOLB   C3D38735   8.729  26.217   1.841 -0.0652 -0.3822  0.0130
 1614BOLB   C4D38736   8.738  26.225   2.240 -0.2520 -0.0978 -0.1451
 1615BOLB   NC138737   7.005  17.273  17.438  0.0103 -0.3117  0.0600
 1615BOLB   PO138738   7.090  17.340  17.853 -0.2221 -0.2329  0.0106
 1615BOLB   GL138739   7.157  17.363  18.155  0.0111 -0.0211  0.2068
 1615BOLB   GL238740   7.356  17.644  18.268  0.0879 -0.1097 -0.0766
 1615BOLB   C1A38741   6.778  17.147  18.343  0.0448 -0.0663 -0.1842
 1615BOLB   C2A38742   6.770  16.909  18.714  0.2402 -0.1683  0.1163
 1615BOLB   C3A38743   6.831  16.554  18.861  0.1576 -0.1292  0.2343
 1615BOLB   C4A38744   7.035  16.218  18.803 -0.3113 -0.1343  0.0761
 1615BOLB   C1B38745   7.417  17.702  18.692 -0.1087  0.0302  0.1691
 1615BOLB   C2B38746   7.631  17.491  18.921 -0.1344 -0.1710  0.2145
 1615BOLB   C3B38747   7.835  17.366  19.302 -0.2169  0.0638 -0.1635
 1615BOLB   C4B38748   8.157  17.468  19.517  0.0738 -0.3340  0.2625
 1615BOLB   NC238749   8.126  14.419  19.943 -0.0681  0.3065  0.0710
 1615BOLB   PO238750   7.665  14.212  20.003 -0.2237  0.0983 -0.1517
 1615BOLB   GL338751   7.477  14.597  19.933 -0.2704  0.0596 -0.2726
 1615BOLB   GL438752   7.806  14.695  19.696  0.0032 -0.2966 -0.0542
 1615BOLB   C1C38753   7.350  14.985  19.706  0.0712  0.1287  0.1280
 1615BOLB   C2C38754   7.301  15.366  19.518 -0.1000 -0.0655  0.1917
 1615BOLB   C3C38755   7.139  15.696  19.364 -0.1822 -0.1153 -0.0716
 1615BOLB   C4C38756   7.078  15.906  19.030 -0.1692 -0.1714  0.0672
 1615BOLB   C1D38757   7.846  15.030  19.474 -0.1365  0.2918 -0.1722
 1615BOLB   C2D38758   7.937  15.449  19.243  0.0625 -0.0286 -0.0178
 1615BOLB   C3D38759   8.060  15.726  18.916 -0.4840 -0.0254 -0.0622
 1615BOLB   C4D38760   7.993  15.986  18.636  0.0578 -0.0310  0.2380
 1616BOLB   NC138761   7.249  22.487   2.503 -0.1151  0.1807 -0.3611
 1616BOLB   PO138762   6.800  22.611   2.396  0.1432 -0.0326  0.0048
 1616BOLB   GL138763   6.452  22.703   2.154 -0.1582 -0.2592  0.1731
 1616BOLB   GL238764   6.529  23.014   2.073  0.0447  0.1840  0.1943
 1616BOLB   C1A38765   6.171  22.765   1.699 -0.1825  0.0801 -0.1497
 1616BOLB   C2A38766   5.980  23.016   1.357  0.1368 -0.0925  0.2191
 1616BOLB   C3A38767   5.845  23.047   0.978  0.1412 -0.2756 -0.0367
 1616BOLB   C4A38768   5.783  23.393   0.736  0.0899 -0.3968  0.3266
 1616BOLB   C1B38769   6.623  22.962   1.639 -0.0692  0.2443 -0.1349
 1616BOLB   C2B38770   6.419  23.141   1.340 -0.3083 -0.0989 -0.0917
 1616BOLB   C3B38771   6.739  23.474   1.091  0.2007 -0.1842 -0.0226
 1616BOLB   C4B38772   6.604  23.861   0.774  0.4406 -0.1181 -0.2297
 1616BOLB   NC238773   6.397  25.292  -1.268 -0.0809 -0.1956 -0.2825
 1616BOLB   PO238774   6.255  24.918  -0.998 -0.2828 -0.1356 -0.1699
 1616BOLB   GL338775   6.239  24.838  -0.599  0.3766  0.1130  0.3789
 1616BOLB   GL438776   6.422  24.839  -0.285 -0.4531  0.1105  0.1375
 1616BOLB   C1C38777   5.892  24.831  -0.273  0.3496  0.0157 -0.0200
 1616BOLB   C2C38778   5.932  24.582   0.144 -0.3694  0.0940  0.0521
 1616BOLB   C3C38779   5.831  24.270   0.362 -0.2310 -0.1218 -0.3970
 1616BOLB   C4C38780   5.856  23.773   0.478  0.1733  0.0519  0.0891
 1616BOLB   C1D38781   6.397  24.715   0.139  0.2228 -0.1928 -0.2836
 1616BOLB   C2D38782   6.240  24.525   0.550 -0.0849  0.1691 -0.2013
 1616BOLB   C3D38783   6.241  24.433   0.908  0.4369 -0.1395  0.0988
 1616BOLB   C4D38784   6.317  24.343   1.415  0.0078 -0.0916 -0.0289
 1617BOLB   NC138785  13.603  19.057  12.444  0.0254  0.2799 -0.2137
 1617BOLB   PO138786  13.850  19.074  12.874  0.0905  0.1081  0.0745
 1617BOLB   GL138787  14.079  18.667  12.935  0.1603 -0.2637  0.0559
 1617BOLB   GL238788  14.142  18.477  12.636  0.1280  0.0962 -0.2276
 1617BOLB   C1A38789  14.544  18.459  13.176  0.2930 -0.2566  0.0094
 1617BOLB   C2A38790  14.940  18.192  13.059 -0.1043  0.1876 -0.0323
 1617BOLB   C3A38791  15.373  18.208  12.877 -0.2634  0.1813  0.1094
 1617BOLB   C4A38792  15.771  18.377  12.656  0.0557  0.2346  0.0224
 1617BOLB   C1B38793  14.370  18.039  12.621  0.2731 -0.3712  0.1197
 1617BOLB   C2B38794  14.647  17.861  12.810  0.0245  0.3612  0.1529
 1617BOLB   C3B38795  14.883  17.700  13.136 -0.0525 -0.0654 -0.1904
 1617BOLB   C4B38796  15.079  17.521  13.583  0.4532  0.1801  0.1057
 1617BOLB   NC238797  17.854  17.736  11.955 -0.0791 -0.3362 -0.1103
 1617BOLB   PO238798  18.019  17.978  12.300  0.0536  0.0147  0.1618
 1617BOLB   GL338799  17.674  18.268  12.219  0.2450 -0.0190  0.0045
 1617BOLB   GL438800  17.485  18.105  12.437  0.2505 -0.1586 -0.0009
 1617BOLB   C1C38801  17.247  18.310  12.042  0.4620  0.1049 -0.1317
 1617BOLB   C2C38802  16.845  18.538  12.232  0.2881 -0.0548 -0.0206
 1617BOLB   C3C38803  16.475  18.770  12.394 -0.1039 -0.1261 -0.0917
 1617BOLB   C4C38804  16.085  18.581  12.535 -0.3042 -0.2491  0.2481
 1617BOLB   C1D38805  17.068  18.333  12.658  0.0604 -0.1461  0.0418
 1617BOLB   C2D38806  16.883  18.760  12.730 -0.1158 -0.3518 -0.1907
 1617BOLB   C3D38807  16.689  19.131  12.641 -0.1735  0.2221 -0.2484
 1617BOLB   C4D38808  16.315  19.472  12.538 -0.1121 -0.0010 -0.2830
 1618BOLB   NC138809  10.013  28.080   9.303  0.0554  0.1943  0.0536
 1618BOLB   PO138810  10.218  28.497   9.202 -0.3058 -0.2351  0.1275
 1618BOLB   GL138811  10.303  28.875   8.999 -0.1122  0.2169  0.2879
 1618BOLB   GL238812   9.909  29.037   8.946 -0.0947 -0.1999 -0.1039
 1618BOLB   C1A38813  10.563  29.204   9.081 -0.1879 -0.1078 -0.1187
 1618BOLB   C2A38814  10.893  29.442   9.278  0.0682 -0.1134 -0.2639
 1618BOLB   C3A38815  11.320  29.431   9.187 -0.0112 -0.0917  0.3597
 1618BOLB   C4A38816  11.530  29.766   9.005  0.2583 -0.1629  0.1455
 1618BOLB   C1B38817  10.212  29.307   8.705  0.1431  0.1756  0.0110
 1618BOLB   C2B38818  10.392  29.581   8.406 -0.2102  0.2596  0.0628
 1618BOLB   C3B38819  10.665  29.866   8.279 -0.0852  0.0084  0.4037
 1618BOLB   C4B38820  11.083  29.926   8.076 -0.3459 -0.2920 -0.1002
 1618BOLB   NC238821  12.873  31.318   7.757 -0.1446 -0.0733 -0.1526
 1618BOLB   PO238822  13.110  31.242   8.196  0.4297 -0.1237  0.1263
 1618BOLB   GL338823  13.142  30.832   8.427  0.5286  0.0479  0.2350
 1618BOLB   GL438824  12.941  30.887   8.645 -0.2816  0.0830  0.0476
 1618BOLB   C1C38825  12.858  30.467   8.402  0.2294  0.3038 -0.3612
 1618BOLB   C2C38826  12.617  30.246   8.679  0.0013  0.0733 -0.1586
 1618BOLB   C3C38827  12.217  30.248   8.967 -0.0090 -0.1278 -0.3864
 1618BOLB   C4C38828  11.884  30.046   8.929 -0.0440  0.1210  0.0593
 1618BOLB   C1D38829  12.460  30.728   8.650  0.3811 -0.3053 -0.3028
 1618BOLB   C2D38830  12.294  30.721   9.087 -0.2210  0.2517 -0.0863
 1618BOLB   C3D38831  11.961  30.493   9.324  0.0580  0.1191 -0.0899
 1618BOLB   C4D38832  11.866  30.101   9.509  0.0633 -0.2108 -0.0814
 1619BOLB   NC138833   8.823  15.991  15.524  0.0619 -0.0439 -0.1835
 1619BOLB   PO138834   8.877  16.232  15.937  0.0560  0.0638  0.0812
 1619BOLB   GL138835   8.894  15.829  16.089 -0.2152 -0.1373  0.0673
 1619BOLB   GL238836   8.697  15.953  16.454  0.2485 -0.1418 -0.1073
 1619BOLB   C1A38837   8.878  15.496  16.194  0.1991  0.2074  0.2610
 1619BOLB   C2A38838   8.968  15.100  16.190 -0.1003  0.5440 -0.0164
 1619BOLB   C3A38839   8.996  14.693  16.236 -0.1508 -0.0760  0.0629
 1619BOLB   C4A38840   9.286  14.502  16.445  0.0782 -0.2757  0.0356
 1619BOLB   C1B38841   8.744  15.645  16.765  0.0694 -0.1165  0.1180
 1619BOLB   C2B38842   8.876  15.452  17.055  0.0857  0.0984 -0.0245
 1619BOLB   C3B38843   8.954  15.075  17.211  0.0309  0.0845 -0.1349
 1619BOLB   C4B38844   9.056  14.954  17.643 -0.4662 -0.0888 -0.2491
 1619BOLB   NC238845   9.042  12.883  18.556  0.0093 -0.1152 -0.1616
 1619BOLB   PO238846   9.515  13.100  18.513 -0.2978 -0.0440  0.2985
 1619BOLB   GL338847   9.473  13.315  18.044  0.0252 -0.2882  0.0554
 1619BOLB   GL438848   9.793  13.391  18.029 -0.0780  0.1346 -0.0650
 1619BOLB   C1C38849   9.341  13.321  17.571 -0.2525  0.2617 -0.3269
 1619BOLB   C2C38850   9.446  13.522  17.225 -0.1387 -0.1032  0.2794
 1619BOLB   C3C38851   9.583  13.929  17.003  0.1511 -0.1766 -0.0352
 1619BOLB   C4C38852   9.483  14.325  16.822  0.0956  0.0613  0.0958
 1619BOLB   C1D38853   9.777  13.783  17.955 -0.0603  0.0634  0.4235
 1619BOLB   C2D38854   9.471  14.062  17.826  0.0432  0.0333  0.0493
 1619BOLB   C3D38855   9.546  14.283  17.492 -0.1241 -0.1957  0.0712
 1619BOLB   C4D38856   9.744  14.594  17.149  0.1200  0.1222 -0.1795
 1620BOLB   NC138857   7.944  22.004  17.967  0.2700  0.0154  0.0014
 1620BOLB   PO138858   7.717  21.722  18.179  0.1310 -0.3378 -0.0069
 1620BOLB   GL138859   7.831  21.879  18.590 -0.1503  0.0848 -0.0561
 1620BOLB   GL238860   7.733  21.685  18.921  0.1532  0.1196  0.0274
 1620BOLB   C1A38861   8.078  22.031  18.930  0.4937 -0.0784  0.0190
 1620BOLB   C2A38862   8.152  22.110  19.401  0.0399 -0.0673  0.2053
 1620BOLB   C3A38863   8.025  22.386  19.771  0.0343  0.0010 -0.1416
 1620BOLB   C4A38864   8.206  22.786  19.893 -0.0298 -0.0054  0.1455
 1620BOLB   C1B38865   7.884  21.688  19.304 -0.0871  0.0950 -0.0026
 1620BOLB   C2B38866   8.020  21.622  19.692  0.2439  0.1872 -0.0918
 1620BOLB   C3B38867   7.984  21.346  20.046  0.1756 -0.0870  0.1145
 1620BOLB   C4B38868   7.766  21.050  20.306  0.2462 -0.0254 -0.3302
 1620BOLB   NC238869   8.369  23.870  22.652 -0.1532  0.3729  0.2226
 1620BOLB   PO238870   7.979  23.907  22.352 -0.0125 -0.3626  0.0759
 1620BOLB   GL338871   7.890  23.800  21.878  0.1969 -0.4158  0.2223
 1620BOLB   GL438872   7.586  23.879  21.819  0.0088 -0.0492 -0.2079
 1620BOLB   C1C38873   7.800  23.614  21.461  0.0774  0.3284  0.0185
 1620BOLB   C2C38874   7.878  23.425  21.031 -0.0070  0.1089 -0.1409
 1620BOLB   C3C38875   8.046  23.367  20.586 -0.0315 -0.0616  0.2074
 1620BOLB   C4C38876   8.185  22.960  20.312 -0.0034 -0.1474  0.0068
 1620BOLB   C1D38877   7.652  24.129  21.449  0.0914 -0.1110 -0.1623
 1620BOLB   C2D38878   7.288  24.318  21.181  0.0578 -0.2208 -0.2545
 1620BOLB   C3D38879   6.865  24.502  21.229  0.1456  0.1493 -0.1950
 1620BOLB   C4D38880   6.467  24.555  21.030 -0.1968 -0.1516  0.1174
 1621BOLB   NC138881  33.024  17.064   0.969  0.1512  0.0862 -0.0232
 1621BOLB   PO138882  33.257  17.447   0.994 -0.2639  0.2251 -0.1198
 1621BOLB   GL138883  33.619  17.577   1.049 -0.0360 -0.3448  0.1262
 1621BOLB   GL238884  33.664  17.578   1.375 -0.0650 -0.0337  0.0858
 1621BOLB   C1A38885  34.055  17.421   1.072 -0.0657  0.0859  0.0879
 1621BOLB   C2A38886  34.240  17.115   1.248  0.3058  0.1299  0.0066
 1621BOLB   C3A38887  34.453  16.855   1.398  0.1419  0.0475 -0.2133
 1621BOLB   C4A38888  34.845  16.631   1.617  0.1038 -0.4472 -0.0294
 1621BOLB   C1B38889  33.819  17.131   1.490 -0.1155 -0.1469 -0.1273
 1621BOLB   C2B38890  33.889  16.679   1.436  0.0124  0.0725  0.2195
 1621BOLB   C3B38891  34.194  16.447   1.416 -0.2403  0.0678  0.0702
 1621BOLB   C4B38892  34.347  16.072   1.402  0.0490 -0.4178 -0.0631
 1621BOLB   NC238893  35.029  15.244   0.056  0.0454 -0.4435 -0.0954
 1621BOLB   PO238894  35.455  15.238   0.263  0.2445 -0.2448 -0.0654
 1621BOLB   GL338895  35.812  15.522   0.411 -0.1595  0.1329 -0.4493
 1621BOLB   GL438896  36.221  15.676   0.345 -0.1344  0.3109  0.0220
 1621BOLB   C1C38897  35.823  15.576   0.861 -0.0400  0.0549 -0.2738
 1621BOLB   C2C38898  35.745  15.755   1.266  0.1010 -0.1668 -0.3571
 1621BOLB   C3C38899  35.603  16.133   1.406 -0.1093  0.1683  0.0447
 1621BOLB   C4C38900  35.320  16.422   1.561 -0.1051  0.2152 -0.2339
 1621BOLB   C1D38901  36.286  15.707   0.806  0.2332  0.0816  0.2585
 1621BOLB   C2D38902  36.311  15.768   1.214  0.0539 -0.2084 -0.2927
 1621BOLB   C3D38903  36.408  15.594   1.688 -0.0340 -0.0714  0.1223
 1621BOLB   C4D38904  36.346  15.529   2.130 -0.2488 -0.1902  0.1914
 1622BOLB   NC138905   8.665  29.003   8.589 -0.0709  0.3287  0.1080
 1622BOLB   PO138906   8.263  28.761   8.719  0.1408 -0.1148  0.2062
 1622BOLB   GL138907   8.160  29.212   8.698 -0.1297  0.1275 -0.0544
 1622BOLB   GL238908   8.249  29.393   8.413  0.0904 -0.1337 -0.1241
 1622BOLB   C1A38909   7.892  29.614   8.779  0.1254 -0.2421  0.2487
 1622BOLB   C2A38910   7.911  30.135   8.713  0.2465  0.0376 -0.1148
 1622BOLB   C3A38911   8.283  30.426   8.696 -0.1660 -0.1694 -0.2868
 1622BOLB   C4A38912   8.684  30.695   8.874 -0.1012 -0.1313  0.0233
 1622BOLB   C1B38913   8.316  29.835   8.375  0.1898  0.0286 -0.1267
 1622BOLB   C2B38914   8.291  30.156   8.058  0.0444  0.1361  0.0949
 1622BOLB   C3B38915   8.447  30.406   7.727  0.0963  0.0664  0.0853
 1622BOLB   C4B38916   8.731  30.567   7.536 -0.0359 -0.0128  0.5269
 1622BOLB   NC238917   9.428  33.368   8.556  0.3057 -0.0583 -0.4985
 1622BOLB   PO238918   9.401  33.022   8.799  0.0468 -0.0701 -0.0041
 1622BOLB   GL338919   9.456  32.553   8.884 -0.0470  0.3329  0.1098
 1622BOLB   GL438920   9.713  32.320   8.908 -0.2314 -0.2106  0.1094
 1622BOLB   C1C38921   9.190  32.252   8.974  0.2175  0.0675 -0.1666
 1622BOLB   C2C38922   9.025  31.825   8.974 -0.2118 -0.0216 -0.1546
 1622BOLB   C3C38923   8.813  31.492   8.724  0.0318  0.1133  0.1576
 1622BOLB   C4C38924   8.670  31.124   8.963  0.2795  0.0684 -0.0803
 1622BOLB   C1D38925   9.946  32.125   9.110  0.0963  0.0242 -0.1777
 1622BOLB   C2D38926  10.208  31.823   9.149 -0.2093  0.1286 -0.1115
 1622BOLB   C3D38927  10.363  31.335   9.096 -0.1169  0.0383  0.1197
 1622BOLB   C4D38928  10.498  30.992   9.416 -0.4568  0.3633 -0.1513
 1623BOLB   NC138929   1.976  18.357  16.877 -0.2181 -0.0365  0.2652
 1623BOLB   PO138930   1.759  18.762  16.993 -0.0707  0.1338  0.1156
 1623BOLB   GL138931   1.476  18.524  17.256  0.1120  0.1716  0.1382
 1623BOLB   GL238932   1.656  18.268  17.276 -0.3392  0.3144  0.2545
 1623BOLB   C1A38933   1.218  18.392  17.701 -0.0206  0.2863  0.0055
 1623BOLB   C2A38934   0.909  18.594  18.076  0.0141  0.3983  0.1955
 1623BOLB   C3A38935   0.678  18.793  18.432 -0.0553  0.0911  0.1102
 1623BOLB   C4A38936   0.557  18.882  18.911 -0.2698  0.2338  0.2803
 1623BOLB   C1B38937   1.509  18.058  17.589  0.0602 -0.0194  0.5127
 1623BOLB   C2B38938   1.467  17.659  17.727  0.2217 -0.0782  0.0578
 1623BOLB   C3B38939   1.467  17.465  17.955  0.1765  0.5307 -0.0285
 1623BOLB   C4B38940   1.590  17.185  18.194  0.2770 -0.4016 -0.3665
 1623BOLB   NC238941  -0.940  19.841  21.124  0.1195 -0.4037 -0.1656
 1623BOLB   PO238942  -0.594  19.504  20.999  0.3451 -0.2107 -0.3533
 1623BOLB   GL338943  -0.389  19.492  20.646  0.0760 -0.1668  0.1012
 1623BOLB   GL438944  -0.660  19.496  20.338 -0.0913  0.1235  0.1530
 1623BOLB   C1C38945  -0.041  19.300  20.437 -0.1207  0.3517 -0.0941
 1623BOLB   C2C38946   0.226  19.136  20.053 -0.1851 -0.1686  0.1334
 1623BOLB   C3C38947   0.442  19.153  19.677  0.2471 -0.0137  0.1143
 1623BOLB   C4C38948   0.382  18.973  19.260  0.0553 -0.2253 -0.0721
 1623BOLB   C1D38949  -1.019  19.264  20.326  0.0539 -0.2254  0.2917
 1623BOLB   C2D38950  -1.203  19.147  19.855  0.1659 -0.1025 -0.0787
 1623BOLB   C3D38951  -0.998  19.023  19.345 -0.0992 -0.0240 -0.4169
 1623BOLB   C4D38952  -1.025  18.970  18.948  0.2376 -0.5406 -0.2686
 1624BOLB   NC138953  14.649  17.114   0.893  0.0965 -0.0987  0.3048
 1624BOLB   PO138954  14.212  17.036   0.864  0.1136  0.0313 -0.0235
 1624BOLB   GL138955  13.762  17.210   0.813  0.1807 -0.3150  0.3220
 1624BOLB   GL238956  13.761  17.577   0.676  0.1805  0.0939 -0.1248
 1624BOLB   C1A38957  13.503  17.201   1.131 -0.0585 -0.2139 -0.2634
 1624BOLB   C2A38958  13.103  17.064   1.316 -0.1831 -0.0663  0.0019
 1624BOLB   C3A38959  12.609  16.988   1.352  0.3969 -0.1231 -0.1664
 1624BOLB   C4A38960  12.309  17.293   1.458  0.0907  0.2625 -0.1568
 1624BOLB   C1B38961  13.607  17.758   0.942  0.1951  0.0142  0.1613
 1624BOLB   C2B38962  13.477  18.011   1.302  0.1102 -0.0090  0.1084
 1624BOLB   C3B38963  13.534  18.084   1.742  0.0006  0.1099  0.0827
 1624BOLB   C4B38964  13.590  18.192   2.186  0.3156  0.1252 -0.1247
 1624BOLB   NC238965  12.031  18.040   3.979  0.1758  0.0825  0.2283
 1624BOLB   PO238966  11.634  18.017   3.741  0.0845 -0.0266  0.1517
 1624BOLB   GL338967  11.591  17.873   3.300 -0.1056  0.0557  0.0142
 1624BOLB   GL438968  11.568  17.486   3.275 -0.0262 -0.1532  0.0357
 1624BOLB   C1C38969  11.769  17.681   2.848  0.1701  0.2037  0.0064
 1624BOLB   C2C38970  11.865  17.699   2.460 -0.4019 -0.2241  0.0007
 1624BOLB   C3C38971  11.957  17.829   2.000 -0.0334 -0.0128 -0.2511
 1624BOLB   C4C38972  12.277  17.605   1.747 -0.1718 -0.0866 -0.2352
 1624BOLB   C1D38973  11.304  17.175   3.031 -0.1084  0.0809  0.3205
 1624BOLB   C2D38974  11.085  16.950   2.846 -0.1578 -0.1419  0.2109
 1624BOLB   C3D38975  10.963  16.651   2.657 -0.0089  0.1661  0.7308
 1624BOLB   C4D38976  10.982  16.422   2.291 -0.2121  0.0446 -0.3886
 1625BOLB   NC138977   9.781  26.803  16.380  0.3198 -0.2517 -0.3096
 1625BOLB   PO138978   9.822  27.043  16.050  0.0454  0.2810 -0.0178
 1625BOLB   GL138979  10.157  27.262  16.096  0.0463  0.1517  0.2399
 1625BOLB   GL238980  10.422  27.266  15.934 -0.1414 -0.2826 -0.2919
 1625BOLB   C1A38981  10.380  27.366  16.442  0.0750  0.1123  0.2562
 1625BOLB   C2A38982  10.717  27.178  16.730  0.0142  0.1783  0.1774
 1625BOLB   C3A38983  11.011  27.309  16.991  0.0719  0.0123  0.2627
 1625BOLB   C4A38984  11.197  27.532  17.303  0.1111 -0.3390  0.4123
 1625BOLB   C1B38985  10.778  27.329  16.088 -0.1898  0.1942 -0.3829
 1625BOLB   C2B38986  10.991  27.489  16.464 -0.1938 -0.0944 -0.0304
 1625BOLB   C3B38987  11.105  27.756  16.735  0.2330 -0.2372 -0.0199
 1625BOLB   C4B38988  11.306  28.000  17.034  0.0979  0.0846  0.1898
 1625BOLB   NC238989  12.893  28.988  18.190 -0.3013  0.0222  0.3171
 1625BOLB   PO238990  13.117  28.886  17.738  0.1168 -0.3178  0.0293
 1625BOLB   GL338991  12.769  28.659  17.841  0.2679 -0.1296 -0.0081
 1625BOLB   GL438992  12.865  28.386  17.690  0.1119  0.1447  0.1236
 1625BOLB   C1C38993  12.363  28.577  17.644 -0.1346  0.3272 -0.1627
 1625BOLB   C2C38994  12.076  28.236  17.425  0.0292 -0.2166 -0.1243
 1625BOLB   C3C38995  11.571  28.255  17.429 -0.0102  0.0780 -0.1973
 1625BOLB   C4C38996  11.311  27.895  17.512  0.2747 -0.1184  0.1425
 1625BOLB   C1D38997  12.607  28.046  17.507  0.2711 -0.0748  0.2681
 1625BOLB   C2D38998  12.352  27.917  17.100 -0.0069  0.0744 -0.0739
 1625BOLB   C3D38999  12.177  27.688  16.902  0.0317  0.3259  0.1573
 1625BOLB   C4D39000  11.788  27.744  16.712 -0.1453  0.0445  0.1314
 1626BOLB   NC139001  11.137  16.253   5.053 -0.2299  0.1218 -0.1994
 1626BOLB   PO139002  11.441  15.995   5.174 -0.4510 -0.1467  0.0181
 1626BOLB   GL139003  11.727  15.752   5.038 -0.3177 -0.3447  0.0049
 1626BOLB   GL239004  11.627  15.729   4.664  0.4634  0.0607  0.0198
 1626BOLB   C1A39005  12.139  15.764   4.863 -0.1609 -0.0654 -0.1326
 1626BOLB   C2A39006  12.228  15.541   4.386 -0.2194  0.2801  0.0149
 1626BOLB   C3A39007  12.343  15.124   4.272  0.0282  0.1677 -0.0543
 1626BOLB   C4A39008  12.182  14.745   4.100  0.3020 -0.3606  0.1967
 1626BOLB   C1B39009  11.787  15.348   4.491 -0.0923  0.1972 -0.1000
 1626BOLB   C2B39010  11.679  15.001   4.400  0.0736 -0.1993 -0.0192
 1626BOLB   C3B39011  11.602  14.541   4.337 -0.0046 -0.4019 -0.1016
 1626BOLB   C4B39012  11.476  14.341   4.757 -0.2157 -0.1843 -0.0127
 1626BOLB   NC239013  12.531  12.677   3.344  0.0510  0.0367 -0.0027
 1626BOLB   PO239014  12.217  12.468   3.445  0.0428  0.2652 -0.0957
 1626BOLB   GL339015  12.097  12.824   3.678 -0.2674  0.2187 -0.5216
 1626BOLB   GL439016  11.825  12.835   3.945 -0.0865  0.1828  0.0929
 1626BOLB   C1C39017  12.100  13.194   3.846  0.4406  0.1292 -0.1858
 1626BOLB   C2C39018  12.299  13.493   4.043 -0.2877  0.0268  0.0298
 1626BOLB   C3C39019  12.408  13.831   4.186 -0.1688 -0.2385 -0.0302
 1626BOLB   C4C39020  12.122  14.244   4.198  0.0746  0.3028 -0.0954
 1626BOLB   C1D39021  11.528  13.182   4.025  0.2238 -0.1862  0.1356
 1626BOLB   C2D39022  11.479  13.384   4.427 -0.3889  0.0355  0.3917
 1626BOLB   C3D39023  11.360  13.568   4.813 -0.0294 -0.1714 -0.2118
 1626BOLB   C4D39024  11.289  13.632   5.300 -0.1720  0.3797  0.1434
 1627BOLB   NC139025   7.270  19.591  18.123 -0.1389  0.0754 -0.3652
 1627BOLB   PO139026   7.395  19.321  18.444 -0.5902  0.0157 -0.0585
 1627BOLB   GL139027   7.528  19.086  18.790 -0.4783  0.0613  0.0357
 1627BOLB   GL239028   7.257  18.911  19.116 -0.1013 -0.2781  0.1168
 1627BOLB   C1A39029   7.709  18.743  19.053 -0.1809 -0.0543  0.0608
 1627BOLB   C2A39030   7.562  18.588  19.410 -0.1552 -0.3153 -0.0941
 1627BOLB   C3A39031   7.540  18.400  19.780 -0.0303  0.1706 -0.2023
 1627BOLB   C4A39032   7.329  18.312  20.115  0.2311  0.2660 -0.2127
 1627BOLB   C1B39033   7.143  18.754  19.611  0.2843  0.0698  0.1174
 1627BOLB   C2B39034   7.045  18.762  20.003  0.2673 -0.0762  0.1093
 1627BOLB   C3B39035   6.746  18.654  20.262  0.0396  0.1341  0.2441
 1627BOLB   C4B39036   6.528  18.487  20.642  0.2293 -0.0096 -0.4127
 1627BOLB   NC239037   6.926  18.564  22.455 -0.0782 -0.1318 -0.0102
 1627BOLB   PO239038   6.980  18.190  22.521 -0.0337  0.0032  0.0318
 1627BOLB   GL339039   7.231  18.267  22.114 -0.2032 -0.1489  0.0234
 1627BOLB   GL439040   7.359  18.572  22.044 -0.1603 -0.0476 -0.2691
 1627BOLB   C1C39041   7.087  18.107  21.652  0.1164  0.0431 -0.3674
 1627BOLB   C2C39042   7.235  18.013  21.226 -0.0675 -0.0697 -0.0561
 1627BOLB   C3C39043   7.168  17.858  20.764  0.0730 -0.1014 -0.0298
 1627BOLB   C4C39044   7.313  17.947  20.326 -0.0833 -0.2198 -0.0124
 1627BOLB   C1D39045   7.222  18.600  21.701  0.0447 -0.1760 -0.0578
 1627BOLB   C2D39046   7.154  18.582  21.256 -0.0372  0.2706  0.0503
 1627BOLB   C3D39047   7.302  18.539  20.872 -0.1386  0.0858 -0.2003
 1627BOLB   C4D39048   7.276  18.650  20.476  0.0376  0.0598 -0.2594
 1628BOLB   NC139049  12.082  20.704  16.184 -0.2336  0.3759 -0.3410
 1628BOLB   PO139050  12.272  20.754  16.513  0.0728  0.2640 -0.0780
 1628BOLB   GL139051  12.562  20.738  16.788  0.1698 -0.0517  0.2164
 1628BOLB   GL239052  12.888  20.638  16.608  0.0749  0.0505 -0.3085
 1628BOLB   C1A39053  12.716  20.494  17.137 -0.1863 -0.0652 -0.2260
 1628BOLB   C2A39054  13.002  20.401  17.395  0.3094 -0.3373  0.0789
 1628BOLB   C3A39055  13.270  20.450  17.699  0.0250 -0.0086  0.0003
 1628BOLB   C4A39056  13.623  20.373  18.006  0.0088 -0.0284 -0.0371
 1628BOLB   C1B39057  13.101  20.827  17.094  0.0637 -0.0111 -0.1844
 1628BOLB   C2B39058  13.377  20.746  17.354 -0.0821 -0.2507 -0.0140
 1628BOLB   C3B39059  13.769  20.702  17.566  0.1458 -0.0324 -0.2895
 1628BOLB   C4B39060  14.098  20.394  17.702 -0.0273  0.1050 -0.0752
 1628BOLB   NC239061  14.485  19.729  20.358 -0.0421  0.0261 -0.0775
 1628BOLB   PO239062  14.377  19.624  19.902 -0.0680 -0.0077 -0.1155
 1628BOLB   GL339063  14.166  19.511  19.603  0.3000  0.2447 -0.1494
 1628BOLB   GL439064  13.914  19.291  19.812  0.0403  0.0117  0.1532
 1628BOLB   C1C39065  14.145  19.604  19.215 -0.2088  0.0527 -0.0159
 1628BOLB   C2C39066  14.109  19.954  18.910 -0.0931  0.0134 -0.0790
 1628BOLB   C3C39067  14.157  20.060  18.505 -0.1326  0.0830  0.1249
 1628BOLB   C4C39068  13.963  20.301  18.216 -0.0089  0.2377  0.0088
 1628BOLB   C1D39069  13.447  19.287  19.791  0.1161  0.2433 -0.1504
 1628BOLB   C2D39070  13.061  19.080  19.881  0.3789  0.2301 -0.0541
 1628BOLB   C3D39071  12.685  18.674  19.907 -0.1983  0.1617 -0.1778
 1628BOLB   C4D39072  12.305  18.757  19.682  0.0728 -0.2051  0.1074
 1629BOLB   NC139073  36.996  20.270  20.476 -0.0546 -0.1465 -0.0383
 1629BOLB   PO139074  37.237  19.989  20.720 -0.0270 -0.4095  0.0076
 1629BOLB   GL139075  37.392  19.885  20.317  0.1829 -0.0277 -0.1922
 1629BOLB   GL239076  37.442  20.128  20.146  0.1404  0.1134 -0.0817
 1629BOLB   C1A39077  37.336  19.668  19.904 -0.0520  0.1938 -0.0592
 1629BOLB   C2A39078  37.452  19.528  19.518  0.0541  0.2447  0.0435
 1629BOLB   C3A39079  37.601  19.575  19.117 -0.1977  0.0302  0.0352
 1629BOLB   C4A39080  37.811  19.198  19.046 -0.1098 -0.0317  0.0364
 1629BOLB   C1B39081  37.468  20.099  19.754  0.1775 -0.0606 -0.0749
 1629BOLB   C2B39082  37.754  20.045  19.323  0.2776 -0.2186 -0.1062
 1629BOLB   C3B39083  37.791  20.030  18.842  0.1126 -0.0743 -0.1116
 1629BOLB   C4B39084  37.921  20.280  18.472 -0.0125  0.1763 -0.3867
 1629BOLB   NC239085  36.559  19.169  20.909 -0.2624  0.3858  0.0403
 1629BOLB   PO239086  36.887  19.253  20.869  0.1343 -0.1809  0.0288
 1629BOLB   GL339087  37.195  19.019  20.659 -0.3280 -0.0812  0.1532
 1629BOLB   GL439088  37.515  18.993  20.825  0.2820  0.1794  0.1790
 1629BOLB   C1C39089  37.184  18.808  20.238 -0.1397 -0.2574 -0.1706
 1629BOLB   C2C39090  37.523  18.771  20.087 -0.0679 -0.1961  0.1427
 1629BOLB   C3C39091  37.739  18.820  19.635 -0.2064 -0.1179 -0.3790
 1629BOLB   C4C39092  37.969  18.915  19.289  0.2220 -0.1041  0.1782
 1629BOLB   C1D39093  37.751  19.017  20.533 -0.2660  0.1823  0.3008
 1629BOLB   C2D39094  37.914  19.105  20.106  0.0188 -0.1160 -0.3118
 1629BOLB   C3D39095  37.845  19.338  19.721  0.1988  0.2274 -0.2497
 1629BOLB   C4D39096  38.307  19.156  19.629 -0.3131 -0.2994 -0.1112
 1630BOLB   NC139097  10.947  26.957   6.734 -0.0372 -0.2072  0.1248
 1630BOLB   PO139098  11.215  26.608   6.532 -0.1794  0.1637  0.1227
 1630BOLB   GL139099  11.477  26.906   6.483  0.0998  0.0383  0.0682
 1630BOLB   GL239100  11.614  26.995   6.655  0.1889 -0.1456  0.0414
 1630BOLB   C1A39101  11.816  27.166   6.248  0.0635 -0.3619 -0.1462
 1630BOLB   C2A39102  12.250  27.187   5.905  0.1033 -0.0315  0.1358
 1630BOLB   C3A39103  12.533  27.474   5.795  0.2890  0.1716  0.2499
 1630BOLB   C4A39104  12.795  27.836   5.798  0.0935 -0.2985 -0.3809
 1630BOLB   C1B39105  12.068  27.120   6.634  0.0768 -0.1334  0.0536
 1630BOLB   C2B39106  12.447  27.299   6.404  0.4133 -0.2260 -0.0030
 1630BOLB   C3B39107  12.703  27.685   6.252  0.0206  0.0450  0.0585
 1630BOLB   C4B39108  12.967  27.900   6.507 -0.0937  0.5061 -0.0017
 1630BOLB   NC239109  14.791  29.196   6.454 -0.5142  0.1242 -0.2446
 1630BOLB   PO239110  14.498  29.260   6.060 -0.1405  0.1641  0.1180
 1630BOLB   GL339111  14.313  28.975   6.374  0.1762  0.0095 -0.3544
 1630BOLB   GL439112  14.263  28.994   6.730 -0.0499 -0.2214  0.1641
 1630BOLB   C1C39113  13.874  28.824   6.423 -0.0654 -0.0757 -0.1407
 1630BOLB   C2C39114  13.792  28.491   6.087  0.2514 -0.0992  0.0487
 1630BOLB   C3C39115  13.469  28.392   5.813 -0.3686 -0.0835 -0.4541
 1630BOLB   C4C39116  13.186  27.982   5.672 -0.1236  0.2960 -0.2778
 1630BOLB   C1D39117  13.811  28.717   6.863  0.1019 -0.1964 -0.3155
 1630BOLB   C2D39118  13.649  28.326   6.723 -0.2648  0.0796  0.0322
 1630BOLB   C3D39119  13.470  27.923   6.789 -0.3192  0.2506 -0.0880
 1630BOLB   C4D39120  13.083  27.652   6.907 -0.2811  0.0639 -0.2669
 1631BOLB   NC139121   8.878  28.750  12.506 -0.0872 -0.2417  0.1198
 1631BOLB   PO139122   8.489  28.714  12.703 -0.1379  0.1087  0.0191
 1631BOLB   GL139123   8.632  29.165  12.805 -0.1748 -0.0531  0.0394
 1631BOLB   GL239124   8.752  29.206  12.489  0.0890 -0.0962  0.4040
 1631BOLB   C1A39125   8.855  29.498  12.999  0.3306 -0.3563 -0.0662
 1631BOLB   C2A39126   8.868  29.934  13.143 -0.3401  0.0172 -0.3679
 1631BOLB   C3A39127   8.690  30.328  13.190  0.0162  0.0245 -0.1592
 1631BOLB   C4A39128   8.425  30.560  13.481  0.1241  0.0772 -0.6334
 1631BOLB   C1B39129   8.861  29.566  12.432  0.0358 -0.0232  0.2948
 1631BOLB   C2B39130   9.001  29.933  12.575  0.0565 -0.0610 -0.0946
 1631BOLB   C3B39131   9.225  30.214  12.876 -0.2883  0.0181 -0.1413
 1631BOLB   C4B39132   9.656  30.327  12.876 -0.1950 -0.2647 -0.3606
 1631BOLB   NC239133   8.322  32.816  13.975 -0.2732  0.0849 -0.2492
 1631BOLB   PO239134   8.251  32.740  14.449 -0.1540  0.2341 -0.0239
 1631BOLB   GL339135   8.240  32.335  14.227  0.1656 -0.0964  0.0258
 1631BOLB   GL439136   8.512  32.066  14.216  0.4670 -0.2521 -0.0002
 1631BOLB   C1C39137   8.011  32.007  14.019  0.0987  0.1233 -0.0151
 1631BOLB   C2C39138   8.074  31.538  13.956  0.1236 -0.0679 -0.3417
 1631BOLB   C3C39139   8.056  31.125  13.748  0.1310  0.1114 -0.1193
 1631BOLB   C4C39140   7.987  30.708  13.644 -0.0847  0.1002  0.2656
 1631BOLB   C1D39141   8.393  31.748  14.349  0.1479 -0.1878  0.1178
 1631BOLB   C2D39142   8.307  31.350  14.529  0.2391  0.0332  0.1597
 1631BOLB   C3D39143   8.534  31.027  14.902 -0.1942  0.3710 -0.0541
 1631BOLB   C4D39144   8.672  31.212  15.196  0.1326 -0.0829 -0.0281
 1632BOLB   NC139145  13.351  21.472  26.123 -0.1208  0.2864  0.0114
 1632BOLB   PO139146  13.237  21.305  25.742  0.1600  0.1209  0.0535
 1632BOLB   GL139147  12.793  21.269  26.060  0.2182  0.1817  0.1591
 1632BOLB   GL239148  12.901  21.427  26.405  0.3442  0.2652  0.3346
 1632BOLB   C1A39149  12.649  20.860  26.339  0.1298  0.0167  0.1234
 1632BOLB   C2A39150  12.574  20.707  26.839 -0.1425 -0.3188 -0.1740
 1632BOLB   C3A39151  12.524  20.543  27.322 -0.1997  0.0391 -0.2494
 1632BOLB   C4A39152  12.325  20.514  27.774  0.2259  0.3168 -0.1388
 1632BOLB   C1B39153  12.713  21.187  26.736 -0.1843  0.0368  0.2619
 1632BOLB   C2B39154  12.577  21.160  27.124  0.2528 -0.0909  0.2456
 1632BOLB   C3B39155  12.298  21.295  27.505  0.3287  0.2155 -0.2710
 1632BOLB   C4B39156  11.961  21.468  27.681  0.2372  0.2994  0.1972
 1632BOLB   NC239157  12.089  20.963  29.547  0.2194  0.0978  0.1842
 1632BOLB   PO239158  12.233  20.570  29.704 -0.0243  0.0938  0.0294
 1632BOLB   GL339159  12.409  20.545  29.324  0.1671 -0.1148 -0.0676
 1632BOLB   GL439160  12.423  20.865  29.154 -0.0957 -0.1121 -0.1302
 1632BOLB   C1C39161  12.494  20.382  29.002 -0.3049 -0.0663  0.0391
 1632BOLB   C2C39162  12.154  20.333  28.756  0.3847 -0.2065 -0.1223
 1632BOLB   C3C39163  11.976  20.580  28.404  0.0658  0.1739 -0.0159
 1632BOLB   C4C39164  11.988  20.639  28.019 -0.0261 -0.2702  0.1465
 1632BOLB   C1D39165  12.455  20.737  28.618  0.0332  0.1282 -0.1432
 1632BOLB   C2D39166  12.454  20.640  28.234 -0.1646  0.1158  0.0286
 1632BOLB   C3D39167  12.376  20.168  28.134 -0.0968 -0.2646  0.1460
 1632BOLB   C4D39168  12.087  19.950  28.382 -0.1248 -0.1931 -0.3313
 1633BOLB   NC139169   7.389  28.497  13.550 -0.0347 -0.1305  0.2184
 1633BOLB   PO139170   7.612  28.235  13.844  0.0270 -0.0258 -0.1876
 1633BOLB   GL139171   7.385  28.611  14.033  0.0718 -0.1532 -0.1382
 1633BOLB   GL239172   7.279  28.637  14.390  0.0798 -0.2772 -0.0277
 1633BOLB   C1A39173   7.560  29.069  14.132  0.1122  0.0976 -0.0259
 1633BOLB   C2A39174   7.635  29.495  14.110  0.1669 -0.0206  0.0550
 1633BOLB   C3A39175   7.844  29.864  14.373  0.1771 -0.0862  0.1878
 1633BOLB   C4A39176   8.096  30.188  14.157  0.1250 -0.1530 -0.2002
 1633BOLB   C1B39177   6.992  29.031  14.386  0.0891 -0.1018 -0.0390
 1633BOLB   C2B39178   7.047  29.461  14.213 -0.4498 -0.0298 -0.1563
 1633BOLB   C3B39179   7.370  29.784  14.384  0.0683 -0.1509  0.0041
 1633BOLB   C4B39180   7.412  30.297  14.444  0.0653  0.0620  0.1987
 1633BOLB   NC239181   9.492  32.310  14.266 -0.0908 -0.2137 -0.0096
 1633BOLB   PO239182   9.271  32.498  13.948 -0.2149 -0.3972 -0.0324
 1633BOLB   GL339183   9.044  32.126  14.191 -0.0118  0.1432  0.0588
 1633BOLB   GL439184   8.973  32.193  14.519 -0.2141 -0.4773  0.1109
 1633BOLB   C1C39185   8.847  31.668  14.142 -0.0294 -0.0014  0.2470
 1633BOLB   C2C39186   8.506  31.265  14.035  0.1630  0.1506  0.2465
 1633BOLB   C3C39187   8.498  30.798  13.950  0.1245  0.0056 -0.1483
 1633BOLB   C4C39188   8.379  30.425  14.002 -0.0252 -0.1567  0.1040
 1633BOLB   C1D39189   8.894  31.779  14.617  0.2198 -0.0173 -0.0091
 1633BOLB   C2D39190   8.777  31.402  14.695  0.0772  0.1614 -0.0698
 1633BOLB   C3D39191   8.704  30.999  14.388  0.3941 -0.2205 -0.2869
 1633BOLB   C4D39192   8.385  30.732  14.476 -0.0458  0.1272  0.0102
 1634BOLB   NC139193   9.561  14.713   6.872  0.0881  0.4132  0.0083
 1634BOLB   PO139194   9.687  14.266   6.988 -0.0166 -0.0027  0.0857
 1634BOLB   GL139195   9.942  14.071   6.707 -0.2648  0.2567 -0.0284
 1634BOLB   GL239196  10.217  13.915   6.783  0.1446 -0.0494 -0.1556
 1634BOLB   C1A39197  10.019  13.836   6.369 -0.1369 -0.0868  0.0134
 1634BOLB   C2A39198  10.180  13.582   5.995  0.0589 -0.1219 -0.0117
 1634BOLB   C3A39199  10.466  13.317   5.766  0.0724 -0.2124 -0.0100
 1634BOLB   C4A39200  10.740  12.948   5.512  0.1653  0.2273 -0.2562
 1634BOLB   C1B39201  10.163  13.437   6.577 -0.0841  0.2300  0.2646
 1634BOLB   C2B39202  10.311  13.096   6.285 -0.0981 -0.2064  0.2056
 1634BOLB   C3B39203  10.548  12.842   6.026  0.0826  0.1151  0.1678
 1634BOLB   C4B39204  10.445  12.546   5.793 -0.1309 -0.1618 -0.3547
 1634BOLB   NC239205  12.532  11.550   4.495  0.1567 -0.2561  0.0706
 1634BOLB   PO239206  12.841  11.406   4.744  0.0486  0.0150  0.0776
 1634BOLB   GL339207  12.688  11.825   4.947 -0.0528 -0.2533  0.1180
 1634BOLB   GL439208  12.844  12.160   5.173  0.0274 -0.1260  0.1397
 1634BOLB   C1C39209  12.371  12.278   5.038  0.2738  0.1992  0.2159
 1634BOLB   C2C39210  12.010  12.548   5.177 -0.2970  0.0547 -0.0659
 1634BOLB   C3C39211  11.500  12.645   5.175 -0.1474  0.2631  0.0645
 1634BOLB   C4C39212  11.137  12.763   5.456 -0.1056  0.2698  0.2990
 1634BOLB   C1D39213  12.847  12.454   4.730  0.1217 -0.2854 -0.1772
 1634BOLB   C2D39214  12.617  12.598   4.437 -0.0432  0.0740 -0.2479
 1634BOLB   C3D39215  12.595  13.029   4.387  0.0667  0.0467 -0.0506
 1634BOLB   C4D39216  12.470  13.365   4.497  0.0383  0.0475 -0.4621
 1635BOLB   NC139217  15.440  29.430   8.054 -0.0183  0.1180 -0.0114
 1635BOLB   PO139218  15.494  29.531   8.451 -0.0345 -0.0893 -0.1009
 1635BOLB   GL139219  15.055  29.254   8.472 -0.0517  0.2752  0.3558
 1635BOLB   GL239220  14.812  29.245   8.805  0.2343 -0.0881 -0.2008
 1635BOLB   C1A39221  14.794  28.967   8.409 -0.0592  0.1998 -0.0440
 1635BOLB   C2A39222  14.947  28.518   8.350  0.0489  0.1068 -0.1461
 1635BOLB   C3A39223  14.841  28.012   8.518 -0.2769  0.1613 -0.0632
 1635BOLB   C4A39224  14.753  27.532   8.589 -0.0951  0.2753  0.0608
 1635BOLB   C1B39225  14.512  28.843   8.823  0.1028  0.3972  0.4173
 1635BOLB   C2B39226  14.398  28.474   8.652 -0.0514 -0.1009  0.1629
 1635BOLB   C3B39227  14.387  28.284   8.364 -0.2552 -0.2749 -0.0114
 1635BOLB   C4B39228  14.298  27.940   7.992 -0.0071  0.0220 -0.2772
 1635BOLB   NC239229  12.587  25.882   9.172 -0.0984  0.1417  0.1824
 1635BOLB   PO239230  12.774  26.079   9.370 -0.1815 -0.0990  0.0459
 1635BOLB   GL339231  13.144  26.108   9.095  0.0872  0.2841 -0.0163
 1635BOLB   GL439232  13.119  26.429   9.106 -0.0778  0.0874  0.0226
 1635BOLB   C1C39233  13.582  26.250   8.904 -0.1702 -0.0006  0.0389
 1635BOLB   C2C39234  13.917  26.573   8.782 -0.0279 -0.0457  0.0917
 1635BOLB   C3C39235  14.270  26.932   8.898 -0.0802 -0.0664 -0.0270
 1635BOLB   C4C39236  14.502  27.146   8.635  0.1219  0.1679 -0.0108
 1635BOLB   C1D39237  13.443  26.750   8.881 -0.2292 -0.0024 -0.0927
 1635BOLB   C2D39238  13.763  27.034   8.714  0.1982  0.2316 -0.1480
 1635BOLB   C3D39239  14.046  27.344   8.701 -0.3198 -0.0529 -0.0551
 1635BOLB   C4D39240  14.327  27.532   8.885 -0.0528  0.0378 -0.0599
 1636BOLB   NC139241  12.974  23.156   4.888  0.0552  0.1970 -0.3905
 1636BOLB   PO139242  13.369  22.989   5.013  0.4707 -0.1198  0.1742
 1636BOLB   GL139243  13.596  23.180   4.679  0.0202  0.4092 -0.2902
 1636BOLB   GL239244  13.804  22.934   4.737 -0.1186  0.1828 -0.0260
 1636BOLB   C1A39245  13.830  23.483   4.398  0.1040 -0.0015 -0.0856
 1636BOLB   C2A39246  13.978  23.682   3.966 -0.1894 -0.2901  0.1320
 1636BOLB   C3A39247  14.061  24.072   3.723  0.4316 -0.0844  0.1823
 1636BOLB   C4A39248  14.163  24.228   3.365  0.3157  0.1383  0.2879
 1636BOLB   C1B39249  14.115  22.893   4.488 -0.2357 -0.0385 -0.1792
 1636BOLB   C2B39250  14.484  22.992   4.306  0.0506 -0.0395 -0.0630
 1636BOLB   C3B39251  14.802  23.267   4.146 -0.3266 -0.1801  0.0931
 1636BOLB   C4B39252  15.183  23.525   3.980 -0.0128  0.0659  0.2590
 1636BOLB   NC239253  14.416  24.976   1.255  0.0349  0.0050  0.0744
 1636BOLB   PO239254  14.701  24.997   1.601 -0.0688 -0.2998  0.0754
 1636BOLB   GL339255  14.480  24.660   1.692 -0.1166  0.0040 -0.1332
 1636BOLB   GL439256  14.702  24.377   1.489 -0.0471  0.1624 -0.3301
 1636BOLB   C1C39257  14.285  24.247   1.746  0.0528  0.1930 -0.2320
 1636BOLB   C2C39258  14.369  24.022   2.146 -0.1759 -0.0856 -0.3685
 1636BOLB   C3C39259  14.375  23.879   2.648 -0.0529 -0.0794 -0.0677
 1636BOLB   C4C39260  14.489  24.127   3.065  0.3332 -0.0746 -0.2781
 1636BOLB   C1D39261  14.811  24.099   1.839  0.0789  0.2642 -0.0816
 1636BOLB   C2D39262  14.883  24.002   2.270  0.0382 -0.0864  0.1415
 1636BOLB   C3D39263  14.632  24.249   2.495  0.3915  0.0247  0.0926
 1636BOLB   C4D39264  14.345  24.469   2.680  0.2193  0.2574  0.1438
 1637BOLB   NC139265   5.383  24.337  18.216 -0.0661 -0.3444  0.1451
 1637BOLB   PO139266   5.774  24.181  18.226 -0.0264  0.2742 -0.1541
 1637BOLB   GL139267   5.726  24.241  18.673  0.1798  0.0488 -0.0949
 1637BOLB   GL239268   5.457  24.071  18.727  0.1417  0.1666 -0.1393
 1637BOLB   C1A39269   5.906  24.462  19.066 -0.1394 -0.0353 -0.4234
 1637BOLB   C2A39270   5.784  24.643  19.388  0.1891 -0.0837  0.2033
 1637BOLB   C3A39271   5.911  25.039  19.623 -0.1775 -0.2975 -0.1356
 1637BOLB   C4A39272   6.259  25.305  19.776  0.2022  0.3079 -0.5445
 1637BOLB   C1B39273   5.456  24.267  19.088 -0.0144 -0.1695 -0.1066
 1637BOLB   C2B39274   5.476  24.172  19.506  0.2669  0.1383 -0.2262
 1637BOLB   C3B39275   5.721  24.233  19.769 -0.0321  0.0383 -0.7628
 1637BOLB   C4B39276   6.182  24.562  19.705  0.0568  0.0575 -0.1448
 1637BOLB   NC239277   6.563  27.588  21.564  0.1321  0.1478  0.1568
 1637BOLB   PO239278   6.401  27.179  21.334  0.1410  0.0384  0.0724
 1637BOLB   GL339279   6.390  26.799  21.358 -0.0068  0.4958  0.1541
 1637BOLB   GL439280   6.562  26.826  21.025  0.0304 -0.1076 -0.2911
 1637BOLB   C1C39281   6.299  26.358  21.125 -0.1065  0.2458 -0.2013
 1637BOLB   C2C39282   6.298  26.197  20.732 -0.2396  0.1873  0.0112
 1637BOLB   C3C39283   6.446  25.913  20.496  0.0799 -0.0495 -0.2129
 1637BOLB   C4C39284   6.346  25.545  20.255  0.0382 -0.1412 -0.3793
 1637BOLB   C1D39285   6.559  26.576  20.631  0.0790  0.1370 -0.1625
 1637BOLB   C2D39286   6.433  26.411  20.249  0.1978 -0.0668 -0.1486
 1637BOLB   C3D39287   6.477  26.104  19.967 -0.2851 -0.0665  0.1928
 1637BOLB   C4D39288   6.461  25.765  19.685 -0.3956  0.2892  0.2077
 1638BOLB   NC139289   4.902  20.996  17.972 -0.1428  0.1374  0.4001
 1638BOLB   PO139290   5.004  20.830  18.451  0.0558  0.1270 -0.2790
 1638BOLB   GL139291   4.941  21.070  18.826  0.1269  0.1772  0.0760
 1638BOLB   GL239292   4.816  20.910  19.132  0.0772 -0.2013  0.1933
 1638BOLB   C1A39293   4.867  21.418  19.207  0.0410 -0.2244 -0.3151
 1638BOLB   C2A39294   4.659  21.665  19.519  0.3470  0.0937 -0.2812
 1638BOLB   C3A39295   4.828  21.681  19.929  0.0576  0.2656  0.0443
 1638BOLB   C4A39296   5.042  21.602  20.203  0.1130  0.1880 -0.4141
 1638BOLB   C1B39297   4.722  20.752  19.469  0.0061 -0.1119  0.1265
 1638BOLB   C2B39298   4.407  20.776  19.814 -0.2646  0.0397  0.1469
 1638BOLB   C3B39299   4.065  20.946  20.023 -0.1176 -0.3708 -0.1070
 1638BOLB   C4B39300   4.095  20.982  20.481  0.2213  0.0859 -0.5163
 1638BOLB   NC239301   3.577  22.325  22.768 -0.1873 -0.1068 -0.2292
 1638BOLB   PO239302   3.814  21.962  22.570  0.2289 -0.0383  0.2211
 1638BOLB   GL339303   4.141  21.864  22.219  0.1381 -0.0113 -0.1651
 1638BOLB   GL439304   4.367  22.068  22.192  0.1607 -0.1755 -0.1104
 1638BOLB   C1C39305   4.343  21.563  21.903  0.1215  0.0828  0.3941
 1638BOLB   C2C39306   4.416  21.513  21.453 -0.1599 -0.0391  0.2599
 1638BOLB   C3C39307   4.735  21.484  21.020  0.1946 -0.2744  0.1047
 1638BOLB   C4C39308   4.982  21.716  20.745  0.1240  0.0669  0.2090
 1638BOLB   C1D39309   4.710  21.890  21.875  0.1285  0.0783  0.0362
 1638BOLB   C2D39310   5.028  21.627  21.698  0.1523  0.0576  0.2705
 1638BOLB   C3D39311   5.196  21.410  21.356 -0.0223 -0.3059 -0.2100
 1638BOLB   C4D39312   5.303  21.070  21.089  0.4070  0.1185 -0.0409
 1639BOLB   NC139313  10.777  28.114  10.902  0.1108  0.1672 -0.2244
 1639BOLB   PO139314  10.493  28.454  11.021  0.0644  0.2627  0.1703
 1639BOLB   GL139315  10.841  28.634  11.098  0.0366  0.4328 -0.1428
 1639BOLB   GL239316  11.107  28.474  11.080  0.0821  0.0140  0.1691
 1639BOLB   C1A39317  11.012  28.996  11.268 -0.2528 -0.0589  0.1959
 1639BOLB   C2A39318  11.072  29.485  11.448  0.1914 -0.0877 -0.2055
 1639BOLB   C3A39319  11.195  29.903  11.642 -0.0927  0.0568 -0.2196
 1639BOLB   C4A39320  11.529  29.985  11.772 -0.2233  0.3165 -0.0614
 1639BOLB   C1B39321  11.477  28.857  11.093  0.0677  0.3562  0.2047
 1639BOLB   C2B39322  11.577  29.051  10.639 -0.1039  0.5854 -0.2254
 1639BOLB   C3B39323  11.978  29.260  10.461  0.0901  0.1235  0.2244
 1639BOLB   C4B39324  12.365  29.396  10.560  0.3338  0.3344 -0.0484
 1639BOLB   NC239325  13.298  31.396  10.887  0.2624 -0.1505 -0.1030
 1639BOLB   PO239326  13.123  31.552  11.285  0.2475 -0.0755 -0.4252
 1639BOLB   GL339327  12.851  31.231  11.468 -0.1515 -0.1957 -0.0290
 1639BOLB   GL439328  12.824  31.164  11.826  0.3346 -0.1242 -0.1154
 1639BOLB   C1C39329  12.766  30.772  11.334  0.0833  0.0345 -0.0524
 1639BOLB   C2C39330  12.562  30.333  11.278  0.0602  0.2082 -0.0184
 1639BOLB   C3C39331  12.145  30.256  11.393 -0.0089 -0.1092  0.4760
 1639BOLB   C4C39332  11.842  30.096  11.531  0.0033 -0.3663  0.2494
 1639BOLB   C1D39333  12.713  30.794  11.962 -0.1429 -0.0253  0.1043
 1639BOLB   C2D39334  12.485  30.457  12.157  0.0365  0.1211  0.2651
 1639BOLB   C3D39335  12.416  29.990  12.220  0.2636  0.2438 -0.1014
 1639BOLB   C4D39336  12.132  29.615  12.397  0.2647 -0.3482  0.4503
 1640BOLB   NC139337   4.410  16.415  16.638  0.2169  0.1318 -0.0487
 1640BOLB   PO139338   4.046  16.409  16.914 -0.1174 -0.0562 -0.1403
 1640BOLB   GL139339   3.873  16.103  17.166 -0.0409 -0.0229  0.0037
 1640BOLB   GL239340   3.990  16.005  17.421  0.1175 -0.1010  0.1101
 1640BOLB   C1A39341   3.435  16.017  17.366 -0.1518 -0.1645  0.0492
 1640BOLB   C2A39342   3.255  15.694  17.532 -0.0667  0.0135  0.3613
 1640BOLB   C3A39343   3.500  15.354  17.834  0.1948 -0.0039  0.0481
 1640BOLB   C4A39344   3.681  15.163  18.227 -0.0266  0.0463  0.0582
 1640BOLB   C1B39345   4.058  16.131  17.977 -0.2305 -0.0917 -0.1961
 1640BOLB   C2B39346   4.201  15.844  18.234  0.2360  0.0450 -0.3060
 1640BOLB   C3B39347   4.491  15.460  18.163 -0.2581  0.1341 -0.2456
 1640BOLB   C4B39348   4.801  15.208  18.280 -0.0150 -0.1906 -0.1502
 1640BOLB   NC239349   3.251  13.401  20.040 -0.2697  0.0257  0.2389
 1640BOLB   PO239350   3.164  13.758  20.203 -0.0763  0.0122  0.1062
 1640BOLB   GL339351   3.307  13.875  19.724  0.0564 -0.3423 -0.2294
 1640BOLB   GL439352   2.977  13.955  19.600  0.2884  0.1951 -0.3238
 1640BOLB   C1C39353   3.274  14.216  19.341  0.1260  0.0094  0.1767
 1640BOLB   C2C39354   3.430  14.390  18.950  0.0681  0.2677  0.0264
 1640BOLB   C3C39355   3.330  14.493  18.619 -0.3063  0.3492  0.2599
 1640BOLB   C4C39356   3.530  14.808  18.347 -0.0731 -0.1342 -0.1972
 1640BOLB   C1D39357   2.771  14.171  19.176 -0.2846  0.0033 -0.0629
 1640BOLB   C2D39358   2.818  14.481  18.885 -0.1241  0.0683  0.3396
 1640BOLB   C3D39359   2.672  14.955  18.769  0.0136 -0.0405 -0.0270
 1640BOLB   C4D39360   2.565  15.319  18.504  0.0099  0.2133 -0.1369
 1641BOLB   NC139361   4.058  26.112   5.698 -0.0584 -0.5823  0.0975
 1641BOLB   PO139362   4.022  26.478   5.500 -0.1076 -0.1258  0.2397
 1641BOLB   GL139363   4.180  26.736   5.094 -0.2505 -0.0933  0.1492
 1641BOLB   GL239364   4.481  26.640   4.993  0.0278  0.3406 -0.0960
 1641BOLB   C1A39365   4.267  27.087   4.965  0.1236 -0.3782  0.0919
 1641BOLB   C2A39366   3.992  27.427   4.826 -0.1269 -0.1895 -0.0502
 1641BOLB   C3A39367   3.638  27.559   4.832  0.0175 -0.1789  0.0830
 1641BOLB   C4A39368   3.377  27.927   4.793 -0.3775  0.1883 -0.2968
 1641BOLB   C1B39369   4.616  26.917   4.604  0.3208 -0.3462 -0.0008
 1641BOLB   C2B39370   4.855  27.319   4.467 -0.0880  0.0815  0.3834
 1641BOLB   C3B39371   4.911  27.519   4.063 -0.1353  0.0529 -0.2949
 1641BOLB   C4B39372   5.167  27.714   3.783  0.0596 -0.1734 -0.2066
 1641BOLB   NC239373   2.221  29.632   3.556 -0.2805 -0.5242  0.0983
 1641BOLB   PO239374   2.511  29.854   3.591  0.1732 -0.0599 -0.3355
 1641BOLB   GL339375   2.401  29.545   4.000 -0.1821 -0.1546  0.2314
 1641BOLB   GL439376   2.532  29.289   3.742  0.1563 -0.2213  0.0130
 1641BOLB   C1C39377   2.571  29.287   4.318  0.0371 -0.1843  0.3613
 1641BOLB   C2C39378   2.563  28.916   4.488  0.3890  0.1133 -0.0564
 1641BOLB   C3C39379   2.755  28.445   4.639 -0.0371 -0.2097  0.0956
 1641BOLB   C4C39380   3.227  28.315   4.669 -0.1292 -0.3446 -0.5411
 1641BOLB   C1D39381   2.673  28.951   3.959 -0.1035  0.2759 -0.2034
 1641BOLB   C2D39382   3.007  28.808   4.263 -0.0580 -0.2477 -0.2831
 1641BOLB   C3D39383   3.195  28.797   4.593 -0.1545  0.1759  0.0942
 1641BOLB   C4D39384   3.139  28.697   4.952  0.4683 -0.0937 -0.0497
 1642BOLB   NC139385   5.856  14.179   5.098  0.1932 -0.1339  0.0163
 1642BOLB   PO139386   6.159  14.183   4.673  0.1824 -0.1967 -0.2483
 1642BOLB   GL139387   5.987  14.106   4.234 -0.0251 -0.0383  0.0193
 1642BOLB   GL239388   5.806  14.261   4.030 -0.0038 -0.0723  0.3671
 1642BOLB   C1A39389   6.129  13.706   4.089  0.1983  0.0124  0.1950
 1642BOLB   C2A39390   5.975  13.290   4.165 -0.1537 -0.0620 -0.2816
 1642BOLB   C3A39391   5.935  12.859   4.429 -0.0623  0.3668  0.4367
 1642BOLB   C4A39392   6.143  12.511   4.325  0.1322  0.0127  0.0502
 1642BOLB   C1B39393   5.616  13.888   4.109 -0.3096  0.0910  0.0083
 1642BOLB   C2B39394   5.500  13.518   4.112 -0.2835  0.0581  0.1289
 1642BOLB   C3B39395   5.264  13.148   4.072  0.1022  0.2034  0.0491
 1642BOLB   C4B39396   5.078  12.798   4.108 -0.2342 -0.2547  0.1767
 1642BOLB   NC239397   6.693  10.326   3.441 -0.0728 -0.1601 -0.0507
 1642BOLB   PO239398   7.082  10.456   3.777  0.2615  0.3328 -0.0869
 1642BOLB   GL339399   6.989  10.739   3.997  0.1575 -0.5047 -0.2018
 1642BOLB   GL439400   6.924  10.713   4.335 -0.1917 -0.2946  0.1376
 1642BOLB   C1C39401   6.771  11.122   3.692  0.1844 -0.2732  0.4350
 1642BOLB   C2C39402   6.720  11.521   3.908  0.0240  0.0599 -0.1971
 1642BOLB   C3C39403   6.761  11.895   4.180  0.0192  0.2237  0.1508
 1642BOLB   C4C39404   6.566  12.298   4.343  0.0139 -0.1560 -0.1750
 1642BOLB   C1D39405   6.800  10.835   4.722 -0.1221 -0.2651 -0.2707
 1642BOLB   C2D39406   6.521  11.005   4.912  0.2310 -0.0080 -0.1459
 1642BOLB   C3D39407   6.190  11.178   5.152  0.0336  0.0200 -0.0923
 1642BOLB   C4D39408   6.122  11.322   5.573 -0.2995  0.1607 -0.3358
 1643BOLB   NC139409   7.027  19.569  18.557 -0.1130  0.1003 -0.3054
 1643BOLB   PO139410   7.409  19.905  18.532  0.2926  0.1982  0.3429
 1643BOLB   GL139411   7.324  20.133  18.897  0.0136  0.0834 -0.0107
 1643BOLB   GL239412   7.667  20.336  18.990  0.0203  0.2811  0.1495
 1643BOLB   C1A39413   7.311  19.954  19.244 -0.0143 -0.2945 -0.3491
 1643BOLB   C2A39414   7.359  19.659  19.553 -0.2647  0.1410  0.0818
 1643BOLB   C3A39415   7.627  19.665  19.943 -0.0679 -0.0090  0.0343
 1643BOLB   C4A39416   7.937  19.630  20.257 -0.0592  0.1568 -0.1233
 1643BOLB   C1B39417   7.511  20.491  19.443 -0.0338 -0.0337  0.3569
 1643BOLB   C2B39418   7.599  20.599  19.878  0.0487  0.1237  0.1195
 1643BOLB   C3B39419   7.418  20.668  20.384  0.0305 -0.0458  0.1606
 1643BOLB   C4B39420   7.460  20.964  20.716 -0.0094  0.1211  0.2364
 1643BOLB   NC239421   8.140  19.675  22.904  0.2479 -0.4319  0.0083
 1643BOLB   PO239422   8.273  19.470  22.487  0.2560  0.0547 -0.3561
 1643BOLB   GL339423   7.991  19.298  22.146  0.2533 -0.1443 -0.1083
 1643BOLB   GL439424   8.023  19.553  21.927 -0.2250 -0.0419  0.1867
 1643BOLB   C1C39425   8.054  19.067  21.753  0.3380 -0.1337 -0.1728
 1643BOLB   C2C39426   8.043  19.142  21.321 -0.1221 -0.1189  0.1947
 1643BOLB   C3C39427   7.941  19.141  20.959  0.0516  0.3533  0.1854
 1643BOLB   C4C39428   8.004  19.342  20.532 -0.0941 -0.0693  0.1046
 1643BOLB   C1D39429   7.974  19.900  21.661 -0.0208 -0.1514  0.2948
 1643BOLB   C2D39430   7.700  20.213  21.615  0.0941  0.1473  0.0426
 1643BOLB   C3D39431   7.593  20.579  21.876 -0.1916  0.0520  0.1508
 1643BOLB   C4D39432   7.316  20.957  21.791 -0.1805 -0.0461  0.0594
 1644BOLB   NC139433   9.918   8.831   8.281 -0.3335  0.3612  0.0142
 1644BOLB   PO139434   9.807   9.321   8.182 -0.0314 -0.3743  0.2779
 1644BOLB   GL139435   9.561   9.555   8.151  0.2490 -0.2382 -0.1797
 1644BOLB   GL239436   9.640   9.785   7.920  0.1574  0.0122  0.0730
 1644BOLB   C1A39437   9.466  10.040   8.339 -0.0060  0.0670 -0.1160
 1644BOLB   C2A39438   9.419  10.463   8.216  0.0140  0.2526 -0.0446
 1644BOLB   C3A39439   9.487  10.892   8.560 -0.1126  0.1872  0.2217
 1644BOLB   C4A39440   9.159  11.172   8.689 -0.2990 -0.0916  0.0789
 1644BOLB   C1B39441   9.683  10.198   7.867 -0.1890  0.4501 -0.1216
 1644BOLB   C2B39442   9.819  10.580   7.748 -0.0183  0.2581  0.1177
 1644BOLB   C3B39443   9.752  10.922   7.587  0.3461  0.0238  0.0523
 1644BOLB   C4B39444   9.940  11.209   7.384 -0.0039 -0.1408  0.0043
 1644BOLB   NC239445   9.259   9.396   9.874  0.1876  0.1709 -0.0657
 1644BOLB   PO239446   8.815   9.243  10.119 -0.1089  0.1052  0.0168
 1644BOLB   GL339447   8.784   9.575   9.796 -0.2765  0.2810 -0.0639
 1644BOLB   GL439448   8.932   9.804   9.998  0.0796 -0.1713 -0.1187
 1644BOLB   C1C39449   8.752   9.942   9.428 -0.2313  0.0143  0.1109
 1644BOLB   C2C39450   8.886  10.260   9.186 -0.1244  0.4778 -0.4136
 1644BOLB   C3C39451   8.753  10.637   9.183  0.0364  0.1084 -0.0111
 1644BOLB   C4C39452   8.921  11.047   9.118 -0.1647  0.0045 -0.0614
 1644BOLB   C1D39453   8.813  10.127  10.269 -0.1590 -0.2329  0.2713
 1644BOLB   C2D39454   8.506  10.288  10.257 -0.3642 -0.1676 -0.1288
 1644BOLB   C3D39455   8.119  10.263  10.425  0.1199 -0.1313 -0.0859
 1644BOLB   C4D39456   7.761  10.099  10.583  0.0783 -0.0863 -0.2024
 1645BOLB   NC139457  10.974  12.422   2.296 -0.0753 -0.3115  0.1724
 1645BOLB   PO139458  11.111  12.650   1.966  0.1591  0.1872 -0.1371
 1645BOLB   GL139459  11.130  13.092   2.255 -0.2117  0.1549 -0.2414
 1645BOLB   GL239460  11.193  13.048   2.586  0.1579  0.2295  0.4617
 1645BOLB   C1A39461  11.152  13.529   2.465 -0.0235 -0.1519 -0.1992
 1645BOLB   C2A39462  11.100  13.748   2.836 -0.4313 -0.0616  0.1163
 1645BOLB   C3A39463  11.002  14.078   3.118  0.3114 -0.4018 -0.0563
 1645BOLB   C4A39464  10.811  14.438   3.384 -0.3106 -0.1652 -0.1533
 1645BOLB   C1B39465  11.333  13.297   2.983  0.0128  0.0735  0.1004
 1645BOLB   C2B39466  11.471  13.614   3.202  0.0494 -0.1791 -0.0950
 1645BOLB   C3B39467  11.434  13.892   3.557  0.0233 -0.0422 -0.1217
 1645BOLB   C4B39468  11.275  13.741   3.974 -0.1280 -0.1843 -0.3131
 1645BOLB   NC239469  10.935  15.761   5.396 -0.1450  0.3057 -0.0383
 1645BOLB   PO239470  10.746  15.943   4.940 -0.0903 -0.1992  0.0494
 1645BOLB   GL339471  11.175  15.783   4.835  0.1764  0.0936 -0.1900
 1645BOLB   GL439472  11.315  15.500   5.048 -0.0985 -0.1292 -0.2509
 1645BOLB   C1C39473  11.257  15.357   4.603 -0.1454  0.0684  0.3021
 1645BOLB   C2C39474  11.158  14.947   4.436 -0.1414 -0.1466 -0.4205
 1645BOLB   C3C39475  11.160  14.722   4.042  0.2841 -0.0618 -0.4800
 1645BOLB   C4C39476  10.891  14.520   3.788  0.0316  0.0724 -0.3430
 1645BOLB   C1D39477  11.731  15.219   5.023 -0.0255  0.1347 -0.3228
 1645BOLB   C2D39478  11.947  14.863   5.202 -0.1666  0.3580 -0.0726
 1645BOLB   C3D39479  12.159  14.481   5.110 -0.1540  0.2350  0.1082
 1645BOLB   C4D39480  12.494  14.215   5.028 -0.1605 -0.1615  0.2762
 1646BOLB   NC139481   9.409  22.687   2.967 -0.0434  0.1080 -0.0306
 1646BOLB   PO139482   9.191  22.933   3.306 -0.0960 -0.1738 -0.0019
 1646BOLB   GL139483   9.347  23.131   2.826  0.2237  0.1272  0.0321
 1646BOLB   GL239484   9.543  23.063   2.600  0.1513 -0.0963 -0.1598
 1646BOLB   C1A39485   9.212  23.349   2.351  0.0582  0.0386 -0.2339
 1646BOLB   C2A39486   9.318  23.472   1.920 -0.0979  0.1379  0.0768
 1646BOLB   C3A39487   9.395  23.617   1.532 -0.3587  0.3114  0.1350
 1646BOLB   C4A39488   9.547  23.891   1.240 -0.1358  0.2012 -0.1087
 1646BOLB   C1B39489   9.549  22.896   2.195 -0.0517 -0.0540 -0.1062
 1646BOLB   C2B39490   9.699  22.919   1.791 -0.1393 -0.0558 -0.1084
 1646BOLB   C3B39491   9.949  22.968   1.462 -0.1068 -0.2143 -0.1334
 1646BOLB   C4B39492  10.278  23.026   1.180 -0.3439 -0.1255  0.0779
 1646BOLB   NC239493  10.061  23.866  -1.323 -0.2285  0.0711  0.1737
 1646BOLB   PO239494  10.183  23.449  -1.127  0.0600  0.0568 -0.0384
 1646BOLB   GL339495   9.931  23.479  -0.817 -0.2726  0.0860 -0.1589
 1646BOLB   GL439496  10.110  23.661  -0.496  0.1345  0.1539  0.1871
 1646BOLB   C1C39497   9.785  23.343  -0.372 -0.0938  0.0351 -0.0454
 1646BOLB   C2C39498   9.793  23.382   0.073  0.0190  0.0393 -0.0206
 1646BOLB   C3C39499   9.838  23.527   0.462  0.2696  0.2186 -0.1635
 1646BOLB   C4C39500   9.675  23.751   0.844  0.0013  0.5859  0.1539
 1646BOLB   C1D39501  10.282  23.296  -0.177 -0.2349  0.4338  0.1681
 1646BOLB   C2D39502  10.223  23.197   0.303 -0.1718 -0.0716  0.0386
 1646BOLB   C3D39503  10.284  23.267   0.648 -0.1697 -0.0780 -0.0246
 1646BOLB   C4D39504   9.957  23.206   0.864  0.4031 -0.1707 -0.0204
 1647BOLB   NC139505   9.248  14.214  26.142  0.0174 -0.0404 -0.0134
 1647BOLB   PO139506   9.323  13.944  26.574 -0.3008 -0.0729  0.2316
 1647BOLB   GL139507   9.131  14.240  26.686  0.2175 -0.4124 -0.1522
 1647BOLB   GL239508   8.870  14.281  26.503  0.1787 -0.0065  0.1859
 1647BOLB   C1A39509   9.088  14.627  26.954 -0.0566  0.2155  0.0263
 1647BOLB   C2A39510   9.144  14.830  27.323 -0.0966 -0.1015  0.0688
 1647BOLB   C3A39511   9.198  14.682  27.774 -0.1025 -0.2363  0.1986
 1647BOLB   C4A39512   9.328  15.053  28.153  0.1720  0.0453  0.2805
 1647BOLB   C1B39513   8.674  14.568  26.773  0.0603 -0.0078  0.1866
 1647BOLB   C2B39514   8.606  14.934  27.077  0.2743  0.0406 -0.0878
 1647BOLB   C3B39515   8.345  15.309  27.037 -0.0454  0.0711  0.3750
 1647BOLB   C4B39516   7.934  15.343  26.858  0.0093  0.1159 -0.0155
 1647BOLB   NC239517   9.958  16.839  30.205 -0.0361  0.1151  0.0339
 1647BOLB   PO239518   9.980  16.851  29.771  0.2872  0.1165 -0.3613
 1647BOLB   GL339519   9.873  16.559  29.473  0.0963  0.2371 -0.0939
 1647BOLB   GL439520   9.911  16.188  29.557  0.4341  0.0762  0.1567
 1647BOLB   C1C39521   9.594  16.294  29.151 -0.0440  0.0595  0.1939
 1647BOLB   C2C39522   9.274  16.063  28.891 -0.0330  0.4620  0.1035
 1647BOLB   C3C39523   9.138  15.743  28.520  0.0175  0.2286  0.0644
 1647BOLB   C4C39524   9.389  15.342  28.356 -0.3077 -0.1211  0.1724
 1647BOLB   C1D39525  10.345  16.250  29.617 -0.0971 -0.2746 -0.2835
 1647BOLB   C2D39526  10.689  16.017  29.685  0.1362 -0.1347  0.1814
 1647BOLB   C3D39527  10.972  15.717  29.700 -0.1784 -0.0281  0.1728
 1647BOLB   C4D39528  11.119  15.227  29.582  0.0639 -0.0373  0.2217
 1648BOLB   NC139529   1.141   7.221   3.933 -0.1429  0.1012 -0.0170
 1648BOLB   PO139530   1.033   7.529   4.097  0.1263  0.2203 -0.0455
 1648BOLB   GL139531   1.127   7.968   4.296 -0.1578 -0.0542 -0.0109
 1648BOLB   GL239532   1.245   7.992   4.535  0.1194 -0.0202 -0.1559
 1648BOLB   C1A39533   0.991   8.408   4.468  0.2150  0.1428 -0.4775
 1648BOLB   C2A39534   0.913   8.916   4.613 -0.0442 -0.1955  0.0898
 1648BOLB   C3A39535   0.625   9.314   4.722  0.0934  0.2440 -0.1633
 1648BOLB   C4A39536   0.300   9.365   5.053 -0.0929 -0.3738 -0.4583
 1648BOLB   C1B39537   1.106   8.301   4.985 -0.0607  0.0359 -0.0697
 1648BOLB   C2B39538   0.894   8.590   5.163 -0.0468 -0.1104 -0.3477
 1648BOLB   C3B39539   0.660   8.911   5.103  0.1919 -0.2270  0.4632
 1648BOLB   C4B39540   0.706   9.298   5.345  0.1872  0.2886  0.0439
 1648BOLB   NC239541   0.012   7.246   5.398  0.1230  0.0046 -0.0728
 1648BOLB   PO239542  -0.077   7.320   5.831 -0.0938  0.0374  0.2134
 1648BOLB   GL339543  -0.209   7.679   6.073  0.2456 -0.0919  0.0390
 1648BOLB   GL439544  -0.486   7.531   6.308  0.1085 -0.2453 -0.4293
 1648BOLB   C1C39545  -0.071   8.100   5.986  0.0066 -0.2460 -0.0785
 1648BOLB   C2C39546   0.078   8.485   5.866  0.1071  0.0058  0.1925
 1648BOLB   C3C39547   0.118   8.981   5.812 -0.1056 -0.1960 -0.0026
 1648BOLB   C4C39548   0.226   9.375   5.559 -0.4566 -0.3599  0.0427
 1648BOLB   C1D39549  -0.212   7.904   6.543  0.0258  0.1027 -0.0986
 1648BOLB   C2D39550   0.055   8.190   6.625 -0.1828 -0.2400  0.0384
 1648BOLB   C3D39551   0.269   8.457   6.858  0.0521 -0.3118 -0.1912
 1648BOLB   C4D39552   0.291   8.913   6.891  0.0260  0.3145 -0.0361
 1649BOLB   NC139553   4.242  16.804   3.540  0.0654  0.1693  0.4426
 1649BOLB   PO139554   4.194  16.351   3.607  0.2623 -0.1461  0.0938
 1649BOLB   GL139555   4.199  16.356   3.208  0.0484  0.1142 -0.0109
 1649BOLB   GL239556   4.095  16.644   3.107 -0.2514  0.0354  0.1032
 1649BOLB   C1A39557   3.876  16.283   2.830  0.0852 -0.0908 -0.0227
 1649BOLB   C2A39558   3.903  16.277   2.480  0.2340 -0.2231 -0.0403
 1649BOLB   C3A39559   4.085  16.194   2.023  0.0665 -0.3031 -0.0932
 1649BOLB   C4A39560   4.186  15.903   1.762  0.2052 -0.1579  0.2353
 1649BOLB   C1B39561   4.049  16.751   2.619 -0.0221 -0.3635  0.0242
 1649BOLB   C2B39562   4.131  16.639   2.144  0.0056 -0.1328  0.2606
 1649BOLB   C3B39563   4.517  16.468   1.947 -0.1795  0.3446 -0.0247
 1649BOLB   C4B39564   4.897  16.220   1.716  0.0949 -0.1964 -0.1781
 1649BOLB   NC239565   3.106  14.576  -0.315  0.3453  0.4112  0.0174
 1649BOLB   PO239566   3.367  14.845  -0.071 -0.1509  0.1639 -0.0232
 1649BOLB   GL339567   3.494  14.791   0.266  0.3419 -0.1097  0.0987
 1649BOLB   GL439568   3.743  14.765   0.384  0.0980 -0.1600 -0.2937
 1649BOLB   C1C39569   3.370  14.906   0.723 -0.0211  0.1846  0.0392
 1649BOLB   C2C39570   3.510  15.143   1.050  0.0534 -0.1842  0.0152
 1649BOLB   C3C39571   3.621  15.262   1.342  0.0332 -0.0639  0.0799
 1649BOLB   C4C39572   3.868  15.592   1.628 -0.3092 -0.0898 -0.1174
 1649BOLB   C1D39573   3.906  14.791   0.834 -0.1661  0.0893 -0.1491
 1649BOLB   C2D39574   3.933  14.896   1.299 -0.1813  0.1803  0.1755
 1649BOLB   C3D39575   3.647  14.942   1.752  0.0896  0.2435 -0.0314
 1649BOLB   C4D39576   3.661  15.253   2.018  0.2833 -0.2166 -0.3374
 1650BOLB   NC139577   0.467  21.925  16.103 -0.0134 -0.0048  0.2339
 1650BOLB   PO139578   0.252  21.659  15.807 -0.1617 -0.0331 -0.1756
 1650BOLB   GL139579   0.013  21.749  16.103  0.0409  0.2981 -0.1235
 1650BOLB   GL239580  -0.263  21.512  16.271  0.1887 -0.2762  0.0251
 1650BOLB   C1A39581  -0.343  21.974  16.407  0.1343  0.2064  0.0808
 1650BOLB   C2A39582  -0.516  22.294  16.732 -0.0862 -0.2589  0.1399
 1650BOLB   C3A39583  -0.782  22.553  16.924  0.1645  0.1187  0.2541
 1650BOLB   C4A39584  -0.629  22.867  17.153  0.0459 -0.0700  0.0971
 1650BOLB   C1B39585  -0.606  21.565  16.571 -0.2209 -0.2291  0.0270
 1650BOLB   C2B39586  -1.063  21.499  16.569 -0.2587 -0.2303 -0.1611
 1650BOLB   C3B39587  -1.481  21.574  16.584 -0.0337  0.0057 -0.0827
 1650BOLB   C4B39588  -1.833  21.608  16.917 -0.1472 -0.1022  0.0032
 1650BOLB   NC239589  -2.738  24.253  17.674  0.0953 -0.3286 -0.0109
 1650BOLB   PO239590  -2.328  24.494  17.830 -0.0255  0.3681 -0.3347
 1650BOLB   GL339591  -1.886  24.454  17.718 -0.1049 -0.0642 -0.2981
 1650BOLB   GL439592  -1.710  24.702  17.596 -0.3535  0.1175 -0.2785
 1650BOLB   C1C39593  -1.466  24.177  17.764 -0.2876 -0.2777 -0.3649
 1650BOLB   C2C39594  -1.480  23.713  17.651 -0.1649  0.2904 -0.0328
 1650BOLB   C3C39595  -1.412  23.309  17.637  0.0554  0.0108  0.0180
 1650BOLB   C4C39596  -0.878  23.172  17.460 -0.1071  0.3635 -0.1399
 1650BOLB   C1D39597  -1.577  24.524  17.210  0.0760 -0.1656  0.3532
 1650BOLB   C2D39598  -1.254  24.417  17.050 -0.2092  0.1435 -0.0223
 1650BOLB   C3D39599  -0.931  24.638  16.728  0.2641  0.0640  0.0949
 1650BOLB   C4D39600  -1.019  24.883  16.441 -0.1845 -0.0006 -0.0050
 1651BOLB   NC139601   8.321  22.848  22.759  0.0857  0.0508  0.1768
 1651BOLB   PO139602   8.159  22.375  22.622 -0.2095 -0.1123 -0.2805
 1651BOLB   GL139603   7.961  22.711  22.341 -0.0484 -0.0047 -0.0377
 1651BOLB   GL239604   7.574  22.677  22.365  0.3510 -0.0465  0.1318
 1651BOLB   C1A39605   8.165  22.802  21.918 -0.1714 -0.2540 -0.1957
 1651BOLB   C2A39606   8.141  22.638  21.516 -0.2266 -0.0457 -0.2613
 1651BOLB   C3A39607   7.863  22.826  21.173 -0.1409 -0.0752  0.0629
 1651BOLB   C4A39608   7.717  23.004  20.843 -0.1019 -0.2439  0.4976
 1651BOLB   C1B39609   7.653  22.897  21.947 -0.1038 -0.2530 -0.0582
 1651BOLB   C2B39610   7.591  22.963  21.583  0.0986 -0.0843  0.2193
 1651BOLB   C3B39611   7.426  23.304  21.261 -0.0194 -0.0667  0.1126
 1651BOLB   C4B39612   7.277  23.442  20.847  0.0653  0.3808 -0.1370
 1651BOLB   NC239613   7.240  23.111  17.998 -0.2297  0.2522 -0.6454
 1651BOLB   PO239614   7.426  22.881  18.387  0.2074  0.1855 -0.0969
 1651BOLB   GL339615   7.493  22.873  18.731  0.0161 -0.0011  0.1507
 1651BOLB   GL439616   7.204  22.821  18.928  0.1636 -0.0098 -0.0583
 1651BOLB   C1C39617   7.592  22.635  19.156 -0.1413  0.3609 -0.1359
 1651BOLB   C2C39618   7.642  22.685  19.622 -0.0679  0.2958  0.1249
 1651BOLB   C3C39619   7.513  22.921  20.020  0.1623  0.1891  0.0973
 1651BOLB   C4C39620   7.644  23.053  20.405 -0.1490  0.0550 -0.2245
 1651BOLB   C1D39621   7.039  22.926  19.350  0.0980 -0.1832  0.6039
 1651BOLB   C2D39622   7.062  22.779  19.685 -0.0355 -0.0888  0.0126
 1651BOLB   C3D39623   7.085  22.733  20.126  0.1596 -0.0865  0.2605
 1651BOLB   C4D39624   7.369  22.614  20.502  0.1533  0.2939  0.1780
 1652BOLB   NC139625  16.388  17.706  16.992 -0.1902 -0.0196  0.0763
 1652BOLB   PO139626  15.941  17.854  17.319 -0.0652  0.1913  0.4020
 1652BOLB   GL139627  15.666  18.205  17.113 -0.0116  0.2978  0.0058
 1652BOLB   GL239628  15.673  18.425  16.954  0.0184 -0.1445  0.0298
 1652BOLB   C1A39629  15.384  18.069  16.804 -0.0582 -0.0112  0.1049
 1652BOLB   C2A39630  15.559  18.175  16.369  0.1204 -0.2465  0.0419
 1652BOLB   C3A39631  15.387  18.459  16.097 -0.2272 -0.0117  0.1721
 1652BOLB   C4A39632  15.246  18.764  15.817  0.3438  0.0842 -0.0434
 1652BOLB   C1B39633  15.406  18.826  16.965  0.2182 -0.0512 -0.3762
 1652BOLB   C2B39634  14.966  18.948  16.713 -0.2341  0.0250 -0.0319
 1652BOLB   C3B39635  14.638  19.090  16.806  0.0780 -0.0462  0.0782
 1652BOLB   C4B39636  14.248  19.323  16.854  0.3169 -0.1658 -0.0387
 1652BOLB   NC239637  12.512  19.549  15.458  0.3380  0.0023  0.2399
 1652BOLB   PO239638  12.980  19.702  15.220  0.0496 -0.0582 -0.1584
 1652BOLB   GL339639  13.397  19.610  15.338 -0.0131  0.3051  0.1191
 1652BOLB   GL439640  13.505  19.883  15.187 -0.6207 -0.1614  0.2129
 1652BOLB   C1C39641  13.827  19.440  15.611  0.3122  0.0397  0.0562
 1652BOLB   C2C39642  14.296  19.179  15.504 -0.1354  0.0683  0.1252
 1652BOLB   C3C39643  14.744  19.208  15.462 -0.0507  0.1134  0.0631
 1652BOLB   C4C39644  15.167  19.081  15.673  0.0462 -0.1458  0.1239
 1652BOLB   C1D39645  13.885  19.887  15.372 -0.0466  0.3813 -0.0931
 1652BOLB   C2D39646  14.120  19.824  15.765 -0.0978 -0.2058  0.0148
 1652BOLB   C3D39647  14.464  19.928  16.004 -0.1028 -0.0212  0.2193
 1652BOLB   C4D39648  14.703  19.790  16.286  0.0335 -0.1909  0.1224
 1653BOLB   NC139649  14.073  19.011   5.431 -0.0375 -0.0962  0.4161
 1653BOLB   PO139650  14.350  19.204   5.681  0.0354 -0.1502  0.0279
 1653BOLB   GL139651  14.790  19.146   5.555 -0.5009  0.0432  0.1595
 1653BOLB   GL239652  14.821  19.143   5.170  0.0039 -0.0522 -0.0821
 1653BOLB   C1A39653  15.230  18.881   5.488  0.1877 -0.0143  0.0606
 1653BOLB   C2A39654  15.551  18.650   5.348  0.2779 -0.3122  0.0660
 1653BOLB   C3A39655  15.825  18.467   5.701  0.1007 -0.3362 -0.1819
 1653BOLB   C4A39656  16.179  18.341   5.949 -0.4670  0.1337 -0.4137
 1653BOLB   C1B39657  15.152  18.998   4.935  0.2166 -0.0097 -0.1380
 1653BOLB   C2B39658  15.639  19.160   4.791 -0.0718  0.1683 -0.1493
 1653BOLB   C3B39659  16.046  19.120   4.768  0.0350  0.3252 -0.0245
 1653BOLB   C4B39660  16.374  19.174   4.970 -0.0403  0.3723 -0.1040
 1653BOLB   NC239661  18.209  17.842   6.217  0.1046 -0.2665 -0.1346
 1653BOLB   PO239662  18.225  18.104   5.878 -0.0801 -0.2505 -0.0477
 1653BOLB   GL339663  17.950  18.353   6.086 -0.2450 -0.0524  0.2811
 1653BOLB   GL439664  17.741  18.090   6.255  0.1826 -0.1131  0.5502
 1653BOLB   C1C39665  17.529  18.440   5.967  0.2362 -0.0994 -0.2675
 1653BOLB   C2C39666  17.126  18.322   5.896 -0.1385 -0.0273  0.2159
 1653BOLB   C3C39667  16.813  18.192   5.704  0.0583  0.0962 -0.3330
 1653BOLB   C4C39668  16.388  18.009   5.775  0.3895  0.0342 -0.3383
 1653BOLB   C1D39669  17.533  17.813   5.950 -0.0483 -0.0762  0.0429
 1653BOLB   C2D39670  17.150  17.711   6.099  0.1625  0.4222 -0.0498
 1653BOLB   C3D39671  16.808  17.694   5.911 -0.1757 -0.0404  0.1594
 1653BOLB   C4D39672  16.755  17.755   5.513 -0.1394 -0.0164  0.0616
 1654BOLB   NC139673  17.665  23.141  16.087 -0.0476  0.2159  0.0120
 1654BOLB   PO139674  17.495  23.031  15.731  0.2418 -0.0502  0.3368
 1654BOLB   GL139675  17.145  23.381  15.687 -0.1454  0.0756 -0.3774
 1654BOLB   GL239676  16.943  23.294  15.863  0.1497  0.0326 -0.1082
 1654BOLB   C1A39677  16.943  23.616  15.330 -0.1380  0.0265  0.2697
 1654BOLB   C2A39678  16.483  23.856  15.207 -0.2596 -0.0002  0.0863
 1654BOLB   C3A39679  16.300  23.931  14.820 -0.3223  0.0184 -0.1905
 1654BOLB   C4A39680  16.200  24.219  14.491  0.1925 -0.1991  0.0713
 1654BOLB   C1B39681  16.762  23.041  15.526 -0.0951 -0.0364  0.1796
 1654BOLB   C2B39682  16.682  22.678  15.296  0.1091  0.2776  0.0318
 1654BOLB   C3B39683  16.554  22.456  14.975 -0.3665 -0.1385  0.2124
 1654BOLB   C4B39684  16.515  22.389  14.537  0.0480  0.1052 -0.5122
 1654BOLB   NC239685  14.476  23.183  13.860  0.0839 -0.5446 -0.0387
 1654BOLB   PO239686  14.119  23.593  13.791 -0.0822 -0.0229  0.1912
 1654BOLB   GL339687  14.489  23.575  14.147 -0.0630  0.0151 -0.0620
 1654BOLB   GL439688  14.498  23.341  14.352 -0.0291  0.1527 -0.0154
 1654BOLB   C1C39689  14.895  23.722  14.134  0.2466 -0.0331  0.2879
 1654BOLB   C2C39690  15.223  23.799  13.944  0.0684  0.3738 -0.0311
 1654BOLB   C3C39691  15.517  24.036  13.944  0.1262  0.0523 -0.1506
 1654BOLB   C4C39692  15.816  24.338  14.263  0.1094 -0.0230  0.1182
 1654BOLB   C1D39693  14.771  23.459  14.617 -0.0571 -0.0512 -0.0215
 1654BOLB   C2D39694  15.113  23.551  14.868 -0.1303  0.1354  0.1742
 1654BOLB   C3D39695  15.445  23.856  14.909  0.0650  0.1472  0.0536
 1654BOLB   C4D39696  15.753  23.924  14.508  0.4307  0.1883  0.0765
 1655BOLB   NC139697   9.354  27.064  15.713 -0.0803  0.0088  0.1298
 1655BOLB   PO139698   9.271  27.044  16.208 -0.2493 -0.1507 -0.1057
 1655BOLB   GL139699   9.581  27.331  16.427  0.2033  0.2037 -0.0359
 1655BOLB   GL239700   9.911  27.363  16.574  0.1870 -0.0652  0.0020
 1655BOLB   C1A39701   9.557  27.718  16.562 -0.3013 -0.1746 -0.0915
 1655BOLB   C2A39702   9.411  28.126  16.696 -0.2596  0.3175 -0.1872
 1655BOLB   C3A39703   9.091  28.502  16.736 -0.2670  0.0464  0.0388
 1655BOLB   C4A39704   8.841  28.817  16.702 -0.0159  0.0787  0.3122
 1655BOLB   C1B39705  10.059  27.739  16.695  0.4153  0.1837  0.0614
 1655BOLB   C2B39706  10.289  28.121  16.799 -0.2061 -0.1702  0.1646
 1655BOLB   C3B39707  10.603  28.421  16.745  0.3289 -0.2058  0.3433
 1655BOLB   C4B39708  10.878  28.804  16.600  0.1522  0.0598 -0.1536
 1655BOLB   NC239709   8.596  30.684  18.386  0.1000 -0.0093 -0.0358
 1655BOLB   PO239710   8.360  30.772  18.018  0.1857  0.1630 -0.1254
 1655BOLB   GL339711   8.413  30.663  17.633 -0.2219 -0.0287  0.1546
 1655BOLB   GL439712   8.611  30.635  17.460 -0.2205  0.0963  0.2344
 1655BOLB   C1C39713   8.464  30.159  17.475  0.0088  0.0707 -0.1588
 1655BOLB   C2C39714   8.628  29.819  17.393 -0.2418  0.0813 -0.1260
 1655BOLB   C3C39715   8.758  29.392  17.231 -0.2031  0.1642  0.0288
 1655BOLB   C4C39716   8.727  29.018  17.044 -0.1898 -0.0038 -0.2864
 1655BOLB   C1D39717   8.505  30.404  17.075  0.1120  0.2283  0.3014
 1655BOLB   C2D39718   8.263  30.090  17.067  0.2295  0.3232  0.1546
 1655BOLB   C3D39719   8.154  29.703  17.124  0.3557 -0.1686 -0.0609
 1655BOLB   C4D39720   8.295  29.327  17.076 -0.3965  0.0843 -0.1106
 1656BOLB   NC139721   6.290  26.505   4.885 -0.0817 -0.0965  0.2656
 1656BOLB   PO139722   5.896  26.670   4.876 -0.1916  0.2171  0.1287
 1656BOLB   GL139723   6.033  26.947   4.514  0.0067 -0.1837  0.0967
 1656BOLB   GL239724   6.285  26.899   4.432  0.0077  0.3256 -0.0234
 1656BOLB   C1A39725   5.902  27.262   4.290 -0.0055  0.1008 -0.0579
 1656BOLB   C2A39726   6.113  27.576   4.247  0.1737  0.0771  0.2704
 1656BOLB   C3A39727   5.972  27.889   4.106 -0.0092  0.2499 -0.1973
 1656BOLB   C4A39728   5.579  28.052   3.855  0.0099  0.0091 -0.1415
 1656BOLB   C1B39729   6.237  27.136   3.997 -0.4087  0.0369 -0.3666
 1656BOLB   C2B39730   6.183  27.347   3.750  0.2009  0.1684  0.1643
 1656BOLB   C3B39731   6.492  27.768   3.562  0.0330  0.1601 -0.0286
 1656BOLB   C4B39732   6.402  28.076   3.310  0.0137  0.0437 -0.0996
 1656BOLB   NC239733   5.039  28.245   1.513 -0.2896  0.1552  0.0471
 1656BOLB   PO239734   5.288  28.394   1.473 -0.1577  0.0646  0.1487
 1656BOLB   GL339735   5.455  28.333   1.831  0.2621  0.2085 -0.1245
 1656BOLB   GL439736   5.706  28.456   1.842 -0.1998 -0.0757  0.2245
 1656BOLB   C1C39737   5.466  28.438   2.281 -0.0408  0.3172  0.1259
 1656BOLB   C2C39738   5.835  28.493   2.590  0.0996 -0.2363 -0.0303
 1656BOLB   C3C39739   5.606  28.456   3.024  0.2638  0.0317 -0.0086
 1656BOLB   C4C39740   5.527  28.344   3.540 -0.3473  0.1452  0.1163
 1656BOLB   C1D39741   6.062  28.440   2.127 -0.1089  0.0054  0.0896
 1656BOLB   C2D39742   6.283  28.421   2.496  0.1735 -0.0204 -0.1057
 1656BOLB   C3D39743   6.357  28.521   3.023  0.1068 -0.1745  0.4113
 1656BOLB   C4D39744   6.523  28.517   3.443  0.0220  0.0115  0.1373
 1657BOLB   NC139745  18.758  18.166   6.743 -0.0021  0.0080 -0.0652
 1657BOLB   PO139746  18.458  18.194   7.145  0.0927  0.0583  0.0029
 1657BOLB   GL139747  18.197  18.576   7.165  0.3786 -0.1842  0.1203
 1657BOLB   GL239748  18.309  18.891   7.255  0.1953  0.1723  0.0911
 1657BOLB   C1A39749  17.825  18.736   7.141  0.1572 -0.0912  0.1109
 1657BOLB   C2A39750  17.700  19.030   6.976  0.3169 -0.2129  0.2906
 1657BOLB   C3A39751  17.462  19.405   6.981  0.0408  0.0230  0.1093
 1657BOLB   C4A39752  17.380  19.845   7.132 -0.0009  0.0121 -0.4791
 1657BOLB   C1B39753  18.043  19.247   7.298  0.0331  0.0137 -0.0622
 1657BOLB   C2B39754  17.632  19.462   7.441  0.1138 -0.0902 -0.1593
 1657BOLB   C3B39755  17.177  19.484   7.690 -0.2155  0.0959  0.0913
 1657BOLB   C4B39756  16.829  19.784   7.578 -0.1985 -0.1047  0.1149
 1657BOLB   NC239757  19.214  19.918   7.775 -0.1796 -0.1239  0.1131
 1657BOLB   PO239758  19.084  19.806   8.168 -0.0197 -0.0518 -0.0932
 1657BOLB   GL339759  18.715  19.951   8.009 -0.1559  0.3222  0.4341
 1657BOLB   GL439760  18.782  19.833   7.607  0.0881  0.0571 -0.1308
 1657BOLB   C1C39761  18.548  20.306   7.770  0.1329  0.3046  0.2049
 1657BOLB   C2C39762  18.138  20.437   7.641 -0.0990  0.3711  0.0034
 1657BOLB   C3C39763  17.696  20.371   7.639  0.1011 -0.0511 -0.0531
 1657BOLB   C4C39764  17.438  20.096   7.493  0.2928 -0.0193 -0.1149
 1657BOLB   C1D39765  18.367  19.732   7.637  0.0762  0.1610  0.1536
 1657BOLB   C2D39766  18.152  19.180   7.776 -0.0724 -0.1277  0.3626
 1657BOLB   C3D39767  18.084  18.801   7.687 -0.0139  0.0526 -0.1287
 1657BOLB   C4D39768  17.757  18.548   7.626 -0.1409 -0.1257  0.1990
 1658BOLB   NC139769  14.250  17.807   9.275  0.1125  0.0753 -0.1056
 1658BOLB   PO139770  14.346  17.502   9.192 -0.1751 -0.3412  0.0497
 1658BOLB   GL139771  14.714  17.342   9.289  0.0862  0.0120 -0.0530
 1658BOLB   GL239772  14.458  17.165   9.561 -0.0977 -0.3040 -0.0833
 1658BOLB   C1A39773  15.106  17.264   9.292  0.1099  0.1805 -0.1925
 1658BOLB   C2A39774  15.534  17.216   9.269  0.1006  0.2403 -0.1114
 1658BOLB   C3A39775  15.860  16.907   9.389 -0.0476  0.2987 -0.4150
 1658BOLB   C4A39776  16.240  16.792   9.231  0.3355  0.0256 -0.1329
 1658BOLB   C1B39777  14.640  16.850   9.374 -0.1086 -0.3043 -0.1571
 1658BOLB   C2B39778  14.835  16.516   9.161  0.3104  0.0113 -0.2496
 1658BOLB   C3B39779  15.216  16.215   8.943 -0.0654 -0.1436  0.1316
 1658BOLB   C4B39780  15.370  15.758   8.902 -0.1597 -0.0412 -0.1382
 1658BOLB   NC239781  16.913  14.394   8.688 -0.0150 -0.0698 -0.2375
 1658BOLB   PO239782  16.880  14.746   8.417  0.1767 -0.0263  0.1922
 1658BOLB   GL339783  16.837  15.219   8.436 -0.1420  0.1363  0.0135
 1658BOLB   GL439784  16.552  15.190   8.203  0.0543  0.0854  0.0477
 1658BOLB   C1C39785  16.789  15.569   8.412 -0.1032  0.1026 -0.0120
 1658BOLB   C2C39786  16.816  16.056   8.573  0.3225  0.0369 -0.2305
 1658BOLB   C3C39787  16.811  16.497   8.530 -0.1761 -0.3168 -0.3205
 1658BOLB   C4C39788  16.618  16.638   8.915  0.1153  0.0662 -0.0552
 1658BOLB   C1D39789  16.278  15.177   7.998 -0.2719  0.1354  0.3224
 1658BOLB   C2D39790  15.990  15.285   7.635 -0.0322 -0.0756 -0.2465
 1658BOLB   C3D39791  15.903  15.249   7.183  0.1158  0.0890 -0.1368
 1658BOLB   C4D39792  15.602  15.303   6.936 -0.1791  0.3271 -0.0658
 1659BOLB   NC139793   6.838  24.407   3.453 -0.3504 -0.0745  0.1691
 1659BOLB   PO139794   6.791  24.101   3.166 -0.1865 -0.3748  0.2099
 1659BOLB   GL139795   6.781  24.425   2.898  0.2804  0.2610 -0.1700
 1659BOLB   GL239796   6.669  24.314   2.674  0.3132  0.0505  0.0755
 1659BOLB   C1A39797   6.744  24.822   2.728  0.2264 -0.2900  0.0523
 1659BOLB   C2A39798   6.782  25.187   2.551 -0.2237 -0.0230 -0.0738
 1659BOLB   C3A39799   6.504  25.479   2.394 -0.0112 -0.5602  0.2637
 1659BOLB   C4A39800   6.662  25.917   2.281 -0.2412 -0.0209  0.0216
 1659BOLB   C1B39801   6.512  24.376   2.262 -0.1050 -0.1126 -0.4368
 1659BOLB   C2B39802   6.536  24.636   1.855 -0.1503 -0.1095 -0.4639
 1659BOLB   C3B39803   6.385  24.903   1.585  0.2347 -0.0119  0.2139
 1659BOLB   C4B39804   6.447  25.315   1.419  0.1759  0.1576  0.1443
 1659BOLB   NC239805   6.327  28.263   0.365 -0.1483 -0.1666 -0.3245
 1659BOLB   PO239806   6.155  27.943   0.676  0.0010 -0.2304  0.1778
 1659BOLB   GL339807   6.171  27.635   0.921 -0.2737  0.3143 -0.0613
 1659BOLB   GL439808   5.899  27.620   1.112 -0.0290  0.1174 -0.0463
 1659BOLB   C1C39809   6.338  27.338   1.145 -0.2884 -0.2638  0.0234
 1659BOLB   C2C39810   6.332  26.873   1.443  0.1617  0.0764  0.0060
 1659BOLB   C3C39811   6.445  26.560   1.644 -0.1533  0.0046  0.2421
 1659BOLB   C4C39812   6.654  26.270   1.937  0.1081 -0.0422 -0.5256
 1659BOLB   C1D39813   5.828  27.156   1.053  0.0530  0.0395 -0.2818
 1659BOLB   C2D39814   5.546  26.811   1.151 -0.1359 -0.1174  0.2362
 1659BOLB   C3D39815   5.383  26.537   1.482 -0.1365  0.0432  0.0209
 1659BOLB   C4D39816   5.602  26.439   1.859  0.0170  0.0395 -0.1616
 1660BOLB   NC139817   3.868  15.745  21.341 -0.3137  0.1995 -0.3053
 1660BOLB   PO139818   3.967  16.054  21.132 -0.0707 -0.1602 -0.0422
 1660BOLB   GL139819   4.069  16.259  20.869  0.0111 -0.0118 -0.1214
 1660BOLB   GL239820   4.006  16.546  20.831  0.1008 -0.0380 -0.2118
 1660BOLB   C1A39821   4.334  16.505  20.519 -0.1852 -0.1106  0.2920
 1660BOLB   C2A39822   4.566  16.268  20.162 -0.1599  0.1582  0.2879
 1660BOLB   C3A39823   4.359  16.003  19.752  0.1142  0.0756 -0.1478
 1660BOLB   C4A39824   4.495  16.063  19.438 -0.1763  0.2210 -0.0645
 1660BOLB   C1B39825   3.827  16.306  20.386  0.0467  0.0994 -0.1450
 1660BOLB   C2B39826   4.035  16.326  19.954  0.2270  0.0380 -0.1381
 1660BOLB   C3B39827   4.182  16.546  19.647  0.1173 -0.0118 -0.2631
 1660BOLB   C4B39828   4.459  16.708  19.328 -0.2194  0.1635 -0.0231
 1660BOLB   NC239829   4.752  17.292  17.010  0.0673 -0.0465 -0.4187
 1660BOLB   PO239830   4.392  17.139  17.262 -0.2387 -0.1945  0.3638
 1660BOLB   GL339831   4.516  16.929  17.664  0.0906  0.1714 -0.0683
 1660BOLB   GL439832   4.406  17.097  17.908  0.1532  0.0390  0.0525
 1660BOLB   C1C39833   4.364  16.549  17.920  0.1085  0.3006  0.0318
 1660BOLB   C2C39834   4.476  16.472  18.381 -0.1293  0.0654  0.4056
 1660BOLB   C3C39835   4.523  16.415  18.773 -0.1259  0.0483 -0.1666
 1660BOLB   C4C39836   4.731  16.259  19.074  0.1844 -0.1349  0.2901
 1660BOLB   C1D39837   4.736  16.932  18.195 -0.0699  0.2029 -0.0724
 1660BOLB   C2D39838   4.903  16.755  18.559  0.1375  0.0348  0.0224
 1660BOLB   C3D39839   4.933  16.729  19.079  0.0850  0.4971 -0.1240
 1660BOLB   C4D39840   5.088  16.616  19.420 -0.0052  0.0425 -0.0221
 1661BOLB   NC139841   1.574  24.572  16.296  0.4065 -0.4210 -0.2655
 1661BOLB   PO139842   1.899  24.390  16.451 -0.0358  0.0141  0.3200
 1661BOLB   GL139843   1.736  24.650  16.762  0.3666  0.0524  0.0114
 1661BOLB   GL239844   1.453  24.673  16.722  0.0200 -0.1208 -0.0827
 1661BOLB   C1A39845   1.588  24.614  17.199  0.0202  0.2739  0.1008
 1661BOLB   C2A39846   1.679  24.508  17.588  0.0973  0.2119  0.0370
 1661BOLB   C3A39847   1.464  24.524  17.978  0.1195 -0.1750  0.0558
 1661BOLB   C4A39848   1.520  24.738  18.398 -0.0785 -0.2201 -0.0394
 1661BOLB   C1B39849   1.313  25.030  17.026  0.1197 -0.2738 -0.1960
 1661BOLB   C2B39850   0.999  25.266  17.072  0.1593 -0.1082  0.0253
 1661BOLB   C3B39851   0.585  25.233  17.286 -0.1051  0.0698  0.0395
 1661BOLB   C4B39852   0.258  24.955  17.411  0.0301 -0.0135 -0.2534
 1661BOLB   NC239853   0.116  25.968  19.934 -0.1833 -0.1431  0.3178
 1661BOLB   PO239854   0.461  25.860  20.190  0.1004 -0.2593  0.0383
 1661BOLB   GL339855   0.694  25.919  19.728  0.0308  0.2745  0.0012
 1661BOLB   GL439856   0.674  26.236  19.576 -0.0379  0.2501  0.1271
 1661BOLB   C1C39857   0.899  25.694  19.485 -0.3146  0.0521 -0.2032
 1661BOLB   C2C39858   1.069  25.386  19.305  0.4098 -0.1380  0.0856
 1661BOLB   C3C39859   1.188  24.941  19.070  0.1265 -0.4073 -0.2900
 1661BOLB   C4C39860   1.472  24.739  18.749 -0.0564 -0.1405  0.0632
 1661BOLB   C1D39861   0.755  26.025  19.113  0.2238 -0.0312 -0.1301
 1661BOLB   C2D39862   0.694  25.560  19.005 -0.0787  0.2968  0.0925
 1661BOLB   C3D39863   0.912  25.298  18.871  0.0442 -0.0459  0.3143
 1661BOLB   C4D39864   1.164  25.134  18.594  0.0114 -0.0941  0.2553
 1662BOLB   NC139865  10.726  18.970   2.791  0.1794  0.1146 -0.2590
 1662BOLB   PO139866  10.623  19.440   2.883 -0.4280 -0.0353 -0.0254
 1662BOLB   GL139867  10.625  19.455   2.402  0.0459  0.0683  0.2662
 1662BOLB   GL239868  10.528  19.185   2.239  0.2956 -0.2677  0.0026
 1662BOLB   C1A39869  10.984  19.669   2.220  0.0834 -0.2755  0.1035
 1662BOLB   C2A39870  11.371  19.792   1.867 -0.1800 -0.2546  0.2897
 1662BOLB   C3A39871  11.598  19.631   1.470  0.1316  0.4551  0.0576
 1662BOLB   C4A39872  11.915  19.539   1.216 -0.2084  0.1394  0.1333
 1662BOLB   C1B39873  10.610  19.103   1.856  0.1627  0.1012 -0.0499
 1662BOLB   C2B39874  10.872  19.050   1.534 -0.3284 -0.2744 -0.0670
 1662BOLB   C3B39875  11.011  19.072   1.109  0.2284  0.0410  0.0060
 1662BOLB   C4B39876  10.795  19.001   0.746  0.0960 -0.0368  0.1190
 1662BOLB   NC239877  13.819  18.956  -0.261 -0.0824  0.0588 -0.0302
 1662BOLB   PO239878  13.646  19.383  -0.352 -0.1369 -0.4220 -0.2345
 1662BOLB   GL339879  13.269  19.402  -0.112  0.0529  0.1551 -0.0841
 1662BOLB   GL439880  13.369  19.576   0.125 -0.1105  0.1112  0.1732
 1662BOLB   C1C39881  13.067  19.210   0.247  0.1328 -0.0717  0.0100
 1662BOLB   C2C39882  12.799  19.204   0.525  0.1438 -0.0416  0.3484
 1662BOLB   C3C39883  12.665  19.271   0.852  0.0196 -0.4572  0.1115
 1662BOLB   C4C39884  12.246  19.440   0.981  0.0980  0.0986 -0.0103
 1662BOLB   C1D39885  12.928  19.703   0.309 -0.0236 -0.3349  0.0246
 1662BOLB   C2D39886  12.687  19.831   0.746 -0.2359  0.2927 -0.1017
 1662BOLB   C3D39887  12.572  20.042   0.988 -0.2271 -0.2061  0.1212
 1662BOLB   C4D39888  12.847  20.221   1.255  0.0836 -0.2438 -0.2643
 1663BOLB   NC139889  34.110   9.697  11.194 -0.0909 -0.3924 -0.3052
 1663BOLB   PO139890  34.015   9.495  10.832  0.1497  0.0758 -0.3339
 1663BOLB   GL139891  34.356   9.549  10.581  0.0804 -0.0942 -0.1110
 1663BOLB   GL239892  34.541   9.761  10.813 -0.0296 -0.0542  0.1330
 1663BOLB   C1A39893  34.697   9.706  10.343 -0.1611  0.2620 -0.2668
 1663BOLB   C2A39894  35.116   9.494  10.279  0.3030  0.1456 -0.1568
 1663BOLB   C3A39895  35.365   9.571  10.601  0.1064 -0.0129 -0.2397
 1663BOLB   C4A39896  35.518  10.006  10.691  0.0897 -0.2150  0.2214
 1663BOLB   C1B39897  34.636  10.122  10.663 -0.1967 -0.0490 -0.0053
 1663BOLB   C2B39898  34.888  10.461  10.618 -0.0501 -0.1276  0.0445
 1663BOLB   C3B39899  34.626  10.837  10.806  0.0600  0.2024  0.0622
 1663BOLB   C4B39900  34.470  10.940  11.117  0.1685 -0.0100 -0.3550
 1663BOLB   NC239901  33.499   9.797  10.771 -0.1140  0.0353  0.2768
 1663BOLB   PO239902  33.825   9.738  10.360  0.0908 -0.0681 -0.1306
 1663BOLB   GL339903  34.202  10.000  10.499 -0.5431  0.2712 -0.1182
 1663BOLB   GL439904  34.174  10.137  10.849 -0.1332  0.1432 -0.0045
 1663BOLB   C1C39905  34.468  10.487  10.362 -0.0378 -0.1454 -0.0526
 1663BOLB   C2C39906  34.720  10.763  10.151 -0.2788 -0.1823  0.1443
 1663BOLB   C3C39907  35.172  10.817  10.377 -0.1075 -0.0656  0.0341
 1663BOLB   C4C39908  35.490  10.512  10.520 -0.2550 -0.1646 -0.0446
 1663BOLB   C1D39909  34.222  10.546  10.839  0.2793 -0.2719 -0.2502
 1663BOLB   C2D39910  34.091  10.814  10.488 -0.1850 -0.0548 -0.0216
 1663BOLB   C3D39911  34.316  11.153  10.361  0.0799  0.0397 -0.0794
 1663BOLB   C4D39912  34.074  11.552  10.451  0.2368  0.1510  0.1795
 1664BOLB   NC139913   1.297  20.428  25.216 -0.3649 -0.3294  0.0121
 1664BOLB   PO139914   1.652  20.861  25.360 -0.0931  0.2794 -0.2129
 1664BOLB   GL139915   1.880  20.910  25.796 -0.0644  0.4279 -0.1430
 1664BOLB   GL239916   2.040  21.112  25.914  0.1341  0.1976  0.2937
 1664BOLB   C1A39917   1.852  20.744  26.230  0.0492  0.0774 -0.1231
 1664BOLB   C2A39918   2.218  20.561  26.466  0.3077 -0.0131 -0.2357
 1664BOLB   C3A39919   2.581  20.371  26.662  0.3152 -0.0332 -0.3338
 1664BOLB   C4A39920   2.753  20.140  26.998  0.1457 -0.0929  0.2719
 1664BOLB   C1B39921   2.364  20.955  26.121 -0.0849 -0.1262 -0.0150
 1664BOLB   C2B39922   2.650  20.785  26.393 -0.0013  0.5186 -0.0790
 1664BOLB   C3B39923   2.946  20.748  26.843  0.1079 -0.4815 -0.1364
 1664BOLB   C4B39924   3.115  20.736  27.311  0.0943  0.1376 -0.4463
 1664BOLB   NC239925   3.859  20.624  29.170  0.3592 -0.1528 -0.1959
 1664BOLB   PO239926   4.079  20.235  29.097  0.1163 -0.0517  0.0225
 1664BOLB   GL339927   3.993  20.044  28.638  0.2609  0.0345 -0.1690
 1664BOLB   GL439928   3.856  19.791  28.534 -0.2727  0.5441 -0.0477
 1664BOLB   C1C39929   3.842  20.230  28.267 -0.1768 -0.0959 -0.1331
 1664BOLB   C2C39930   3.505  20.181  28.018 -0.1923 -0.0760 -0.0067
 1664BOLB   C3C39931   3.176  20.293  27.751 -0.0186  0.0374 -0.1888
 1664BOLB   C4C39932   2.870  20.314  27.480  0.1389 -0.0420 -0.0954
 1664BOLB   C1D39933   3.651  19.718  28.142 -0.0780 -0.1892  0.0729
 1664BOLB   C2D39934   3.271  19.789  27.831 -0.1417 -0.0389 -0.2642
 1664BOLB   C3D39935   2.979  19.856  27.547  0.2913 -0.1526  0.2732
 1664BOLB   C4D39936   2.785  19.707  27.234 -0.3753 -0.2188 -0.1576
 1665BOLB   NC139937  29.320  21.958   6.477 -0.2401  0.3520 -0.1208
 1665BOLB   PO139938  29.753  21.934   6.445 -0.0536 -0.1674 -0.1836
 1665BOLB   GL139939  30.051  21.821   6.830 -0.1688 -0.2086  0.0786
 1665BOLB   GL239940  30.211  21.486   6.772 -0.1058  0.5032 -0.1669
 1665BOLB   C1A39941  30.368  22.085   7.037  0.0482  0.2299  0.1650
 1665BOLB   C2A39942  30.808  22.134   7.270  0.1082 -0.2258  0.0299
 1665BOLB   C3A39943  31.217  21.732   7.143  0.0426  0.1272 -0.2643
 1665BOLB   C4A39944  31.305  21.233   7.191 -0.1229  0.1540  0.2069
 1665BOLB   C1B39945  30.581  21.655   6.864  0.1382  0.1332 -0.1366
 1665BOLB   C2B39946  30.919  22.033   6.770  0.0723 -0.3614 -0.1044
 1665BOLB   C3B39947  30.964  22.365   6.472 -0.1214 -0.1351 -0.1558
 1665BOLB   C4B39948  31.166  22.763   6.396  0.0546 -0.1975 -0.1247
 1665BOLB   NC239949  29.724  20.509   5.461  0.1758  0.2632  0.1149
 1665BOLB   PO239950  29.878  20.337   5.851 -0.2471 -0.2002 -0.0823
 1665BOLB   GL339951  30.190  20.215   6.079  0.0893 -0.1803 -0.1538
 1665BOLB   GL439952  30.147  19.791   6.194 -0.0614  0.3390  0.0444
 1665BOLB   C1C39953  30.456  20.355   6.340  0.1684 -0.3953  0.0160
 1665BOLB   C2C39954  30.493  20.662   6.635 -0.1533 -0.0882  0.0749
 1665BOLB   C3C39955  30.942  20.671   6.793  0.4414  0.0149  0.2106
 1665BOLB   C4C39956  31.165  20.915   7.115  0.0462 -0.2235  0.0497
 1665BOLB   C1D39957  30.445  19.900   5.821  0.1101 -0.0910  0.3505
 1665BOLB   C2D39958  30.727  19.799   5.622 -0.1553  0.1603 -0.0621
 1665BOLB   C3D39959  31.060  19.659   5.679 -0.1336 -0.0669 -0.1070
 1665BOLB   C4D39960  31.460  19.617   5.475  0.0456 -0.1521  0.0213
 1666BOLB   NC139961   3.084  18.490   6.032 -0.1714 -0.0081  0.2182
 1666BOLB   PO139962   3.013  18.228   5.698  0.2031 -0.3459  0.2142
 1666BOLB   GL139963   2.889  17.718   5.709 -0.4602 -0.1303 -0.2023
 1666BOLB   GL239964   3.092  17.433   5.768  0.0938  0.0750 -0.3221
 1666BOLB   C1A39965   2.487  17.605   5.573 -0.1426  0.1539  0.0675
 1666BOLB   C2A39966   2.158  17.292   5.551  0.2440  0.1248  0.2545
 1666BOLB   C3A39967   1.837  17.006   5.613  0.0862  0.0415  0.1030
 1666BOLB   C4A39968   1.517  16.891   5.656  0.0947  0.0949  0.4084
 1666BOLB   C1B39969   2.647  17.153   5.752  0.0284  0.0050  0.0815
 1666BOLB   C2B39970   2.342  16.872   5.627  0.2321  0.2268 -0.1037
 1666BOLB   C3B39971   2.323  16.574   5.800  0.0332 -0.0045 -0.2196
 1666BOLB   C4B39972   2.362  16.110   5.840  0.1136 -0.2928  0.1623
 1666BOLB   NC239973   2.196  18.069   6.960 -0.0090  0.1789 -0.1323
 1666BOLB   PO239974   2.350  17.630   7.112  0.0073  0.3879  0.4070
 1666BOLB   GL339975   1.879  17.618   7.051  0.0614  0.0712  0.2028
 1666BOLB   GL439976   1.724  17.838   7.103  0.1546  0.3133 -0.3120
 1666BOLB   C1C39977   1.694  17.222   6.911 -0.1190  0.2778 -0.0702
 1666BOLB   C2C39978   1.364  17.272   6.676 -0.2828 -0.0514 -0.1785
 1666BOLB   C3C39979   1.299  17.029   6.315 -0.3382  0.1323  0.0559
 1666BOLB   C4C39980   1.314  16.877   5.869  0.5432 -0.2560  0.0784
 1666BOLB   C1D39981   1.360  17.754   6.805 -0.0372 -0.0855 -0.0990
 1666BOLB   C2D39982   0.820  17.713   6.754 -0.3481  0.2796 -0.3682
 1666BOLB   C3D39983   0.401  17.560   6.807  0.1891 -0.0096  0.0653
 1666BOLB   C4D39984   0.117  17.207   6.674  0.2312 -0.0982 -0.2530
 1667BOLB   NC139985   2.340  20.763   3.395 -0.0334  0.0087  0.4034
 1667BOLB   PO139986   2.356  21.245   3.377  0.2316  0.2102  0.2030
 1667BOLB   GL139987   2.006  21.109   3.029  0.1511  0.1476  0.1606
 1667BOLB   GL239988   2.199  21.361   2.879  0.0504  0.2797 -0.0432
 1667BOLB   C1A39989   1.601  20.953   2.816 -0.0772 -0.3502  0.1025
 1667BOLB   C2A39990   1.320  21.043   2.552  0.1043 -0.2406 -0.1076
 1667BOLB   C3A39991   1.261  20.775   2.292  0.0213  0.2971 -0.4736
 1667BOLB   C4A39992   1.233  20.790   1.849 -0.2920 -0.3562 -0.3451
 1667BOLB   C1B39993   1.802  21.394   2.636  0.0016 -0.1438 -0.0037
 1667BOLB   C2B39994   1.597  21.616   2.239 -0.1505 -0.2871 -0.0670
 1667BOLB   C3B39995   1.822  21.842   1.826 -0.3860  0.0369 -0.0025
 1667BOLB   C4B39996   2.164  21.796   1.545  0.0550  0.1894 -0.1781
 1667BOLB   NC239997   0.192  20.764  -0.604 -0.0113  0.1578 -0.0638
 1667BOLB   PO239998   0.259  20.975  -0.176 -0.0114  0.4423 -0.0249
 1667BOLB   GL339999   0.550  21.010   0.157 -0.4379  0.1122  0.2506
 1667BOLB   GL440000   0.807  20.764   0.157 -0.2014 -0.1130 -0.0460
 1667BOLB   C1C40001   0.504  20.954   0.594 -0.0308 -0.3140  0.4875
 1667BOLB   C2C40002   0.559  20.633   0.905 -0.0507  0.1718 -0.1524
 1667BOLB   C3C40003   0.696  20.526   1.279  0.0500  0.0360 -0.0493
 1667BOLB   C4C40004   0.960  20.586   1.525  0.2458  0.0132  0.0344
 1667BOLB   C1D40005   0.916  20.750   0.591 -0.0487  0.4237  0.1349
 1667BOLB   C2D40006   0.966  20.909   0.911  0.0735  0.0023 -0.1901
 1667BOLB   C3D40007   1.320  20.797   1.115  0.2718  0.0246  0.0371
 1667BOLB   C4D40008   1.499  20.591   1.435  0.0562 -0.1535  0.0562
 1668BOLB   NC140009   3.935  28.025   7.743  0.2977  0.2665 -0.0340
 1668BOLB   PO140010   3.530  28.141   7.944 -0.0220 -0.1257 -0.1531
 1668BOLB   GL140011   3.684  28.410   7.552  0.1060  0.0009  0.2604
 1668BOLB   GL240012   3.492  28.350   7.367  0.0254  0.0570  0.0766
 1668BOLB   C1A40013   3.643  28.835   7.527 -0.0372 -0.2998  0.1583
 1668BOLB   C2A40014   3.600  29.305   7.469  0.0024 -0.0481  0.3095
 1668BOLB   C3A40015   3.545  29.505   7.224  0.2247 -0.0085  0.0373
 1668BOLB   C4A40016   3.089  29.706   7.179 -0.0361  0.0394  0.2499
 1668BOLB   C1B40017   3.146  28.671   7.302 -0.0234 -0.2025  0.1523
 1668BOLB   C2B40018   3.121  28.853   6.864  0.0527  0.0382  0.1261
 1668BOLB   C3B40019   3.320  29.041   6.502 -0.0557 -0.0176  0.5869
 1668BOLB   C4B40020   3.223  29.194   6.180 -0.0657 -0.3700  0.0424
 1668BOLB   NC240021   1.628  30.493   5.438 -0.0222  0.1006 -0.0167
 1668BOLB   PO240022   1.327  30.719   5.695  0.1880  0.2332 -0.2575
 1668BOLB   GL340023   1.688  30.754   5.972  0.0248 -0.1430 -0.0323
 1668BOLB   GL440024   1.716  30.422   5.968 -0.0410  0.2271 -0.2848
 1668BOLB   C1C40025   1.999  30.746   6.286 -0.1407 -0.1496 -0.0739
 1668BOLB   C2C40026   2.260  30.454   6.626 -0.1125 -0.2724  0.1110
 1668BOLB   C3C40027   2.496  30.140   6.771 -0.3351 -0.0245  0.1231
 1668BOLB   C4C40028   2.703  29.812   7.011  0.0026 -0.0115 -0.0784
 1668BOLB   C1D40029   1.888  30.161   6.228  0.0350 -0.0861  0.0479
 1668BOLB   C2D40030   2.076  29.968   6.534  0.0161 -0.0050  0.0958
 1668BOLB   C3D40031   2.212  29.664   6.787  0.2394  0.3979 -0.2978
 1668BOLB   C4D40032   2.483  29.396   6.902  0.2975 -0.1747  0.0676
 1669BOLB   NC140033   6.638  14.995  14.799 -0.1368  0.0554  0.0354
 1669BOLB   PO140034   6.179  14.799  14.720  0.1365 -0.1900 -0.1250
 1669BOLB   GL140035   6.211  14.479  14.937 -0.1859  0.1011  0.2050
 1669BOLB   GL240036   6.458  14.246  14.908 -0.1846  0.3474  0.2280
 1669BOLB   C1A40037   5.978  14.150  15.207  0.0422 -0.0128  0.0265
 1669BOLB   C2A40038   5.896  13.811  15.547  0.3281  0.0183 -0.1973
 1669BOLB   C3A40039   5.577  13.507  15.584 -0.1295 -0.3110  0.2443
 1669BOLB   C4A40040   5.288  13.395  15.750  0.1881  0.0084 -0.1101
 1669BOLB   C1B40041   6.432  13.949  15.236 -0.1524  0.2767 -0.3529
 1669BOLB   C2B40042   6.338  13.788  15.600 -0.0972 -0.0880  0.1612
 1669BOLB   C3B40043   6.141  13.579  15.916 -0.0026  0.3744  0.0045
 1669BOLB   C4B40044   6.122  13.384  16.254  0.2355  0.1555 -0.4690
 1669BOLB   NC240045   5.397  11.070  16.953  0.2275  0.0391 -0.0758
 1669BOLB   PO240046   5.621  11.439  17.235  0.0632  0.2168 -0.0426
 1669BOLB   GL340047   5.400  11.888  17.261  0.2815  0.0331  0.3268
 1669BOLB   GL440048   5.759  11.974  17.337 -0.1299 -0.2100  0.1143
 1669BOLB   C1C40049   5.298  12.376  17.223  0.1722  0.2182  0.0009
 1669BOLB   C2C40050   5.351  12.706  17.001  0.0345  0.0749  0.2404
 1669BOLB   C3C40051   5.179  13.011  16.657 -0.0842  0.0360  0.2162
 1669BOLB   C4C40052   5.078  13.196  16.158 -0.0069  0.0530 -0.1777
 1669BOLB   C1D40053   5.806  12.352  17.018  0.2498  0.0068 -0.1133
 1669BOLB   C2D40054   5.946  12.460  16.619 -0.0794 -0.4328 -0.1168
 1669BOLB   C3D40055   6.002  12.503  16.181  0.1110  0.1902 -0.3954
 1669BOLB   C4D40056   6.329  12.608  15.891 -0.1824 -0.4830 -0.0921
 1670BOLB   NC140057  10.744  27.383  11.454 -0.0975  0.1436  0.1458
 1670BOLB   PO140058  11.027  27.682  11.362  0.0093  0.2757 -0.0634
 1670BOLB   GL140059  11.327  28.004  11.522 -0.2827 -0.0280  0.3545
 1670BOLB   GL240060  11.617  27.994  11.492 -0.0153 -0.1231  0.1199
 1670BOLB   C1A40061  11.414  28.392  11.793 -0.2260  0.0436  0.0688
 1670BOLB   C2A40062  11.765  28.752  11.687 -0.1079 -0.1757 -0.3831
 1670BOLB   C3A40063  12.101  29.012  11.842  0.0771 -0.0848 -0.0865
 1670BOLB   C4A40064  12.294  29.432  11.906 -0.0301 -0.0557 -0.2303
 1670BOLB   C1B40065  11.855  28.190  11.842  0.0244  0.0339 -0.2245
 1670BOLB   C2B40066  11.816  28.468  12.124 -0.3427 -0.4567 -0.2122
 1670BOLB   C3B40067  12.003  28.725  12.484  0.3119 -0.1427  0.0407
 1670BOLB   C4B40068  12.219  29.126  12.437  0.0111 -0.1113  0.0214
 1670BOLB   NC240069  12.839  31.933  11.189  0.1436 -0.1804  0.1442
 1670BOLB   PO240070  12.352  32.035  11.179  0.2325  0.4031  0.2490
 1670BOLB   GL340071  12.551  31.641  11.387 -0.0074  0.2083 -0.0835
 1670BOLB   GL440072  12.385  31.649  11.766  0.0951 -0.0970  0.2116
 1670BOLB   C1C40073  12.422  31.126  11.469  0.0986 -0.0475  0.4687
 1670BOLB   C2C40074  12.346  30.647  11.649 -0.1094  0.1511 -0.1820
 1670BOLB   C3C40075  12.677  30.250  11.696 -0.1654 -0.0693 -0.0480
 1670BOLB   C4C40076  12.564  29.857  11.762 -0.1405  0.0462  0.1248
 1670BOLB   C1D40077  12.330  31.186  12.104  0.1623  0.2584  0.2232
 1670BOLB   C2D40078  12.228  30.860  12.494  0.2174  0.0001 -0.2625
 1670BOLB   C3D40079  12.151  30.430  12.567 -0.2143 -0.0269 -0.2579
 1670BOLB   C4D40080  11.870  30.094  12.733 -0.1337 -0.3513  0.1369
 1671BOLB   NC140081   0.813  25.629  13.889  0.0394 -0.0930  0.0551
 1671BOLB   PO140082   0.783  26.057  13.703 -0.3361 -0.0785  0.0417
 1671BOLB   GL140083   0.495  26.386  13.619 -0.0592 -0.1674 -0.1183
 1671BOLB   GL240084   0.379  26.371  13.427  0.0453 -0.3015  0.3329
 1671BOLB   C1A40085   0.542  26.780  13.755 -0.0368  0.0958 -0.2096
 1671BOLB   C2A40086   0.430  27.117  13.903 -0.2390 -0.3513  0.1741
 1671BOLB   C3A40087   0.106  27.418  14.045  0.3725  0.1401 -0.0028
 1671BOLB   C4A40088  -0.271  27.700  14.161 -0.2761 -0.0734  0.1806
 1671BOLB   C1B40089   0.145  26.656  13.465  0.0511 -0.4845 -0.6000
 1671BOLB   C2B40090  -0.039  27.119  13.608 -0.0956  0.0526 -0.0770
 1671BOLB   C3B40091  -0.241  27.510  13.588  0.1201 -0.3459  0.1527
 1671BOLB   C4B40092  -0.643  27.612  13.820 -0.3422  0.1469 -0.0189
 1671BOLB   NC240093  -0.532  30.456  14.330  0.0669  0.2213  0.0479
 1671BOLB   PO240094  -0.784  30.043  14.505  0.3103  0.0229 -0.1008
 1671BOLB   GL340095  -0.560  29.732  14.245  0.4355  0.1024 -0.1312
 1671BOLB   GL440096  -0.707  29.699  13.891  0.0719  0.2163  0.1342
 1671BOLB   C1C40097  -0.700  29.298  14.384 -0.0333  0.3356  0.5240
 1671BOLB   C2C40098  -0.541  28.905  14.253  0.2421  0.2131 -0.0752
 1671BOLB   C3C40099  -0.478  28.489  14.296  0.4730  0.2526 -0.2372
 1671BOLB   C4C40100  -0.412  27.994  14.363  0.0219 -0.0586  0.2156
 1671BOLB   C1D40101  -0.499  29.480  13.467 -0.0947  0.2069 -0.0822
 1671BOLB   C2D40102  -0.026  29.341  13.492  0.3452 -0.0100 -0.1120
 1671BOLB   C3D40103   0.283  29.437  13.698  0.2615  0.0173  0.2427
 1671BOLB   C4D40104   0.685  29.676  13.883 -0.1170 -0.0667 -0.2122
 1672BOLB   NC140105  11.519  16.755  14.130  0.1373 -0.0686 -0.0840
 1672BOLB   PO140106  11.312  16.673  13.806 -0.2621  0.0446  0.2948
 1672BOLB   GL140107  11.636  16.394  13.869  0.3176 -0.2702  0.2400
 1672BOLB   GL240108  11.538  16.218  13.712  0.0385 -0.0307 -0.0055
 1672BOLB   C1A40109  11.853  15.972  14.026 -0.1632 -0.1632 -0.0984
 1672BOLB   C2A40110  11.924  15.575  14.266 -0.0433  0.5384  0.1570
 1672BOLB   C3A40111  11.864  15.279  14.640 -0.3287  0.1866 -0.0751
 1672BOLB   C4A40112  12.048  15.025  15.010  0.0930 -0.0975  0.0238
 1672BOLB   C1B40113  11.353  15.899  14.081 -0.1663  0.1289 -0.0484
 1672BOLB   C2B40114  11.432  15.495  14.231  0.0284  0.2553  0.0042
 1672BOLB   C3B40115  11.459  15.115  14.331  0.0029 -0.1289  0.1205
 1672BOLB   C4B40116  11.575  14.711  14.143  0.0347  0.1293  0.1221
 1672BOLB   NC240117  13.176  13.447  16.293 -0.1642 -0.1073  0.3625
 1672BOLB   PO240118  13.086  13.765  16.573  0.0495  0.2299  0.1966
 1672BOLB   GL340119  12.943  14.116  16.250 -0.1381 -0.2082 -0.0568
 1672BOLB   GL440120  13.158  14.343  16.253  0.0139  0.1503 -0.0221
 1672BOLB   C1C40121  12.606  14.153  15.986  0.2899 -0.1111  0.0883
 1672BOLB   C2C40122  12.470  14.300  15.606  0.0372 -0.1561 -0.0543
 1672BOLB   C3C40123  12.663  14.633  15.355 -0.0533 -0.1723 -0.2223
 1672BOLB   C4C40124  12.474  14.805  15.041  0.0226  0.3308 -0.3603
 1672BOLB   C1D40125  12.799  14.626  16.234 -0.0332 -0.0610 -0.4966
 1672BOLB   C2D40126  12.558  14.734  16.529 -0.1408 -0.0731 -0.0505
 1672BOLB   C3D40127  12.206  15.028  16.547  0.0185  0.0785 -0.0952
 1672BOLB   C4D40128  11.798  15.032  16.661 -0.0333  0.2250 -0.2072
 1673BOLB   NC140129   1.619  24.630  15.198  0.0700 -0.0744 -0.0418
 1673BOLB   PO140130   1.713  25.074  15.393 -0.0189  0.1468  0.0069
 1673BOLB   GL140131   1.406  25.257  15.635  0.0662  0.3521  0.0332
 1673BOLB   GL240132   1.131  25.134  15.736  0.0991  0.2724 -0.1104
 1673BOLB   C1A40133   1.228  25.664  15.661  0.0058  0.2613 -0.2374
 1673BOLB   C2A40134   0.890  25.930  15.669 -0.1423 -0.0435 -0.0726
 1673BOLB   C3A40135   0.512  26.132  15.685 -0.2269 -0.6170 -0.5685
 1673BOLB   C4A40136   0.106  26.327  15.446 -0.2681 -0.1405 -0.3611
 1673BOLB   C1B40137   0.803  25.506  15.936 -0.0552 -0.1387  0.3210
 1673BOLB   C2B40138   0.701  25.741  16.373  0.4420  0.1972  0.1264
 1673BOLB   C3B40139   0.608  26.053  16.653 -0.0347  0.1864  0.0742
 1673BOLB   C4B40140   0.512  26.440  16.732 -0.2496  0.2368 -0.0069
 1673BOLB   NC240141  -0.803  27.975  16.988 -0.0426 -0.0862  0.2186
 1673BOLB   PO240142  -1.177  27.987  16.651 -0.2355 -0.2240  0.2636
 1673BOLB   GL340143  -0.899  27.546  16.591 -0.1375  0.1407 -0.1451
 1673BOLB   GL440144  -0.790  27.455  16.927 -0.1609  0.1579  0.0137
 1673BOLB   C1C40145  -0.688  27.172  16.314 -0.2440 -0.1898 -0.1152
 1673BOLB   C2C40146  -0.612  26.798  16.200 -0.1289  0.1872 -0.2435
 1673BOLB   C3C40147  -0.539  26.610  15.790 -0.4066 -0.0975  0.0293
 1673BOLB   C4C40148  -0.174  26.578  15.640 -0.0035 -0.0866 -0.0839
 1673BOLB   C1D40149  -0.498  27.279  16.762 -0.0035 -0.1588  0.0436
 1673BOLB   C2D40150  -0.205  27.026  16.497  0.3573  0.0746  0.0231
 1673BOLB   C3D40151  -0.140  26.779  16.122 -0.0796  0.1094 -0.0605
 1673BOLB   C4D40152   0.259  26.472  15.999  0.1239  0.0379  0.1606
 1674BOLB   NC140153   8.088  30.199  19.042  0.3359 -0.2500  0.2723
 1674BOLB   PO140154   8.474  29.926  19.059 -0.0295 -0.2390  0.2806
 1674BOLB   GL140155   8.468  29.716  18.778  0.0890  0.2376 -0.1872
 1674BOLB   GL240156   8.766  29.564  18.628  0.1781  0.4135 -0.1573
 1674BOLB   C1A40157   8.326  29.461  18.400 -0.2105  0.0496 -0.1943
 1674BOLB   C2A40158   8.109  29.196  18.191  0.1114 -0.2390  0.3511
 1674BOLB   C3A40159   8.077  29.021  17.812  0.1936 -0.0011 -0.0274
 1674BOLB   C4A40160   8.095  28.766  17.573 -0.4047 -0.3391 -0.1008
 1674BOLB   C1B40161   8.733  29.226  18.341 -0.0509  0.1107  0.2350
 1674BOLB   C2B40162   8.896  28.975  18.050 -0.1866  0.0716  0.0786
 1674BOLB   C3B40163   9.259  28.714  17.922 -0.0869  0.0272 -0.2356
 1674BOLB   C4B40164   9.386  28.353  17.652 -0.1127  0.0670  0.3974
 1674BOLB   NC240165   7.510  27.286  16.060 -0.1025  0.3577  0.2297
 1674BOLB   PO240166   7.872  27.063  16.267  0.1628  0.3616  0.1604
 1674BOLB   GL340167   7.855  27.485  16.431  0.1904  0.0837  0.0128
 1674BOLB   GL440168   7.764  27.468  16.749 -0.1101 -0.3874  0.0467
 1674BOLB   C1C40169   7.767  27.962  16.506 -0.2015  0.1671  0.1603
 1674BOLB   C2C40170   7.763  28.304  16.736  0.2527 -0.0405 -0.0629
 1674BOLB   C3C40171   7.919  28.488  17.016 -0.0451  0.1518 -0.1722
 1674BOLB   C4C40172   8.035  28.767  17.235 -0.0939  0.0533 -0.1146
 1674BOLB   C1D40173   7.577  27.878  16.950 -0.1405 -0.4760  0.0108
 1674BOLB   C2D40174   7.404  28.247  17.035  0.0005 -0.0302 -0.2801
 1674BOLB   C3D40175   7.161  28.450  17.198 -0.0031  0.1758 -0.0214
 1674BOLB   C4D40176   6.937  28.800  17.366  0.2898  0.0353 -0.2144
 1675BOLB   NC140177  13.579  22.850  20.653 -0.1050 -0.0807 -0.1047
 1675BOLB   PO140178  13.777  23.008  20.265  0.1064  0.0426  0.0249
 1675BOLB   GL140179  13.487  22.774  20.079 -0.2412 -0.2979  0.2398
 1675BOLB   GL240180  13.692  22.969  19.807  0.2569  0.0343  0.0976
 1675BOLB   C1A40181  13.220  22.639  19.734 -0.0365 -0.0570 -0.1406
 1675BOLB   C2A40182  12.894  22.514  19.457  0.1427 -0.0037 -0.2151
 1675BOLB   C3A40183  12.889  22.178  18.993  0.1229 -0.1525 -0.0125
 1675BOLB   C4A40184  13.000  21.780  18.836 -0.0093 -0.1108 -0.2152
 1675BOLB   C1B40185  13.508  23.004  19.477 -0.0842  0.1129  0.0360
 1675BOLB   C2B40186  13.197  23.003  19.020  0.2295  0.1975 -0.1869
 1675BOLB   C3B40187  13.106  23.086  18.689  0.0435  0.1039  0.2199
 1675BOLB   C4B40188  12.831  23.117  18.295 -0.3514  0.0387  0.2629
 1675BOLB   NC240189  15.622  22.239  19.608 -0.0436  0.2616  0.0473
 1675BOLB   PO240190  15.562  22.073  19.290  0.1029 -0.0616  0.1520
 1675BOLB   GL340191  15.153  21.844  19.231  0.1506 -0.2052  0.3597
 1675BOLB   GL440192  15.170  21.513  19.161 -0.0313 -0.1819  0.4027
 1675BOLB   C1C40193  14.659  21.678  19.261  0.3298  0.1458  0.1081
 1675BOLB   C2C40194  14.248  21.558  19.246  0.1203  0.0901  0.1110
 1675BOLB   C3C40195  13.753  21.436  19.230 -0.2590 -0.0305 -0.0174
 1675BOLB   C4C40196  13.331  21.495  19.005 -0.0536  0.3090  0.0723
 1675BOLB   C1D40197  14.941  21.630  18.776 -0.1131  0.0841  0.2320
 1675BOLB   C2D40198  14.730  21.670  18.475 -0.0782  0.0640 -0.3747
 1675BOLB   C3D40199  14.269  21.702  18.363 -0.0469 -0.0033 -0.1003
 1675BOLB   C4D40200  13.901  21.792  18.347  0.0064  0.1539  0.0144
 1676BOLB   NC140201   3.891  19.271  17.926  0.1584 -0.2829  0.3047
 1676BOLB   PO140202   4.143  18.925  17.892 -0.0555 -0.0675  0.1318
 1676BOLB   GL140203   3.930  18.713  18.227  0.2089 -0.1622 -0.2220
 1676BOLB   GL240204   3.681  18.882  18.340 -0.2546 -0.1128  0.2020
 1676BOLB   C1A40205   4.024  18.713  18.654  0.0019  0.0266 -0.0958
 1676BOLB   C2A40206   3.962  18.474  18.971  0.2653 -0.0946 -0.1680
 1676BOLB   C3A40207   4.029  18.781  19.330  0.0892  0.0088 -0.0056
 1676BOLB   C4A40208   4.045  18.834  19.768 -0.3575 -0.2162  0.1876
 1676BOLB   C1B40209   3.427  19.036  18.687  0.1046 -0.2452 -0.0683
 1676BOLB   C2B40210   3.107  19.282  18.890 -0.1454  0.2041  0.0301
 1676BOLB   C3B40211   2.920  19.108  19.239  0.3435  0.0930 -0.0625
 1676BOLB   C4B40212   2.514  18.950  19.433  0.1858 -0.1147 -0.0167
 1676BOLB   NC240213   4.191  18.548  22.131 -0.0246 -0.1108  0.0318
 1676BOLB   PO240214   3.773  18.704  22.101  0.1202  0.1911  0.1997
 1676BOLB   GL340215   3.566  18.770  21.757  0.2604 -0.2174 -0.2808
 1676BOLB   GL440216   3.383  18.688  21.596 -0.0629 -0.0083 -0.0431
 1676BOLB   C1C40217   3.744  19.061  21.462 -0.2255 -0.2235 -0.0643
 1676BOLB   C2C40218   3.810  19.124  21.034  0.0948  0.2364 -0.1820
 1676BOLB   C3C40219   3.893  19.036  20.592  0.4686 -0.6100  0.0838
 1676BOLB   C4C40220   3.966  18.947  20.151  0.2073 -0.1305 -0.1739
 1676BOLB   C1D40221   3.386  18.857  21.217  0.1397 -0.0057  0.0619
 1676BOLB   C2D40222   3.265  18.911  20.856  0.0551 -0.5744 -0.1177
 1676BOLB   C3D40223   3.365  19.194  20.570 -0.0636  0.0494 -0.0209
 1676BOLB   C4D40224   3.245  19.619  20.279 -0.2928  0.1097 -0.0609
 1677BOLB   NC140225  37.603  24.649   9.945 -0.1074  0.2481 -0.1304
 1677BOLB   PO140226  37.497  25.013   9.676 -0.1828  0.0384 -0.1945
 1677BOLB   GL140227  37.281  25.171   9.304  0.1056  0.2115  0.2522
 1677BOLB   GL240228  37.189  25.409   9.481 -0.0803  0.1116 -0.0607
 1677BOLB   C1A40229  36.797  25.271   9.212 -0.1650 -0.2054  0.1006
 1677BOLB   C2A40230  36.346  25.311   9.157  0.1284  0.1956  0.3815
 1677BOLB   C3A40231  35.871  25.179   9.201  0.2164  0.2419  0.0559
 1677BOLB   C4A40232  35.523  25.183   9.005 -0.2086 -0.0248  0.0450
 1677BOLB   C1B40233  37.014  25.825   9.494 -0.2271 -0.1157 -0.1293
 1677BOLB   C2B40234  36.703  26.097   9.563  0.1891 -0.0414  0.2316
 1677BOLB   C3B40235  36.386  26.434   9.615 -0.1064  0.0416 -0.1171
 1677BOLB   C4B40236  36.165  26.800   9.422 -0.1973  0.1817  0.0260
 1677BOLB   NC240237  34.280  27.052   9.240 -0.2435  0.3199 -0.1316
 1677BOLB   PO240238  33.939  26.985   9.216 -0.3515  0.1545  0.1269
 1677BOLB   GL340239  34.057  26.549   9.136  0.3307  0.4895  0.0710
 1677BOLB   GL440240  34.245  26.481   8.756 -0.0202  0.0130  0.1833
 1677BOLB   C1C40241  34.141  26.149   9.225  0.2109  0.3760 -0.3067
 1677BOLB   C2C40242  34.489  25.910   9.292  0.0007  0.1096 -0.0775
 1677BOLB   C3C40243  34.817  25.646   9.253 -0.1405 -0.4191  0.1973
 1677BOLB   C4C40244  35.204  25.351   9.164  0.1032 -0.0412 -0.1123
 1677BOLB   C1D40245  34.401  26.183   8.746 -0.0758  0.2596  0.2476
 1677BOLB   C2D40246  34.601  25.769   8.835  0.0437 -0.1433  0.2195
 1677BOLB   C3D40247  34.963  25.506   8.781 -0.0957  0.0270  0.1868
 1677BOLB   C4D40248  34.970  25.008   8.799 -0.0402  0.4037 -0.0540
 1678BOLB   NC140249  37.720  24.276  11.860 -0.1613  0.1661  0.1162
 1678BOLB   PO140250  37.633  24.725  11.796  0.2055  0.0169  0.2175
 1678BOLB   GL140251  37.294  25.048  11.710 -0.0668 -0.2280 -0.2441
 1678BOLB   GL240252  37.070  25.006  11.460  0.0514  0.0160  0.1677
 1678BOLB   C1A40253  37.208  25.477  11.695 -0.0936 -0.0011 -0.0469
 1678BOLB   C2A40254  36.705  25.497  11.679  0.0115  0.2541 -0.4595
 1678BOLB   C3A40255  36.247  25.475  11.660 -0.0375  0.0630  0.0963
 1678BOLB   C4A40256  35.861  25.759  11.885  0.0755 -0.0097 -0.2602
 1678BOLB   C1B40257  36.930  25.450  11.255 -0.2453 -0.0483  0.0946
 1678BOLB   C2B40258  37.138  25.875  11.251 -0.3400  0.0349 -0.2541
 1678BOLB   C3B40259  37.234  26.289  11.463  0.1951  0.1770 -0.3630
 1678BOLB   C4B40260  37.154  26.482  11.708  0.1309  0.0715  0.0173
 1678BOLB   NC240261  33.660  26.723  12.253  0.1485 -0.3712  0.2625
 1678BOLB   PO240262  33.845  26.871  12.648  0.2271 -0.1001  0.2257
 1678BOLB   GL340263  34.270  26.781  12.480 -0.1106  0.1433 -0.1759
 1678BOLB   GL440264  34.221  26.676  12.194  0.0658 -0.2163  0.0968
 1678BOLB   C1C40265  34.726  26.665  12.269 -0.2740  0.0247  0.2080
 1678BOLB   C2C40266  34.996  26.380  12.093 -0.1495  0.1165 -0.1487
 1678BOLB   C3C40267  35.422  26.299  12.135  0.0330 -0.1172 -0.2513
 1678BOLB   C4C40268  35.640  25.950  12.124 -0.0371  0.0328 -0.3819
 1678BOLB   C1D40269  34.422  26.325  12.023  0.0186  0.1560  0.2891
 1678BOLB   C2D40270  34.750  26.015  11.751  0.1606 -0.0210 -0.2656
 1678BOLB   C3D40271  34.561  25.715  11.487 -0.1546  0.2380 -0.1366
 1678BOLB   C4D40272  34.427  25.336  11.369  0.3048  0.2164 -0.1540
 1679BOLB   NC140273  14.496  19.578   9.419  0.0167  0.0306  0.4738
 1679BOLB   PO140274  14.411  19.347   9.080  0.1049  0.1796 -0.2836
 1679BOLB   GL140275  14.897  19.179   9.282  0.0345  0.0678 -0.2118
 1679BOLB   GL240276  14.961  18.889   9.119 -0.2565 -0.0246 -0.1825
 1679BOLB   C1A40277  15.308  19.059   9.449 -0.1072  0.2034  0.1030
 1679BOLB   C2A40278  15.654  19.077   9.805 -0.0464  0.1684 -0.2235
 1679BOLB   C3A40279  16.084  18.863  10.089  0.0706  0.0192  0.2918
 1679BOLB   C4A40280  16.329  18.593  10.279 -0.0378  0.1074  0.1512
 1679BOLB   C1B40281  15.299  18.697   9.042  0.1328  0.2889 -0.4114
 1679BOLB   C2B40282  15.734  18.422   9.163  0.2134  0.1531  0.0912
 1679BOLB   C3B40283  16.119  18.349   9.356  0.2373 -0.4886  0.3378
 1679BOLB   C4B40284  16.373  18.086   9.564 -0.0523 -0.0798 -0.3164
 1679BOLB   NC240285  18.557  18.644  11.199 -0.2177  0.1254  0.0148
 1679BOLB   PO240286  18.546  18.084  11.416  0.4295 -0.0919  0.1513
 1679BOLB   GL340287  18.153  18.091  11.209  0.0612  0.0617  0.2612
 1679BOLB   GL440288  18.224  18.314  10.960  0.2333 -0.0359  0.0164
 1679BOLB   C1C40289  17.647  18.002  11.137 -0.1765 -0.2373 -0.3594
 1679BOLB   C2C40290  17.441  18.168  10.777  0.1088 -0.0354  0.1496
 1679BOLB   C3C40291  16.986  18.158  10.699  0.0829  0.1225 -0.0602
 1679BOLB   C4C40292  16.593  18.394  10.624  0.0174 -0.0649  0.0610
 1679BOLB   C1D40293  17.916  18.532  10.569 -0.2021  0.1814  0.1672
 1679BOLB   C2D40294  17.711  18.778  10.280  0.1653 -0.1000 -0.1442
 1679BOLB   C3D40295  17.384  18.999  10.259  0.0678 -0.3123 -0.3107
 1679BOLB   C4D40296  17.029  19.152   9.975  0.0844  0.1618 -0.1250
 1680BOLB   NC140297  13.686  25.301  12.391  0.1454 -0.2847 -0.2023
 1680BOLB   PO140298  13.625  25.770  12.169 -0.0671 -0.1599 -0.0690
 1680BOLB   GL140299  13.820  26.135  12.100 -0.0609  0.0838 -0.2276
 1680BOLB   GL240300  13.596  26.400  12.233  0.0724 -0.0528  0.0485
 1680BOLB   C1A40301  14.114  26.371  12.458  0.1837  0.2159  0.1523
 1680BOLB   C2A40302  14.370  26.326  12.762  0.0087 -0.0533  0.1287
 1680BOLB   C3A40303  14.744  26.251  13.161 -0.2496  0.1890  0.1718
 1680BOLB   C4A40304  14.664  26.601  13.481  0.0239 -0.4139 -0.0042
 1680BOLB   C1B40305  13.855  26.701  12.200 -0.2251  0.1569 -0.2714
 1680BOLB   C2B40306  14.122  26.913  12.104 -0.1483 -0.3135 -0.2510
 1680BOLB   C3B40307  14.228  27.377  12.091 -0.2403  0.0975  0.1364
 1680BOLB   C4B40308  14.041  27.772  12.255  0.1128 -0.2791 -0.2967
 1680BOLB   NC240309  16.262  27.863  14.835 -0.3173  0.0565 -0.4243
 1680BOLB   PO240310  16.130  27.782  14.431  0.1847  0.1492  0.3515
 1680BOLB   GL340311  15.847  27.743  14.227  0.0021 -0.0159 -0.0760
 1680BOLB   GL440312  15.888  27.765  13.815  0.0767 -0.0500 -0.1807
 1680BOLB   C1C40313  15.588  27.438  14.103  0.2346  0.3702  0.1283
 1680BOLB   C2C40314  15.172  27.323  14.042 -0.2617 -0.0219  0.1846
 1680BOLB   C3C40315  14.733  27.250  13.955  0.2274  0.0957  0.3420
 1680BOLB   C4C40316  14.546  27.033  13.703 -0.1860  0.1002 -0.2068
 1680BOLB   C1D40317  15.442  27.595  13.547  0.0440 -0.2339  0.1293
 1680BOLB   C2D40318  15.095  27.343  13.502 -0.1844  0.1298 -0.1729
 1680BOLB   C3D40319  14.748  27.080  13.257 -0.0527  0.0772  0.3218
 1680BOLB   C4D40320  14.518  26.747  12.985 -0.0613  0.1043 -0.0186
 1681BOLB   NC140321   9.831  13.461   9.457 -0.3032 -0.1993  0.1247
 1681BOLB   PO140322  10.137  13.832   9.540 -0.0982  0.1782  0.0100
 1681BOLB   GL140323  10.314  13.466   9.338 -0.1222 -0.1903 -0.0268
 1681BOLB   GL240324  10.321  13.423   9.121 -0.2415 -0.0243  0.2434
 1681BOLB   C1A40325  10.204  12.980   9.362  0.2534 -0.0951  0.1757
 1681BOLB   C2A40326  10.481  12.693   9.130 -0.0320 -0.2716 -0.5025
 1681BOLB   C3A40327  10.652  12.336   8.981  0.1015 -0.0570 -0.1216
 1681BOLB   C4A40328  10.490  11.927   8.847 -0.0090  0.2968  0.0932
 1681BOLB   C1B40329  10.572  13.140   9.122 -0.1720  0.1057  0.5006
 1681BOLB   C2B40330  10.937  12.879   8.977  0.3504 -0.1775  0.2293
 1681BOLB   C3B40331  11.313  12.713   8.884  0.1684  0.0447  0.0301
 1681BOLB   C4B40332  11.609  12.719   8.681 -0.1893  0.0841 -0.1445
 1681BOLB   NC240333   9.705   9.532   8.684  0.2618  0.0146 -0.1299
 1681BOLB   PO240334  10.148   9.549   8.947  0.2596 -0.4693  0.0967
 1681BOLB   GL340335  10.322   9.877   8.985 -0.1356 -0.0088  0.0650
 1681BOLB   GL440336  10.336  10.111   9.316 -0.0584  0.0826 -0.1309
 1681BOLB   C1C40337  10.268  10.274   8.746  0.0406  0.0074  0.0249
 1681BOLB   C2C40338  10.141  10.692   8.765 -0.0120 -0.0231  0.2715
 1681BOLB   C3C40339  10.145  11.110   8.826 -0.1425 -0.0171 -0.1469
 1681BOLB   C4C40340  10.194  11.535   8.750 -0.0382 -0.0805 -0.0995
 1681BOLB   C1D40341  10.152  10.348   9.270 -0.1433 -0.1243  0.0352
 1681BOLB   C2D40342  10.194  10.726   9.398  0.2233  0.3252 -0.0476
 1681BOLB   C3D40343   9.978  11.169   9.472 -0.0629 -0.1432  0.0565
 1681BOLB   C4D40344   9.760  11.557   9.352 -0.0195  0.2247  0.1201
 1682BOLB   NC140345   8.761  13.941  11.001  0.0394 -0.2052 -0.0352
 1682BOLB   PO140346   8.876  13.690  11.176 -0.0241 -0.1436  0.0888
 1682BOLB   GL140347   9.125  13.397  11.099  0.0045 -0.0306  0.3641
 1682BOLB   GL240348   8.984  13.139  11.151 -0.1134  0.4028 -0.2518
 1682BOLB   C1A40349   9.461  13.130  10.807 -0.1422 -0.1275  0.1140
 1682BOLB   C2A40350   9.771  12.759  10.853  0.0581 -0.2174  0.2985
 1682BOLB   C3A40351  10.133  12.517  11.025  0.3753 -0.0332  0.0930
 1682BOLB   C4A40352  10.229  12.108  11.330 -0.1779 -0.3556  0.1676
 1682BOLB   C1B40353   9.041  12.841  10.800 -0.0952 -0.0153  0.1651
 1682BOLB   C2B40354   9.065  12.386  10.675  0.0905 -0.0089 -0.0785
 1682BOLB   C3B40355   9.175  12.065  10.561 -0.2183 -0.1033 -0.1784
 1682BOLB   C4B40356   9.577  11.789  10.693 -0.0977 -0.1083 -0.1666
 1682BOLB   NC240357  10.794   9.968  12.562 -0.0678 -0.0445 -0.1658
 1682BOLB   PO240358  11.029  10.087  12.855  0.3165 -0.0272 -0.1683
 1682BOLB   GL340359  10.706  10.490  12.733 -0.1542  0.0399 -0.1294
 1682BOLB   GL440360  10.392  10.622  12.788  0.0560 -0.0488  0.1324
 1682BOLB   C1C40361  10.690  10.760  12.385  0.1891  0.2404  0.0697
 1682BOLB   C2C40362  10.581  11.121  12.019 -0.1763  0.0408 -0.1492
 1682BOLB   C3C40363  10.303  11.316  11.703 -0.1651 -0.1023  0.4390
 1682BOLB   C4C40364  10.132  11.700  11.530  0.2004  0.4068 -0.0106
 1682BOLB   C1D40365  10.230  11.053  12.661  0.1636  0.3568  0.1491
 1682BOLB   C2D40366  10.160  11.491  12.650 -0.0350  0.0791  0.1524
 1682BOLB   C3D40367   9.995  12.027  12.674 -0.0395  0.0356  0.1262
 1682BOLB   C4D40368   9.858  12.367  13.017  0.0943  0.2160  0.0473
 1683BOLB   NC140369   5.332  14.722  14.172  0.0711 -0.1955 -0.0788
 1683BOLB   PO140370   5.052  14.488  14.434 -0.3058 -0.0551  0.1747
 1683BOLB   GL140371   5.263  14.139  14.488  0.4535 -0.1008 -0.1606
 1683BOLB   GL240372   5.151  14.009  14.231 -0.0460  0.1586 -0.0965
 1683BOLB   C1A40373   5.416  13.717  14.539 -0.3155 -0.0308 -0.6437
 1683BOLB   C2A40374   5.737  13.603  14.723  0.1383 -0.3159 -0.0470
 1683BOLB   C3A40375   5.887  13.192  14.870 -0.0623 -0.0651  0.0982
 1683BOLB   C4A40376   5.826  12.760  15.054 -0.0849  0.2660  0.0900
 1683BOLB   C1B40377   4.982  13.675  14.331  0.1770 -0.0464  0.1577
 1683BOLB   C2B40378   5.045  13.321  14.392 -0.1152  0.1873 -0.0858
 1683BOLB   C3B40379   5.006  13.035  14.686  0.1829 -0.4150  0.2447
 1683BOLB   C4B40380   4.916  12.814  15.088  0.2842 -0.0608 -0.2837
 1683BOLB   NC240381   5.979  10.573  16.811  0.1913  0.1302 -0.0169
 1683BOLB   PO240382   5.847  10.940  16.794 -0.0905 -0.3426  0.1153
 1683BOLB   GL340383   5.585  11.348  16.583  0.1423 -0.2270  0.1480
 1683BOLB   GL440384   5.466  11.579  16.813 -0.1309 -0.0017  0.0062
 1683BOLB   C1C40385   5.438  11.560  16.170  0.2381  0.3209  0.0988
 1683BOLB   C2C40386   5.406  11.924  15.866 -0.2054 -0.2344  0.0607
 1683BOLB   C3C40387   5.655  12.117  15.485  0.1072  0.0975 -0.0912
 1683BOLB   C4C40388   5.699  12.435  15.256  0.1302 -0.2551 -0.4425
 1683BOLB   C1D40389   5.531  12.057  16.728  0.4239  0.2240 -0.0288
 1683BOLB   C2D40390   5.470  12.483  16.536 -0.0282 -0.2300 -0.2893
 1683BOLB   C3D40391   5.247  12.721  16.283 -0.0890  0.2841 -0.0199
 1683BOLB   C4D40392   4.855  12.728  16.018  0.2881 -0.2674 -0.0767
 1684BOLB   NC140393  10.608  14.064   8.670 -0.0667 -0.3230  0.3917
 1684BOLB   PO140394  10.827  14.163   9.137  0.0508 -0.0510  0.0628
 1684BOLB   GL140395  10.843  13.793   9.191  0.1620 -0.0850  0.0497
 1684BOLB   GL240396  10.759  13.582   8.929  0.0400 -0.3867 -0.1107
 1684BOLB   C1A40397  11.233  13.627   9.100 -0.4833 -0.1787  0.1104
 1684BOLB   C2A40398  11.421  13.209   9.025 -0.1758 -0.1890  0.1591
 1684BOLB   C3A40399  11.917  13.042   8.942  0.2709  0.0837  0.0696
 1684BOLB   C4A40400  12.080  12.623   8.887  0.1075  0.0786  0.1069
 1684BOLB   C1B40401  10.954  13.274   8.686  0.1185  0.0809  0.2077
 1684BOLB   C2B40402  11.186  12.963   8.477  0.2874 -0.2608  0.0922
 1684BOLB   C3B40403  11.448  12.722   8.202 -0.0881  0.0509 -0.1768
 1684BOLB   C4B40404  11.656  12.758   7.794 -0.0486  0.0193  0.2604
 1684BOLB   NC240405  14.470  11.275   9.408  0.0045 -0.2012  0.0619
 1684BOLB   PO240406  14.255  11.605   9.352 -0.0875 -0.0182 -0.1682
 1684BOLB   GL340407  13.873  11.773   9.563  0.0575  0.1328  0.0855
 1684BOLB   GL440408  14.008  11.989   9.584  0.2194  0.0251  0.0614
 1684BOLB   C1C40409  13.411  11.848   9.489  0.1310 -0.2056 -0.2481
 1684BOLB   C2C40410  13.162  12.187   9.432 -0.1047 -0.3025  0.2035
 1684BOLB   C3C40411  12.807  12.228   9.102 -0.0307  0.3347  0.0067
 1684BOLB   C4C40412  12.398  12.389   8.984 -0.3717  0.1444  0.1389
 1684BOLB   C1D40413  13.874  12.312   9.268 -0.1743  0.1754 -0.3545
 1684BOLB   C2D40414  13.494  12.435   9.088 -0.1370  0.5918 -0.0944
 1684BOLB   C3D40415  13.153  12.642   9.040 -0.3592  0.0209 -0.2548
 1684BOLB   C4D40416  12.770  12.844   9.024  0.1236 -0.0543  0.0308
 1685BOLB   NC140417  11.893  25.905   7.408  0.0097 -0.1723  0.0640
 1685BOLB   PO140418  12.242  25.985   7.093 -0.0876  0.3682  0.3696
 1685BOLB   GL140419  12.477  26.278   6.921  0.1410  0.0706 -0.0885
 1685BOLB   GL240420  12.638  26.285   7.235 -0.1498  0.1707 -0.2808
 1685BOLB   C1A40421  12.708  26.500   6.621 -0.1835 -0.2506 -0.1651
 1685BOLB   C2A40422  12.948  26.941   6.567  0.2159  0.2389  0.1818
 1685BOLB   C3A40423  13.036  27.346   6.431 -0.0831 -0.1048  0.1153
 1685BOLB   C4A40424  13.334  27.649   6.257  0.0995 -0.3379  0.0144
 1685BOLB   C1B40425  13.038  26.283   7.020 -0.0009  0.1172  0.4641
 1685BOLB   C2B40426  13.246  26.500   6.697 -0.2040 -0.0483 -0.1821
 1685BOLB   C3B40427  13.310  26.680   6.361 -0.1165 -0.0929  0.0033
 1685BOLB   C4B40428  13.335  27.010   6.169  0.0068  0.1456 -0.0917
 1685BOLB   NC240429  14.238  29.969   5.971 -0.0136  0.2004 -0.2337
 1685BOLB   PO240430  13.908  29.793   6.202  0.2330 -0.1291 -0.2137
 1685BOLB   GL340431  13.788  29.381   6.248  0.0721  0.6849 -0.0356
 1685BOLB   GL440432  13.853  29.023   6.018 -0.0236  0.1757  0.0436
 1685BOLB   C1C40433  13.633  29.259   6.673  0.0618  0.0934  0.1392
 1685BOLB   C2C40434  13.413  28.865   6.610 -0.1198 -0.2487 -0.1377
 1685BOLB   C3C40435  13.126  28.495   6.371 -0.3171 -0.0665 -0.3923
 1685BOLB   C4C40436  13.295  28.149   6.237 -0.0009 -0.2303  0.1248
 1685BOLB   C1D40437  13.417  28.907   6.110  0.1794  0.0281  0.2742
 1685BOLB   C2D40438  13.044  28.780   5.958  0.0880  0.2537  0.1828
 1685BOLB   C3D40439  12.768  28.439   5.846 -0.2178 -0.1578  0.2933
 1685BOLB   C4D40440  12.728  28.191   6.132  0.2327 -0.0420 -0.0824
 1686BOLB   NC140441   9.864  26.972   0.509 -0.0381  0.4027  0.0461
 1686BOLB   PO140442  10.320  26.747   0.600  0.2604 -0.1195  0.2174
 1686BOLB   GL140443  10.097  26.690   0.985 -0.1833 -0.3478 -0.0856
 1686BOLB   GL240444  10.122  26.378   1.090  0.0372  0.0115  0.1287
 1686BOLB   C1A40445   9.746  26.776   1.213 -0.2079  0.3789  0.0722
 1686BOLB   C2A40446   9.670  26.594   1.608 -0.0148  0.1123 -0.2228
 1686BOLB   C3A40447   9.576  26.364   1.958  0.0264 -0.2158 -0.0233
 1686BOLB   C4A40448   9.707  25.976   2.192 -0.1276  0.1964 -0.1924
 1686BOLB   C1B40449  10.140  26.494   1.442  0.1743 -0.0598  0.0152
 1686BOLB   C2B40450  10.520  26.623   1.710  0.2200 -0.1073 -0.1817
 1686BOLB   C3B40451  10.596  27.051   1.780 -0.1910 -0.0321  0.2911
 1686BOLB   C4B40452  10.743  27.552   1.802  0.2837  0.0889  0.3614
 1686BOLB   NC240453   9.051  24.579   4.526  0.1547 -0.0266  0.0244
 1686BOLB   PO240454   9.102  24.579   4.086 -0.0368 -0.2263  0.0583
 1686BOLB   GL340455   9.428  24.411   3.784  0.1949  0.0684 -0.1772
 1686BOLB   GL440456   9.590  24.164   3.606  0.0052 -0.0060  0.1749
 1686BOLB   C1C40457   9.458  24.700   3.447 -0.0227 -0.0324  0.0402
 1686BOLB   C2C40458   9.648  24.977   3.034  0.3046 -0.3917  0.1420
 1686BOLB   C3C40459   9.724  25.276   2.708  0.0044  0.3407 -0.4235
 1686BOLB   C4C40460   9.690  25.569   2.409  0.3475  0.1410 -0.1998
 1686BOLB   C1D40461   9.392  24.240   3.260 -0.0608  0.0500 -0.1380
 1686BOLB   C2D40462   9.208  24.316   2.775 -0.3652  0.0255 -0.0532
 1686BOLB   C3D40463   9.325  24.351   2.371  0.1550 -0.1089  0.1548
 1686BOLB   C4D40464   9.592  24.433   2.057 -0.1956  0.3044 -0.0375
 1687BOLB   NC140465  37.632  23.899   8.750 -0.0530 -0.0629  0.0329
 1687BOLB   PO140466  37.754  24.194   8.419  0.1626  0.0124 -0.0373
 1687BOLB   GL140467  37.374  24.456   8.510 -0.1974  0.1250 -0.0667
 1687BOLB   GL240468  37.493  24.674   8.171 -0.0049  0.0139 -0.3368
 1687BOLB   C1A40469  36.898  24.445   8.630 -0.2246  0.2601  0.1863
 1687BOLB   C2A40470  36.531  24.693   8.563 -0.0678 -0.0079  0.2451
 1687BOLB   C3A40471  36.226  25.029   8.535  0.1405 -0.0833  0.0197
 1687BOLB   C4A40472  36.002  25.337   8.774  0.4063  0.0186 -0.0353
 1687BOLB   C1B40473  37.084  24.493   8.110  0.1080  0.0519  0.1119
 1687BOLB   C2B40474  36.720  24.647   8.075 -0.0591  0.1242 -0.1287
 1687BOLB   C3B40475  36.322  24.482   8.112  0.2233 -0.1358  0.0421
 1687BOLB   C4B40476  35.928  24.307   8.064 -0.0574 -0.2680 -0.0633
 1687BOLB   NC240477  34.133  27.406   8.297  0.1827 -0.0194 -0.3897
 1687BOLB   PO240478  34.124  26.965   8.591  0.1708  0.4647 -0.2945
 1687BOLB   GL340479  34.498  26.911   8.827 -0.1987  0.3373 -0.1272
 1687BOLB   GL440480  34.502  26.676   9.147 -0.0527  0.1050 -0.0344
 1687BOLB   C1C40481  34.799  26.565   8.790 -0.1190 -0.1638  0.1437
 1687BOLB   C2C40482  34.947  26.088   8.898  0.2048 -0.0215 -0.1778
 1687BOLB   C3C40483  35.315  25.793   8.931  0.0702 -0.0555  0.0485
 1687BOLB   C4C40484  35.733  25.615   8.854  0.0738  0.0850  0.2942
 1687BOLB   C1D40485  34.769  26.414   9.323  0.1220  0.1891  0.0378
 1687BOLB   C2D40486  35.058  26.076   9.391 -0.0536  0.0614  0.1587
 1687BOLB   C3D40487  35.257  25.765   9.477 -0.1961 -0.1184  0.1364
 1687BOLB   C4D40488  35.528  25.460   9.512  0.1057 -0.0725  0.3302
 1688BOLB   NC140489  13.887  22.735  13.395  0.1805 -0.0579 -0.4444
 1688BOLB   PO140490  14.430  22.959  13.332  0.1407  0.0301  0.1268
 1688BOLB   GL140491  14.804  23.089  13.363  0.0433 -0.0724  0.0568
 1688BOLB   GL240492  14.883  23.283  13.613  0.0074  0.0551 -0.2658
 1688BOLB   C1A40493  15.156  23.189  13.213 -0.0287 -0.1250  0.1150
 1688BOLB   C2A40494  15.629  23.196  13.276 -0.0543  0.1144 -0.0215
 1688BOLB   C3A40495  15.930  23.379  12.880  0.0114  0.0283  0.3187
 1688BOLB   C4A40496  16.453  23.662  12.769  0.1409 -0.1505 -0.0793
 1688BOLB   C1B40497  15.366  23.282  13.729  0.2773 -0.1333  0.0888
 1688BOLB   C2B40498  15.725  23.444  13.657 -0.2357 -0.1402  0.0543
 1688BOLB   C3B40499  16.096  23.354  13.487  0.1237 -0.2155 -0.0950
 1688BOLB   C4B40500  16.259  23.165  13.218  0.0117  0.1568 -0.0288
 1688BOLB   NC240501  18.749  24.376  11.648 -0.3176  0.2348  0.2390
 1688BOLB   PO240502  18.828  24.027  11.913 -0.1460  0.1959 -0.1587
 1688BOLB   GL340503  18.374  23.870  12.056  0.4766 -0.1925 -0.2838
 1688BOLB   GL440504  18.167  24.000  12.281  0.1010  0.1955  0.2039
 1688BOLB   C1C40505  18.063  23.515  12.062 -0.0281 -0.1169 -0.2902
 1688BOLB   C2C40506  17.629  23.381  12.161  0.2116 -0.0925 -0.0395
 1688BOLB   C3C40507  17.128  23.363  12.238  0.1891  0.2131 -0.1195
 1688BOLB   C4C40508  16.833  23.550  12.545 -0.1733  0.0944 -0.0420
 1688BOLB   C1D40509  18.059  24.392  12.429 -0.2016  0.0915  0.0463
 1688BOLB   C2D40510  17.890  24.794  12.575  0.0743 -0.2080  0.0663
 1688BOLB   C3D40511  17.517  24.963  12.465 -0.1087  0.1589 -0.2484
 1688BOLB   C4D40512  17.244  25.278  12.548  0.2078 -0.0094  0.2259
 1689BOLB   NC140513   5.600  30.562  18.229  0.1168 -0.3019  0.2237
 1689BOLB   PO140514   5.903  30.200  18.287 -0.3045 -0.1300 -0.0352
 1689BOLB   GL140515   5.912  29.814  18.201  0.0991  0.4514 -0.1106
 1689BOLB   GL240516   6.065  29.643  18.398 -0.0488  0.1221  0.0194
 1689BOLB   C1A40517   5.723  29.415  18.070  0.1482  0.1458  0.3652
 1689BOLB   C2A40518   6.021  29.145  17.956  0.2893  0.2981 -0.3076
 1689BOLB   C3A40519   6.286  28.866  17.745 -0.2610 -0.1067 -0.0266
 1689BOLB   C4A40520   6.511  28.582  17.624 -0.1893 -0.1877  0.0401
 1689BOLB   C1B40521   6.342  29.382  18.253 -0.0112  0.0593 -0.0935
 1689BOLB   C2B40522   6.577  28.978  18.059 -0.4416 -0.2829 -0.2228
 1689BOLB   C3B40523   6.688  28.652  18.128 -0.2061 -0.3180  0.0166
 1689BOLB   C4B40524   6.473  28.324  18.096  0.0896 -0.0697 -0.0527
 1689BOLB   NC240525   7.488  28.960  19.357  0.1415 -0.0899 -0.3969
 1689BOLB   PO240526   7.321  28.771  19.643  0.0103  0.2435  0.0427
 1689BOLB   GL340527   7.066  28.664  19.268 -0.1876 -0.0534  0.0232
 1689BOLB   GL440528   7.008  28.991  19.162  0.3222  0.2979 -0.0779
 1689BOLB   C1C40529   6.843  28.302  19.055  0.1528 -0.2990 -0.4408
 1689BOLB   C2C40530   6.855  28.154  18.562 -0.1567 -0.4395 -0.1221
 1689BOLB   C3C40531   6.921  28.197  18.105  0.0623  0.0430 -0.1223
 1689BOLB   C4C40532   6.766  28.202  17.669 -0.3151 -0.1406 -0.3846
 1689BOLB   C1D40533   7.171  29.168  18.779  0.3253  0.1646 -0.1803
 1689BOLB   C2D40534   7.275  29.458  18.491 -0.3632  0.0863  0.0195
 1689BOLB   C3D40535   7.019  29.754  18.313  0.1079  0.1880  0.0827
 1689BOLB   C4D40536   6.530  29.875  18.179 -0.0106  0.1605 -0.0393
 1690BOLB   NC140537  16.275  17.553  16.025 -0.0504 -0.3116 -0.0432
 1690BOLB   PO140538  16.524  17.636  15.693 -0.1986 -0.0669  0.1323
 1690BOLB   GL140539  16.317  17.913  15.602 -0.1042 -0.0032  0.1717
 1690BOLB   GL240540  16.625  18.269  15.485  0.1885 -0.3248  0.0809
 1690BOLB   C1A40541  16.039  18.226  15.476 -0.1291 -0.1736  0.1662
 1690BOLB   C2A40542  15.914  18.381  15.130  0.0677  0.1081 -0.2493
 1690BOLB   C3A40543  15.543  18.443  14.959  0.1828  0.5039  0.0243
 1690BOLB   C4A40544  15.152  18.547  14.701  0.1902  0.0910 -0.0494
 1690BOLB   C1B40545  16.341  18.581  15.192  0.0434 -0.0185 -0.0730
 1690BOLB   C2B40546  16.072  18.813  14.963  0.2389 -0.0525  0.0638
 1690BOLB   C3B40547  15.985  19.175  14.768 -0.1249 -0.1092  0.1610
 1690BOLB   C4B40548  16.253  19.479  14.520 -0.4325  0.0707 -0.3159
 1690BOLB   NC240549  13.173  19.269  14.076  0.0203 -0.2990  0.1431
 1690BOLB   PO240550  13.085  19.154  13.748 -0.0301  0.2418 -0.2331
 1690BOLB   GL340551  13.429  18.903  13.907  0.0031  0.2859 -0.3118
 1690BOLB   GL440552  13.490  18.897  14.181 -0.3351 -0.2860  0.0135
 1690BOLB   C1C40553  13.834  18.634  13.845 -0.0324  0.2122 -0.0917
 1690BOLB   C2C40554  14.087  18.355  14.100  0.0166 -0.2193  0.1806
 1690BOLB   C3C40555  14.467  18.418  14.229  0.0118 -0.0260  0.1177
 1690BOLB   C4C40556  14.751  18.411  14.544  0.1249  0.1029  0.0973
 1690BOLB   C1D40557  13.801  18.758  14.408  0.3686 -0.2371 -0.5535
 1690BOLB   C2D40558  14.033  18.553  14.570  0.0142  0.3642 -0.0362
 1690BOLB   C3D40559  14.174  18.308  14.938  0.1921 -0.1773  0.1254
 1690BOLB   C4D40560  14.408  18.333  15.479  0.0847  0.1381 -0.0952
 1691BOLB   NC140561  12.087  25.359   5.585 -0.1000  0.0290  0.4486
 1691BOLB   PO140562  11.792  25.249   5.201 -0.0771 -0.0767  0.0913
 1691BOLB   GL140563  11.798  25.544   4.948 -0.1121 -0.0106 -0.5100
 1691BOLB   GL240564  11.519  25.433   4.731  0.0173  0.0674 -0.1715
 1691BOLB   C1A40565  12.093  25.870   4.809 -0.2279  0.2257 -0.1498
 1691BOLB   C2A40566  12.267  26.191   4.551 -0.1265  0.1858  0.0767
 1691BOLB   C3A40567  12.382  26.396   4.269  0.0053 -0.1159 -0.2671
 1691BOLB   C4A40568  12.761  26.391   4.034 -0.0398  0.1260  0.1155
 1691BOLB   C1B40569  11.608  25.816   4.570  0.2023 -0.0173  0.1499
 1691BOLB   C2B40570  11.842  26.157   4.193  0.5464 -0.1299 -0.0325
 1691BOLB   C3B40571  12.052  26.459   3.914  0.0540  0.4460 -0.1290
 1691BOLB   C4B40572  12.157  26.914   3.760  0.0454  0.0615  0.2793
 1691BOLB   NC240573  14.385  26.665   2.563  0.2044  0.2463 -0.2955
 1691BOLB   PO240574  14.647  26.853   2.814  0.0416 -0.0306 -0.0160
 1691BOLB   GL340575  14.626  26.675   3.224  0.1448  0.0424  0.0142
 1691BOLB   GL440576  14.736  26.914   3.375  0.1643  0.1092 -0.1835
 1691BOLB   C1C40577  14.271  26.603   3.417  0.3504  0.2882 -0.3098
 1691BOLB   C2C40578  13.931  26.456   3.659  0.0338  0.1595 -0.0213
 1691BOLB   C3C40579  13.450  26.485   3.766  0.2282 -0.0973 -0.2608
 1691BOLB   C4C40580  12.997  26.518   3.745  0.0135 -0.0203  0.0247
 1691BOLB   C1D40581  14.647  26.881   3.819 -0.2870  0.2836  0.2918
 1691BOLB   C2D40582  14.316  26.662   4.083 -0.1422 -0.0477  0.2085
 1691BOLB   C3D40583  14.253  26.664   4.498  0.0465 -0.1867  0.0059
 1691BOLB   C4D40584  13.923  26.498   4.740 -0.1478 -0.0318 -0.2235
 1692BOLB   NC140585   5.236  24.747   3.614  0.0870 -0.0100  0.3147
 1692BOLB   PO140586   4.868  24.965   3.699 -0.0043 -0.1340  0.2388
 1692BOLB   GL140587   4.944  24.913   3.159  0.2966 -0.1538 -0.1281
 1692BOLB   GL240588   5.255  24.851   3.083  0.1801  0.1811 -0.3424
 1692BOLB   C1A40589   4.826  24.881   2.777  0.0810  0.1429 -0.2035
 1692BOLB   C2A40590   4.623  25.070   2.559 -0.2181  0.0274  0.2234
 1692BOLB   C3A40591   4.515  25.265   2.278  0.0990  0.1882  0.0401
 1692BOLB   C4A40592   4.594  25.541   1.944 -0.0306  0.0523 -0.1582
 1692BOLB   C1B40593   5.339  24.889   2.614 -0.1634  0.1425  0.0670
 1692BOLB   C2B40594   5.407  24.781   2.188 -0.0069 -0.0598  0.1231
 1692BOLB   C3B40595   5.100  24.784   1.941 -0.2190 -0.3879 -0.0348
 1692BOLB   C4B40596   4.765  25.101   1.688 -0.2121  0.2728  0.0855
 1692BOLB   NC240597   3.802  27.830   0.568 -0.1139 -0.2325  0.0370
 1692BOLB   PO240598   4.097  27.513   0.585 -0.0036 -0.0588 -0.0152
 1692BOLB   GL340599   4.284  27.256   0.887  0.0823  0.4144  0.1119
 1692BOLB   GL440600   4.594  27.295   1.078  0.0438  0.0699 -0.2690
 1692BOLB   C1C40601   4.188  27.017   1.274  0.0334 -0.2050  0.0296
 1692BOLB   C2C40602   4.443  26.840   1.531  0.1701  0.1008  0.2475
 1692BOLB   C3C40603   4.477  26.563   1.856  0.1177  0.1418  0.3189
 1692BOLB   C4C40604   4.588  26.035   2.034  0.1962  0.4348  0.0996
 1692BOLB   C1D40605   4.596  27.317   1.506 -0.3140 -0.0348  0.0771
 1692BOLB   C2D40606   4.746  27.100   1.861  0.1792 -0.2305 -0.0339
 1692BOLB   C3D40607   4.909  26.995   2.185 -0.3375 -0.1778  0.1886
 1692BOLB   C4D40608   5.065  26.872   2.613 -0.1273 -0.1062 -0.0569
 1693BOLB   NC140609  13.058  22.400  15.975 -0.1774 -0.1585 -0.1776
 1693BOLB   PO140610  13.128  22.690  15.570 -0.2547 -0.1410 -0.2961
 1693BOLB   GL140611  13.449  22.679  15.906  0.0424 -0.0235 -0.2268
 1693BOLB   GL240612  13.773  22.425  15.848  0.0492  0.0670  0.2567
 1693BOLB   C1A40613  13.837  22.716  16.232  0.0767  0.1745 -0.0842
 1693BOLB   C2A40614  13.976  22.994  16.447  0.1296  0.1902  0.1071
 1693BOLB   C3A40615  14.197  23.260  16.662  0.0087 -0.1261 -0.0001
 1693BOLB   C4A40616  14.233  23.344  16.984  0.1827  0.1064 -0.2709
 1693BOLB   C1B40617  14.081  22.259  16.187 -0.0179  0.3128 -0.1235
 1693BOLB   C2B40618  14.325  22.299  16.532 -0.1875  0.0346 -0.0681
 1693BOLB   C3B40619  14.263  22.104  16.834 -0.5074  0.0431  0.1107
 1693BOLB   C4B40620  14.084  21.580  16.943  0.0426 -0.2844  0.0707
 1693BOLB   NC240621  15.747  23.529  19.317  0.1469 -0.0781 -0.4382
 1693BOLB   PO240622  15.703  23.446  18.846 -0.2705 -0.0085 -0.2794
 1693BOLB   GL340623  15.307  23.373  18.621 -0.1494  0.1379  0.1078
 1693BOLB   GL440624  15.220  23.095  18.793 -0.1989  0.1099 -0.0986
 1693BOLB   C1C40625  15.015  23.266  18.283  0.0302 -0.0773  0.2411
 1693BOLB   C2C40626  14.846  23.523  18.020 -0.0976  0.0617  0.4311
 1693BOLB   C3C40627  14.684  23.562  17.634  0.0685 -0.0958  0.0108
 1693BOLB   C4C40628  14.300  23.489  17.413  0.1271 -0.2188  0.0754
 1693BOLB   C1D40629  14.943  22.748  18.587 -0.1025 -0.0988  0.0670
 1693BOLB   C2D40630  14.924  22.611  18.157 -0.0762  0.0336 -0.0132
 1693BOLB   C3D40631  14.509  22.539  18.141 -0.3670  0.1629 -0.0626
 1693BOLB   C4D40632  14.132  22.691  18.152 -0.0725  0.0530 -0.1152
 1694BOLB   NC140633   9.846  15.194  14.070  0.3136  0.0594  0.2033
 1694BOLB   PO140634   9.972  15.590  14.207  0.0179 -0.1762 -0.0524
 1694BOLB   GL140635  10.322  15.228  14.227 -0.0760 -0.0701 -0.0240
 1694BOLB   GL240636  10.272  14.903  14.106  0.0472 -0.0324 -0.0255
 1694BOLB   C1A40637  10.618  15.062  14.491  0.1243  0.0037  0.3255
 1694BOLB   C2A40638  10.807  14.970  14.737 -0.0163  0.0671  0.0587
 1694BOLB   C3A40639  11.127  14.747  14.864  0.2214 -0.0575 -0.0740
 1694BOLB   C4A40640  11.374  14.395  15.030  0.1471  0.2912 -0.1446
 1694BOLB   C1B40641  10.521  14.575  14.344  0.2774 -0.1364 -0.1744
 1694BOLB   C2B40642  10.880  14.383  14.485  0.2798  0.1030 -0.1043
 1694BOLB   C3B40643  11.042  13.935  14.280  0.1288 -0.3053 -0.1188
 1694BOLB   C4B40644  11.026  13.823  13.923 -0.0079 -0.1432 -0.1766
 1694BOLB   NC240645  12.642  12.509  15.488 -0.0264  0.2339 -0.1068
 1694BOLB   PO240646  12.847  12.663  15.833  0.4990 -0.0452  0.1077
 1694BOLB   GL340647  12.519  12.997  15.572 -0.1713 -0.0533 -0.1600
 1694BOLB   GL440648  12.589  13.103  15.303 -0.1862 -0.1607  0.2103
 1694BOLB   C1C40649  12.240  13.342  15.703 -0.0779 -0.0024 -0.1232
 1694BOLB   C2C40650  11.894  13.613  15.790  0.2026  0.0737  0.0382
 1694BOLB   C3C40651  11.689  13.902  15.558 -0.0940  0.1922  0.2513
 1694BOLB   C4C40652  11.604  14.202  15.249  0.1501  0.1798 -0.0983
 1694BOLB   C1D40653  12.194  13.304  15.151 -0.3327 -0.0166 -0.3619
 1694BOLB   C2D40654  11.836  13.437  15.231 -0.0645 -0.1657  0.0155
 1694BOLB   C3D40655  11.591  13.647  14.997  0.1793  0.1748 -0.0381
 1694BOLB   C4D40656  11.413  13.968  14.689 -0.0049 -0.0179  0.1501
 1695BOLB   NC140657  14.160  22.009   5.219 -0.0310 -0.0236 -0.0839
 1695BOLB   PO140658  13.953  21.580   5.150 -0.1159 -0.1374  0.0188
 1695BOLB   GL140659  14.327  21.655   4.900  0.0527 -0.1866  0.1143
 1695BOLB   GL240660  14.201  21.585   4.570 -0.1647  0.1559  0.1913
 1695BOLB   C1A40661  14.698  21.777   4.618 -0.1678 -0.1721  0.2234
 1695BOLB   C2A40662  15.015  21.919   4.406  0.0488 -0.0973  0.1918
 1695BOLB   C3A40663  15.334  21.930   4.122  0.0387 -0.1412  0.0807
 1695BOLB   C4A40664  15.605  21.700   3.841  0.1316  0.0042  0.2305
 1695BOLB   C1B40665  14.473  21.610   4.191 -0.0198 -0.1583 -0.1036
 1695BOLB   C2B40666  14.827  21.635   4.010  0.0102  0.0044 -0.0483
 1695BOLB   C3B40667  15.075  21.477   3.739  0.1871 -0.1164  0.0016
 1695BOLB   C4B40668  15.396  21.229   3.417 -0.0987  0.3957 -0.0182
 1695BOLB   NC240669  17.429  22.386   2.933 -0.2706  0.0783  0.1572
 1695BOLB   PO240670  17.251  22.296   2.555 -0.4314 -0.1228  0.0425
 1695BOLB   GL340671  17.140  22.023   2.845  0.1438  0.1497 -0.2404
 1695BOLB   GL440672  17.028  22.127   3.085 -0.0316  0.0100 -0.0354
 1695BOLB   C1C40673  16.740  21.744   2.780 -0.1742  0.1981 -0.0693
 1695BOLB   C2C40674  16.464  21.509   3.093  0.0014 -0.1195 -0.1723
 1695BOLB   C3C40675  16.180  21.561   3.513 -0.0905 -0.3374  0.1713
 1695BOLB   C4C40676  15.866  21.665   3.495  0.1916  0.1983 -0.0387
 1695BOLB   C1D40677  16.749  21.873   3.279 -0.0419 -0.1507  0.1101
 1695BOLB   C2D40678  16.853  21.892   3.778 -0.4599 -0.0718  0.0933
 1695BOLB   C3D40679  16.803  21.780   4.185  0.0446 -0.1168 -0.0442
 1695BOLB   C4D40680  16.687  21.709   4.698  0.0384  0.1042  0.2124
 1696BOLB   NC140681  13.096  19.425  13.347 -0.2744  0.3202  0.1905
 1696BOLB   PO140682  13.468  19.486  13.761  0.0781  0.0141  0.3566
 1696BOLB   GL140683  13.848  19.171  13.823 -0.0863  0.0568 -0.3490
 1696BOLB   GL240684  13.965  19.107  14.094  0.1080  0.0900 -0.0049
 1696BOLB   C1A40685  14.253  19.239  13.714 -0.2992 -0.2405 -0.2150
 1696BOLB   C2A40686  14.772  19.224  13.899 -0.1707  0.1879 -0.0462
 1696BOLB   C3A40687  14.958  19.478  14.190 -0.2763  0.0400  0.1096
 1696BOLB   C4A40688  15.391  19.658  14.392 -0.3310  0.0081 -0.1433
 1696BOLB   C1B40689  14.302  18.927  14.228  0.0445  0.0813  0.0087
 1696BOLB   C2B40690  14.432  18.820  14.653  0.1906 -0.0628  0.1302
 1696BOLB   C3B40691  14.881  18.923  14.893  0.1454  0.0291  0.0674
 1696BOLB   C4B40692  15.181  18.695  15.225  0.1052  0.0322 -0.3039
 1696BOLB   NC240693  17.706  19.359  15.271 -0.1530  0.0759  0.1479
 1696BOLB   PO240694  17.426  19.692  15.080  0.1813  0.0968  0.1992
 1696BOLB   GL340695  17.128  19.853  15.040 -0.1623 -0.0646 -0.0479
 1696BOLB   GL440696  17.056  20.020  15.381  0.2053  0.2705 -0.0130
 1696BOLB   C1C40697  16.785  20.025  14.851 -0.1758 -0.1134 -0.0732
 1696BOLB   C2C40698  16.401  20.154  14.776 -0.1671 -0.4246 -0.0286
 1696BOLB   C3C40699  16.103  19.872  14.784 -0.1559 -0.1049  0.0598
 1696BOLB   C4C40700  15.852  19.740  14.486 -0.1556  0.2755  0.0631
 1696BOLB   C1D40701  16.915  20.342  15.166 -0.1586 -0.0749 -0.0832
 1696BOLB   C2D40702  16.728  20.663  15.015  0.0213  0.2949  0.2455
 1696BOLB   C3D40703  16.283  20.701  14.898  0.0691  0.2705 -0.0346
 1696BOLB   C4D40704  15.863  20.878  14.818 -0.3100 -0.0090  0.0355
 1697BOLB   NC140705   6.386  23.944   2.825  0.1165  0.4408  0.1883
 1697BOLB   PO140706   6.228  23.632   2.721  0.2518  0.1129 -0.0542
 1697BOLB   GL140707   6.010  23.934   2.459  0.0598 -0.3228 -0.0107
 1697BOLB   GL240708   6.074  24.180   2.457 -0.2895  0.0190  0.3312
 1697BOLB   C1A40709   5.881  23.983   2.032 -0.2023  0.4268  0.0292
 1697BOLB   C2A40710   5.965  23.994   1.621 -0.0518 -0.1061  0.1496
 1697BOLB   C3A40711   5.915  24.029   1.234  0.1044  0.0522 -0.0967
 1697BOLB   C4A40712   6.113  24.019   0.780 -0.2102  0.2998  0.0835
 1697BOLB   C1B40713   5.978  24.492   2.202  0.0802  0.0736 -0.2182
 1697BOLB   C2B40714   5.846  24.827   1.947  0.0889 -0.1102  0.0535
 1697BOLB   C3B40715   5.653  24.952   1.590  0.0097  0.1125  0.0750
 1697BOLB   C4B40716   5.219  24.886   1.451 -0.2036  0.1378  0.0240
 1697BOLB   NC240717   5.734  24.275  -1.724  0.2064  0.2709 -0.2445
 1697BOLB   PO240718   5.377  24.458  -1.476  0.5286  0.4304  0.1540
 1697BOLB   GL340719   5.396  24.466  -1.088  0.0123  0.1461 -0.0490
 1697BOLB   GL440720   5.150  24.242  -0.938  0.1976  0.0566 -0.1587
 1697BOLB   C1C40721   5.627  24.474  -0.715  0.1025  0.0299 -0.1022
 1697BOLB   C2C40722   5.974  24.264  -0.464 -0.2470  0.2672 -0.0609
 1697BOLB   C3C40723   6.156  24.110  -0.096  0.0896  0.0892 -0.2512
 1697BOLB   C4C40724   6.380  24.009   0.337  0.0554  0.0677  0.0789
 1697BOLB   C1D40725   5.105  24.306  -0.592 -0.0650 -0.2155 -0.2326
 1697BOLB   C2D40726   4.939  24.570  -0.219  0.0230 -0.0058  0.0215
 1697BOLB   C3D40727   5.109  24.987   0.026  0.0377 -0.0305 -0.1466
 1697BOLB   C4D40728   4.976  25.463  -0.038  0.0602  0.2107  0.1636
 1698BOLB   NC140729   3.727  25.424   4.199 -0.1050 -0.2646  0.1898
 1698BOLB   PO140730   3.524  25.146   4.249  0.2608 -0.1093 -0.1558
 1698BOLB   GL140731   3.198  25.309   3.880  0.3610 -0.0330 -0.4033
 1698BOLB   GL240732   2.829  25.375   3.921 -0.0883  0.1653 -0.0182
 1698BOLB   C1A40733   3.111  25.539   3.437 -0.0896 -0.1052 -0.2813
 1698BOLB   C2A40734   3.123  25.936   3.167  0.0314  0.2400 -0.1101
 1698BOLB   C3A40735   3.058  26.302   3.107  0.3143 -0.0866  0.2231
 1698BOLB   C4A40736   3.036  26.666   2.761  0.0693  0.1558  0.1987
 1698BOLB   C1B40737   2.783  25.840   3.874  0.2343 -0.3401 -0.0412
 1698BOLB   C2B40738   2.570  26.170   3.758  0.0074 -0.0337 -0.0509
 1698BOLB   C3B40739   2.632  26.575   3.475  0.3209  0.1811 -0.0457
 1698BOLB   C4B40740   2.678  26.736   3.122 -0.2889  0.0902 -0.1993
 1698BOLB   NC240741   1.807  28.656   1.452  0.1924  0.0827 -0.1952
 1698BOLB   PO240742   1.914  28.484   1.824 -0.0855  0.0361 -0.0457
 1698BOLB   GL340743   2.193  28.114   1.976  0.2091  0.0951  0.0385
 1698BOLB   GL440744   2.053  28.155   2.259 -0.1108 -0.1899  0.2351
 1698BOLB   C1C40745   2.548  27.786   1.986 -0.0745  0.1138 -0.1057
 1698BOLB   C2C40746   2.512  27.566   2.262  0.0550  0.0073 -0.1352
 1698BOLB   C3C40747   2.726  27.356   2.596 -0.1423 -0.1119 -0.2023
 1698BOLB   C4C40748   2.786  26.946   2.728  0.0637 -0.0915 -0.0727
 1698BOLB   C1D40749   2.071  27.791   2.427  0.0800  0.1032  0.1713
 1698BOLB   C2D40750   2.183  27.450   2.630 -0.0075 -0.0342 -0.1647
 1698BOLB   C3D40751   2.333  27.257   2.920 -0.1368  0.3384 -0.1876
 1698BOLB   C4D40752   2.044  26.986   3.155  0.2888 -0.1404  0.0007
 1699BOLB   NC140753  32.201  26.015   4.946 -0.1495 -0.1706  0.0607
 1699BOLB   PO140754  32.376  25.600   5.031  0.3579  0.1044 -0.0501
 1699BOLB   GL140755  32.594  25.263   5.260 -0.1130  0.1702 -0.1347
 1699BOLB   GL240756  32.917  25.255   5.481 -0.2454 -0.1158 -0.0170
 1699BOLB   C1A40757  32.803  24.816   5.312 -0.2175  0.0653  0.1141
 1699BOLB   C2A40758  32.617  24.483   5.276 -0.3232  0.1280 -0.0624
 1699BOLB   C3A40759  32.528  24.043   5.215  0.1329 -0.0567 -0.1421
 1699BOLB   C4A40760  32.606  23.699   5.188 -0.1439  0.1773  0.2744
 1699BOLB   C1B40761  33.447  25.077   5.458  0.2689  0.2719  0.0214
 1699BOLB   C2B40762  33.764  24.916   5.733 -0.0655 -0.3638  0.0714
 1699BOLB   C3B40763  34.087  24.655   5.929 -0.2483  0.1031 -0.1263
 1699BOLB   C4B40764  34.354  24.289   5.932  0.3397  0.0788  0.2790
 1699BOLB   NC240765  30.487  23.912   4.661  0.1526  0.3648 -0.0631
 1699BOLB   PO240766  30.534  23.679   5.065  0.4925  0.2763 -0.0935
 1699BOLB   GL340767  30.840  23.455   5.080  0.0578  0.0192  0.2297
 1699BOLB   GL440768  30.888  23.184   5.188 -0.0244 -0.1923  0.0122
 1699BOLB   C1C40769  31.211  23.461   4.963  0.0060  0.0527 -0.4068
 1699BOLB   C2C40770  31.556  23.384   5.212 -0.3552  0.0671 -0.0199
 1699BOLB   C3C40771  31.886  23.547   5.083  0.0364  0.0595 -0.1326
 1699BOLB   C4C40772  32.246  23.636   4.998 -0.0255 -0.3175 -0.3188
 1699BOLB   C1D40773  31.167  23.327   5.533 -0.3480  0.0203  0.0413
 1699BOLB   C2D40774  31.727  23.241   5.680  0.0581 -0.2636 -0.1151
 1699BOLB   C3D40775  32.136  22.927   5.645  0.0541 -0.2105 -0.2161
 1699BOLB   C4D40776  32.374  22.875   6.104 -0.0941  0.0119  0.2153
 1700BOLB   NC140777   2.356  32.929  10.820  0.0105 -0.4096 -0.1389
 1700BOLB   PO140778   2.487  32.467  10.546  0.0844 -0.2488 -0.0561
 1700BOLB   GL140779   2.676  32.073  10.399  0.2476  0.2820  0.0767
 1700BOLB   GL240780   2.663  31.745  10.502 -0.2022 -0.0510  0.0607
 1700BOLB   C1A40781   3.085  31.877  10.224 -0.1107  0.2432  0.1007
 1700BOLB   C2A40782   3.368  31.523  10.199  0.1837 -0.1958  0.1328
 1700BOLB   C3A40783   3.366  31.073  10.392 -0.2644 -0.5274 -0.1246
 1700BOLB   C4A40784   3.247  30.913  10.734 -0.1170  0.1328 -0.2810
 1700BOLB   C1B40785   2.505  31.339  10.680 -0.2062  0.0311  0.0836
 1700BOLB   C2B40786   2.755  31.023  10.880 -0.1674  0.2714 -0.0908
 1700BOLB   C3B40787   2.671  30.724  11.230 -0.1016 -0.2949 -0.2136
 1700BOLB   C4B40788   3.048  30.482  11.475  0.0889 -0.1089  0.0988
 1700BOLB   NC240789   2.779  32.748  12.202  0.0069  0.2227 -0.2847
 1700BOLB   PO240790   2.598  32.685  11.711 -0.3256  0.0339  0.0398
 1700BOLB   GL340791   2.850  32.308  11.589  0.1220 -0.1972  0.1188
 1700BOLB   GL440792   2.644  31.914  11.715  0.0044  0.3414  0.0929
 1700BOLB   C1C40793   3.181  32.114  11.444 -0.1765 -0.4645  0.0442
 1700BOLB   C2C40794   3.082  31.604  11.505 -0.2773  0.3125 -0.0311
 1700BOLB   C3C40795   3.032  31.254  11.380 -0.2696 -0.0062 -0.0796
 1700BOLB   C4C40796   3.148  30.916  11.231  0.0030  0.1822  0.0410
 1700BOLB   C1D40797   2.565  31.631  11.952  0.0524 -0.0041 -0.3545
 1700BOLB   C2D40798   2.581  31.226  12.224 -0.1352  0.0764  0.2118
 1700BOLB   C3D40799   2.871  30.877  12.279 -0.1761 -0.0416  0.2967
 1700BOLB   C4D40800   3.093  30.419  12.116 -0.0647 -0.0661 -0.3464
 1701BOLB   NC140801  13.822  17.468   7.594 -0.1322 -0.0211  0.1425
 1701BOLB   PO140802  14.189  17.324   7.827 -0.1104  0.0486  0.2925
 1701BOLB   GL140803  14.591  17.337   7.623 -0.0536 -0.2117 -0.2111
 1701BOLB   GL240804  14.632  17.616   7.427  0.1582  0.2657  0.3268
 1701BOLB   C1A40805  14.988  17.229   7.399 -0.2141 -0.2879 -0.0182
 1701BOLB   C2A40806  15.370  17.155   7.293  0.0725 -0.1255 -0.1668
 1701BOLB   C3A40807  15.788  17.281   7.247 -0.1416  0.0727 -0.0091
 1701BOLB   C4A40808  16.132  17.022   7.039  0.0806  0.1571 -0.1644
 1701BOLB   C1B40809  15.069  17.739   7.658 -0.0757 -0.2592  0.0888
 1701BOLB   C2B40810  15.619  17.716   7.894 -0.1115 -0.0303 -0.0749
 1701BOLB   C3B40811  15.952  17.883   8.196 -0.0517  0.0537 -0.1493
 1701BOLB   C4B40812  16.318  18.182   8.443 -0.0960 -0.0995  0.0097
 1701BOLB   NC240813  17.917  16.667   5.152  0.0476 -0.0180 -0.0144
 1701BOLB   PO240814  18.031  16.578   5.645 -0.1318  0.3518  0.0706
 1701BOLB   GL340815  17.705  16.355   5.848 -0.2530  0.1690  0.0458
 1701BOLB   GL440816  17.489  16.355   5.575  0.2389  0.0531  0.2363
 1701BOLB   C1C40817  17.387  16.549   6.032 -0.2050  0.0617 -0.0410
 1701BOLB   C2C40818  17.056  16.852   6.164  0.2314 -0.1879  0.4620
 1701BOLB   C3C40819  16.798  16.915   6.492  0.1700 -0.1480  0.1729
 1701BOLB   C4C40820  16.451  16.812   6.747  0.0190 -0.2130 -0.0713
 1701BOLB   C1D40821  16.997  16.604   5.634 -0.1998  0.0194  0.0603
 1701BOLB   C2D40822  16.563  16.775   5.852 -0.0590  0.1652  0.1167
 1701BOLB   C3D40823  16.291  16.805   6.266  0.2829 -0.4035  0.0962
 1701BOLB   C4D40824  15.891  17.033   6.554 -0.0869  0.2483  0.1283
 1702BOLB   NC140825   3.255  25.410  15.808 -0.3250  0.0319  0.1720
 1702BOLB   PO140826   2.978  25.801  15.697  0.0181  0.0652 -0.0039
 1702BOLB   GL140827   2.902  26.133  15.916 -0.2802 -0.2102 -0.1740
 1702BOLB   GL240828   2.871  26.543  15.728  0.0913 -0.1923  0.1250
 1702BOLB   C1A40829   2.598  26.306  16.173  0.0966 -0.4074 -0.0579
 1702BOLB   C2A40830   2.450  26.282  16.651  0.2335  0.0024  0.1944
 1702BOLB   C3A40831   1.964  26.268  16.900 -0.2535  0.2729  0.0555
 1702BOLB   C4A40832   1.628  26.416  17.231 -0.3055  0.0173  0.1047
 1702BOLB   C1B40833   2.678  26.930  16.013 -0.0248  0.2031 -0.0169
 1702BOLB   C2B40834   2.546  27.343  16.018  0.2762  0.2820 -0.1392
 1702BOLB   C3B40835   2.285  27.573  16.208  0.1731 -0.3411 -0.0771
 1702BOLB   C4B40836   2.337  27.681  16.598  0.0958  0.0501 -0.2732
 1702BOLB   NC240837  -0.712  27.018  18.176  0.0780  0.0142 -0.1341
 1702BOLB   PO240838  -0.314  27.194  18.538  0.0241  0.1353  0.0284
 1702BOLB   GL340839  -0.172  27.005  18.202 -0.1944 -0.4401  0.0432
 1702BOLB   GL440840  -0.369  26.653  18.184 -0.2683 -0.0636 -0.2376
 1702BOLB   C1C40841  -0.038  26.762  17.860 -0.1592 -0.0941 -0.4352
 1702BOLB   C2C40842   0.425  26.844  17.658 -0.0381  0.2604 -0.3549
 1702BOLB   C3C40843   0.784  26.579  17.564  0.1450 -0.1209 -0.4526
 1702BOLB   C4C40844   1.144  26.400  17.320  0.1752 -0.4018  0.0948
 1702BOLB   C1D40845  -0.172  26.282  18.128 -0.0049  0.1081  0.0214
 1702BOLB   C2D40846   0.095  26.002  18.285 -0.1949 -0.2092  0.2475
 1702BOLB   C3D40847   0.157  25.680  17.989 -0.1668  0.1496  0.0276
 1702BOLB   C4D40848   0.302  25.319  17.738  0.3374  0.0709  0.1732
 1703BOLB   NC140849  12.353  25.263  14.853  0.2752  0.2033 -0.7012
 1703BOLB   PO140850  12.214  24.924  14.954 -0.1208 -0.1458  0.0185
 1703BOLB   GL140851  12.435  24.952  15.384  0.1008  0.0400  0.4693
 1703BOLB   GL240852  12.718  24.917  15.232 -0.1047  0.1048 -0.0169
 1703BOLB   C1A40853  12.700  25.176  15.653 -0.4202  0.0653 -0.1675
 1703BOLB   C2A40854  13.069  25.338  15.828  0.2012  0.0375 -0.0340
 1703BOLB   C3A40855  13.338  25.141  16.098 -0.2311  0.0456 -0.0952
 1703BOLB   C4A40856  13.632  25.311  16.388 -0.1110  0.0057  0.1638
 1703BOLB   C1B40857  13.122  25.019  15.451  0.0152 -0.1945  0.2896
 1703BOLB   C2B40858  13.545  25.226  15.531 -0.3853  0.0465 -0.4253
 1703BOLB   C3B40859  13.609  25.505  15.876 -0.1047 -0.2841  0.1640
 1703BOLB   C4B40860  13.381  25.741  16.220 -0.2427 -0.0463 -0.1602
 1703BOLB   NC240861  15.438  25.987  17.651 -0.0211 -0.1040  0.1559
 1703BOLB   PO240862  15.328  25.982  17.965  0.3382  0.1404 -0.4936
 1703BOLB   GL340863  15.064  25.691  17.642 -0.2520 -0.2461 -0.0587
 1703BOLB   GL440864  14.904  25.558  17.900 -0.1616 -0.1099  0.1333
 1703BOLB   C1C40865  14.932  25.841  17.265  0.0616 -0.0698 -0.2060
 1703BOLB   C2C40866  14.547  25.833  16.933  0.1754  0.4192 -0.0694
 1703BOLB   C3C40867  14.275  25.646  16.563 -0.1656  0.0724 -0.1062
 1703BOLB   C4C40868  14.044  25.359  16.270  0.0264  0.0692  0.1311
 1703BOLB   C1D40869  14.491  25.447  17.815  0.0135  0.1168  0.1471
 1703BOLB   C2D40870  14.042  25.363  17.961  0.0455 -0.1666 -0.2118
 1703BOLB   C3D40871  13.819  25.102  18.075  0.2656  0.0265 -0.3930
 1703BOLB   C4D40872  13.560  24.824  17.851  0.2192 -0.1455 -0.0324
 1704BOLB   NC140873  12.920  23.187  15.587  0.0135  0.0185 -0.2710
 1704BOLB   PO140874  12.960  23.645  15.747  0.0606 -0.2657  0.0089
 1704BOLB   GL140875  13.342  23.852  15.671 -0.0991 -0.1922 -0.0415
 1704BOLB   GL240876  13.685  23.799  15.594  0.1202  0.1866 -0.2819
 1704BOLB   C1A40877  13.538  24.182  15.911 -0.0505 -0.0728 -0.0021
 1704BOLB   C2A40878  13.860  24.395  15.965 -0.1514 -0.2283 -0.0464
 1704BOLB   C3A40879  14.201  24.622  16.054  0.0659  0.0842  0.2181
 1704BOLB   C4A40880  14.462  24.994  16.211  0.0620 -0.0027 -0.0512
 1704BOLB   C1B40881  13.992  23.934  15.819 -0.0589  0.2756 -0.0478
 1704BOLB   C2B40882  14.246  24.071  16.060 -0.2555  0.1575 -0.0657
 1704BOLB   C3B40883  14.399  24.204  16.440  0.0100  0.0375  0.2250
 1704BOLB   C4B40884  14.671  24.181  16.737  0.0693  0.0997 -0.2309
 1704BOLB   NC240885  15.443  25.980  18.434 -0.1179  0.0342  0.1889
 1704BOLB   PO240886  14.973  25.865  18.373 -0.2586  0.0983 -0.1196
 1704BOLB   GL340887  14.757  25.977  18.101 -0.0552  0.0076  0.1053
 1704BOLB   GL440888  14.558  26.214  18.024  0.1565 -0.1263  0.2950
 1704BOLB   C1C40889  14.583  25.871  17.640  0.1452 -0.2270  0.0373
 1704BOLB   C2C40890  14.344  25.680  17.378 -0.0360 -0.1710  0.0916
 1704BOLB   C3C40891  14.335  25.383  16.982  0.0814  0.2777  0.3204
 1704BOLB   C4C40892  14.342  25.133  16.617 -0.2800 -0.0984 -0.3149
 1704BOLB   C1D40893  14.449  26.348  17.560  0.2747 -0.1506 -0.3277
 1704BOLB   C2D40894  14.576  26.671  17.227  0.1723  0.2766  0.0724
 1704BOLB   C3D40895  14.462  26.888  16.801  0.0259  0.1162  0.0123
 1704BOLB   C4D40896  14.431  27.197  16.409 -0.0402 -0.3500 -0.4487
 1705BOLB   NC140897   9.231  15.584   4.521 -0.0656  0.0853 -0.2184
 1705BOLB   PO140898   9.620  15.484   4.842  0.1853 -0.0637  0.3173
 1705BOLB   GL140899   9.452  15.099   4.709  0.0466  0.3458  0.3857
 1705BOLB   GL240900   9.682  15.076   4.377 -0.2462  0.1336 -0.2509
 1705BOLB   C1A40901   9.636  14.660   4.607 -0.0979 -0.0720 -0.1759
 1705BOLB   C2A40902   9.933  14.287   4.598 -0.1825 -0.1337 -0.0229
 1705BOLB   C3A40903  10.164  14.098   4.180 -0.0541 -0.0501 -0.2755
 1705BOLB   C4A40904  10.202  13.846   3.721  0.2691  0.0768 -0.1570
 1705BOLB   C1B40905   9.695  14.661   4.147  0.0583  0.2538 -0.3056
 1705BOLB   C2B40906   9.813  14.398   3.859  0.2661 -0.0907  0.0415
 1705BOLB   C3B40907  10.031  14.262   3.534  0.0251  0.1256 -0.2206
 1705BOLB   C4B40908  10.163  13.836   3.237  0.2821 -0.1710  0.1440
 1705BOLB   NC240909  12.061  12.810   3.101 -0.0728  0.3405  0.2201
 1705BOLB   PO240910  11.731  12.566   2.788  0.2734 -0.1117 -0.1072
 1705BOLB   GL340911  11.456  12.748   3.032  0.1817 -0.2481 -0.0336
 1705BOLB   GL440912  11.504  12.989   3.317 -0.0425 -0.2084  0.1691
 1705BOLB   C1C40913  11.058  12.878   3.043  0.2848  0.2003  0.0042
 1705BOLB   C2C40914  10.681  12.820   3.299  0.0007 -0.2223 -0.2573
 1705BOLB   C3C40915  10.682  13.189   3.527  0.0682 -0.1263 -0.0636
 1705BOLB   C4C40916  10.332  13.414   3.469  0.4842  0.2183 -0.2099
 1705BOLB   C1D40917  11.664  13.271   3.517 -0.2603  0.0431  0.0077
 1705BOLB   C2D40918  11.789  13.605   3.789  0.1093  0.2639 -0.3228
 1705BOLB   C3D40919  11.724  13.721   4.180 -0.0156  0.1398 -0.1438
 1705BOLB   C4D40920  11.583  13.918   4.527 -0.0961  0.1745  0.0341
 1706BOLB   NC140921   2.715  26.761  13.901 -0.1989  0.1420 -0.0048
 1706BOLB   PO140922   2.607  27.078  13.661 -0.1317 -0.1268 -0.0811
 1706BOLB   GL140923   2.302  27.442  13.655  0.3813 -0.2233 -0.2010
 1706BOLB   GL240924   2.273  27.656  13.403  0.3480  0.3195  0.0321
 1706BOLB   C1A40925   2.017  27.830  13.791  0.2141 -0.0184 -0.1264
 1706BOLB   C2A40926   1.713  27.975  14.054  0.2162 -0.4598 -0.0420
 1706BOLB   C3A40927   1.349  28.251  14.156 -0.1313 -0.0428  0.3522
 1706BOLB   C4A40928   1.048  28.375  14.292 -0.1217 -0.2505  0.1662
 1706BOLB   C1B40929   2.098  27.994  13.212  0.3777 -0.0640 -0.0441
 1706BOLB   C2B40930   1.984  28.442  13.261  0.1977 -0.2052  0.3920
 1706BOLB   C3B40931   1.771  28.778  13.492 -0.0671 -0.1920  0.4377
 1706BOLB   C4B40932   1.730  28.968  13.879  0.1648 -0.0522 -0.3077
 1706BOLB   NC240933   0.630  30.527  15.677 -0.0145  0.1960 -0.0649
 1706BOLB   PO240934   0.911  30.420  15.945 -0.0235 -0.1179  0.2110
 1706BOLB   GL340935   0.885  30.043  15.797  0.1781 -0.0304 -0.3253
 1706BOLB   GL440936   0.622  29.799  15.870 -0.6468 -0.3829 -0.1661
 1706BOLB   C1C40937   0.850  29.670  15.503 -0.4388  0.1414 -0.2262
 1706BOLB   C2C40938   0.920  29.253  15.329 -0.1661 -0.1582  0.1897
 1706BOLB   C3C40939   1.046  28.868  14.987 -0.2284 -0.2649  0.0420
 1706BOLB   C4C40940   0.897  28.676  14.672 -0.1342  0.1268 -0.1114
 1706BOLB   C1D40941   0.972  29.560  16.014  0.0364  0.1257  0.2821
 1706BOLB   C2D40942   1.437  29.489  15.978  0.2078 -0.0136 -0.1127
 1706BOLB   C3D40943   1.781  29.739  15.833 -0.2675  0.3313 -0.0073
 1706BOLB   C4D40944   2.107  29.932  15.961 -0.0088  0.1917 -0.1368
 1707BOLB   NC140945   5.359  20.020   2.379  0.2443 -0.0360 -0.1648
 1707BOLB   PO140946   4.955  20.137   2.355  0.0578  0.2390 -0.1121
 1707BOLB   GL140947   4.765  19.862   2.038  0.1019 -0.1365 -0.1907
 1707BOLB   GL240948   4.472  19.977   1.975  0.0840  0.0149  0.1951
 1707BOLB   C1A40949   4.768  19.955   1.553 -0.2654  0.4281  0.3467
 1707BOLB   C2A40950   4.535  20.013   1.163 -0.3661 -0.2036 -0.1424
 1707BOLB   C3A40951   4.276  19.846   0.829  0.1227  0.0478 -0.0339
 1707BOLB   C4A40952   3.915  19.782   0.796  0.0543 -0.0198 -0.1460
 1707BOLB   C1B40953   4.158  19.902   1.623 -0.2072 -0.2026 -0.0315
 1707BOLB   C2B40954   4.003  19.656   1.244 -0.2613  0.0108 -0.2061
 1707BOLB   C3B40955   3.889  19.272   0.959  0.0604 -0.0657  0.1800
 1707BOLB   C4B40956   3.563  18.986   0.785 -0.1186  0.0629 -0.1388
 1707BOLB   NC240957   3.637  18.863  -1.492 -0.2925  0.2764  0.0910
 1707BOLB   PO240958   3.554  18.913  -1.120  0.1216  0.0198  0.1199
 1707BOLB   GL340959   3.835  18.840  -0.905 -0.1095 -0.1547  0.2899
 1707BOLB   GL440960   4.101  18.738  -0.949  0.4605  0.1604 -0.0281
 1707BOLB   C1C40961   3.993  18.976  -0.507 -0.1825 -0.2236 -0.1181
 1707BOLB   C2C40962   3.954  19.114  -0.115  0.0941  0.0401  0.2354
 1707BOLB   C3C40963   3.884  19.503   0.146  0.3283  0.0421  0.1852
 1707BOLB   C4C40964   3.650  19.552   0.486  0.1431  0.0620 -0.2689
 1707BOLB   C1D40965   4.413  18.928  -0.738 -0.1538 -0.2052  0.3517
 1707BOLB   C2D40966   4.452  19.027  -0.365 -0.1964  0.0657  0.1319
 1707BOLB   C3D40967   4.750  19.340  -0.118 -0.0564  0.2423  0.0874
 1707BOLB   C4D40968   4.803  19.740  -0.097 -0.4324  0.3613  0.2426
 1708BOLB   NC140969   1.107  22.023  16.870  0.0806  0.0511  0.2734
 1708BOLB   PO140970   1.320  21.750  16.923 -0.1538  0.0158 -0.1004
 1708BOLB   GL140971   1.186  21.981  17.378 -0.2667  0.0839 -0.1068
 1708BOLB   GL240972   0.953  22.288  17.338  0.2383 -0.0178  0.0631
 1708BOLB   C1A40973   0.925  22.110  17.751  0.0175  0.2531 -0.2284
 1708BOLB   C2A40974   0.658  22.367  18.126  0.1220 -0.0041  0.1156
 1708BOLB   C3A40975   0.281  22.463  18.312  0.3389 -0.2514 -0.0196
 1708BOLB   C4A40976  -0.039  22.772  18.313  0.3164 -0.1657  0.2088
 1708BOLB   C1B40977   0.686  22.478  17.582 -0.1248  0.0191  0.1959
 1708BOLB   C2B40978   0.321  22.598  17.830  0.1180 -0.3107 -0.1689
 1708BOLB   C3B40979  -0.159  22.547  17.917 -0.1167  0.0474  0.0586
 1708BOLB   C4B40980  -0.518  22.475  18.056 -0.4563 -0.0968  0.0036
 1708BOLB   NC240981  -1.570  22.707  19.558  0.1753 -0.2946  0.0482
 1708BOLB   PO240982  -1.840  22.523  19.294 -0.3166  0.0880  0.1900
 1708BOLB   GL340983  -1.808  22.384  18.862 -0.3558 -0.1859 -0.1638
 1708BOLB   GL440984  -1.889  22.122  18.864  0.0618 -0.0668 -0.1757
 1708BOLB   C1C40985  -1.520  22.282  18.454  0.1725  0.2547  0.0551
 1708BOLB   C2C40986  -1.208  22.495  18.479  0.2652 -0.1233  0.0102
 1708BOLB   C3C40987  -0.926  22.711  18.364  0.1127  0.1001 -0.1719
 1708BOLB   C4C40988  -0.543  22.936  18.319  0.3644 -0.0667  0.1697
 1708BOLB   C1D40989  -1.741  21.740  18.771  0.1025  0.2999 -0.1212
 1708BOLB   C2D40990  -1.563  21.679  18.442  0.0652 -0.0736 -0.1381
 1708BOLB   C3D40991  -1.262  21.999  18.170  0.0405  0.0691 -0.2347
 1708BOLB   C4D40992  -0.974  22.277  17.995 -0.0209 -0.1097 -0.0349
 1709BOLB   NC140993   9.847  24.637  17.847  0.0870 -0.1410 -0.0869
 1709BOLB   PO140994   9.550  24.336  17.915 -0.2224  0.1661 -0.0537
 1709BOLB   GL140995   9.813  24.519  18.347  0.0465  0.2769 -0.1409
 1709BOLB   GL240996   9.999  24.250  18.484 -0.3395  0.0414  0.3359
 1709BOLB   C1A40997   9.826  24.767  18.792 -0.0737 -0.1122  0.0060
 1709BOLB   C2A40998  10.267  24.614  19.018  0.0627 -0.0712 -0.0712
 1709BOLB   C3A40999  10.575  24.593  19.299 -0.0708  0.1062  0.2064
 1709BOLB   C4A41000  10.647  24.545  19.771  0.2012  0.0336 -0.5257
 1709BOLB   C1B41001  10.064  24.163  18.881 -0.3362 -0.0594 -0.4398
 1709BOLB   C2B41002  10.392  24.105  19.173  0.0257 -0.1281  0.0464
 1709BOLB   C3B41003  10.492  23.997  19.563  0.1745  0.0309  0.1279
 1709BOLB   C4B41004  10.315  24.122  19.927  0.1912  0.1835 -0.0344
 1709BOLB   NC241005  10.688  25.688  21.599  0.0661  0.0658 -0.0778
 1709BOLB   PO241006  10.796  25.297  21.798  0.0380 -0.0205  0.1224
 1709BOLB   GL341007  10.561  25.064  21.462 -0.2804  0.0327 -0.0243
 1709BOLB   GL441008  10.237  24.978  21.508 -0.0859 -0.0070  0.1471
 1709BOLB   C1C41009  10.520  24.756  21.220  0.1184  0.0123 -0.1457
 1709BOLB   C2C41010  10.433  24.443  20.911 -0.2109 -0.3223 -0.1383
 1709BOLB   C3C41011  10.260  24.342  20.497  0.2044 -0.1324 -0.1532
 1709BOLB   C4C41012  10.410  24.587  20.131  0.0458 -0.1612  0.0385
 1709BOLB   C1D41013   9.952  24.727  21.140  0.0010 -0.1082 -0.1678
 1709BOLB   C2D41014   9.523  24.803  21.001  0.2255  0.1364 -0.3889
 1709BOLB   C3D41015   9.033  24.699  20.885  0.1138  0.4083  0.1880
 1709BOLB   C4D41016   8.754  24.636  20.751 -0.1112  0.0561  0.1258
 1710BOLB   NC141017   6.734  17.261   2.844  0.2155  0.1736 -0.3062
 1710BOLB   PO141018   6.957  16.908   3.072 -0.0187 -0.2185  0.0523
 1710BOLB   GL141019   6.864  16.825   2.689 -0.1790 -0.0606 -0.1783
 1710BOLB   GL241020   7.008  17.077   2.382 -0.2376 -0.0379 -0.1433
 1710BOLB   C1A41021   6.716  16.648   2.282 -0.1076  0.1886 -0.1343
 1710BOLB   C2A41022   6.746  16.665   1.891  0.1496  0.1145  0.1939
 1710BOLB   C3A41023   6.664  16.573   1.462 -0.3975  0.1274 -0.1609
 1710BOLB   C4A41024   6.851  16.548   1.068  0.1950  0.0517 -0.1205
 1710BOLB   C1B41025   7.187  16.996   1.948  0.0708  0.2621  0.1450
 1710BOLB   C2B41026   7.396  16.751   1.601 -0.1835  0.2001  0.0441
 1710BOLB   C3B41027   7.392  16.502   1.162 -0.0063 -0.0076  0.0401
 1710BOLB   C4B41028   7.575  16.141   0.805  0.0042 -0.1213 -0.2845
 1710BOLB   NC241029   6.501  16.180  -1.393  0.1685  0.0308 -0.1765
 1710BOLB   PO241030   6.664  15.970  -1.068  0.1399 -0.2132 -0.0843
 1710BOLB   GL341031   6.828  15.964  -0.682  0.2153  0.0876 -0.0356
 1710BOLB   GL441032   6.498  15.886  -0.504 -0.2224  0.1561 -0.0445
 1710BOLB   C1C41033   6.965  15.952  -0.231  0.0777 -0.2691 -0.1509
 1710BOLB   C2C41034   6.947  15.875   0.143 -0.0669  0.0870 -0.1874
 1710BOLB   C3C41035   7.109  16.007   0.451 -0.5749  0.1777 -0.4095
 1710BOLB   C4C41036   7.096  16.210   0.793  0.0272 -0.1630 -0.0721
 1710BOLB   C1D41037   6.361  16.021  -0.038 -0.1067 -0.0490  0.1580
 1710BOLB   C2D41038   6.527  16.233   0.352  0.0737 -0.4202  0.1042
 1710BOLB   C3D41039   6.516  16.269   0.801 -0.2541 -0.2362 -0.2200
 1710BOLB   C4D41040   6.281  16.583   1.149  0.3311  0.0102  0.0599
 1711BOLB   NC141041  10.948  15.440   9.242  0.0369  0.2471 -0.0354
 1711BOLB   PO141042  10.929  15.005   9.394 -0.0549 -0.0220 -0.2012
 1711BOLB   GL141043  11.221  14.590   9.241  0.0256 -0.0058 -0.1623
 1711BOLB   GL241044  11.294  14.136   9.404 -0.1889  0.2200 -0.0795
 1711BOLB   C1A41045  11.580  14.472   8.947 -0.1258  0.0523 -0.0757
 1711BOLB   C2A41046  11.941  14.235   8.753  0.1558 -0.1544 -0.1063
 1711BOLB   C3A41047  12.211  13.961   8.631  0.3881  0.0372  0.0323
 1711BOLB   C4A41048  12.453  13.659   8.500  0.0154 -0.3040 -0.1691
 1711BOLB   C1B41049  11.585  13.878   9.439 -0.0293  0.1485 -0.1418
 1711BOLB   C2B41050  11.951  13.698   9.491  0.1615 -0.0979 -0.1609
 1711BOLB   C3B41051  12.351  13.557   9.521 -0.0503 -0.1657 -0.1510
 1711BOLB   C4B41052  12.782  13.611   9.558 -0.0268 -0.3057  0.2895
 1711BOLB   NC241053  14.020  11.883   8.046  0.0081  0.0162 -0.0487
 1711BOLB   PO241054  13.813  11.920   8.544 -0.2741 -0.3649  0.1755
 1711BOLB   GL341055  13.488  11.979   8.402 -0.1411  0.2387 -0.1651
 1711BOLB   GL441056  13.637  12.223   8.158 -0.1939 -0.2426  0.0667
 1711BOLB   C1C41057  13.148  12.154   8.204  0.0705  0.0834 -0.1873
 1711BOLB   C2C41058  12.876  12.522   8.087  0.1572 -0.3161  0.0870
 1711BOLB   C3C41059  12.665  12.942   8.007  0.0888 -0.2469 -0.0198
 1711BOLB   C4C41060  12.567  13.286   8.246 -0.0953  0.0274  0.1168
 1711BOLB   C1D41061  13.329  12.560   8.444  0.0082  0.0812  0.2238
 1711BOLB   C2D41062  12.989  12.877   8.518 -0.1839  0.0416  0.2409
 1711BOLB   C3D41063  12.924  13.314   8.555 -0.0856  0.0761  0.0231
 1711BOLB   C4D41064  12.861  13.737   8.214  0.0741 -0.2161 -0.1579
 1712BOLB   NC141065  29.915  17.845   7.345  0.1701 -0.0300 -0.1230
 1712BOLB   PO141066  30.087  17.463   7.458  0.0130 -0.1323  0.2169
 1712BOLB   GL141067  30.402  17.824   7.506 -0.0789 -0.0154  0.0001
 1712BOLB   GL241068  30.445  18.032   7.231  0.1028  0.2315 -0.2936
 1712BOLB   C1A41069  30.822  18.051   7.590  0.1038 -0.0705 -0.2143
 1712BOLB   C2A41070  31.066  18.263   7.955  0.0447  0.1148 -0.1960
 1712BOLB   C3A41071  31.257  18.304   8.390  0.2002 -0.3031  0.0023
 1712BOLB   C4A41072  31.212  18.513   8.859 -0.1603  0.3588 -0.2512
 1712BOLB   C1B41073  30.723  17.675   7.215  0.0355  0.0000 -0.1160
 1712BOLB   C2B41074  31.105  17.623   7.515  0.1519 -0.3316  0.0957
 1712BOLB   C3B41075  31.514  17.613   7.417  0.1996 -0.1364 -0.0478
 1712BOLB   C4B41076  31.998  17.696   7.323 -0.1931  0.1214 -0.3844
 1712BOLB   NC241077  29.311  18.642  10.292 -0.1250 -0.0988  0.3059
 1712BOLB   PO241078  29.290  18.463   9.765 -0.1011  0.1658  0.2676
 1712BOLB   GL341079  29.425  18.872   9.786  0.0530  0.0285  0.3211
 1712BOLB   GL441080  29.650  19.153  10.083  0.0765  0.0643  0.5607
 1712BOLB   C1C41081  29.854  18.890   9.695  0.0393  0.0286  0.0759
 1712BOLB   C2C41082  30.198  18.798   9.525 -0.1229 -0.2831 -0.1788
 1712BOLB   C3C41083  30.678  18.903   9.433  0.0133 -0.0883  0.0744
 1712BOLB   C4C41084  30.991  18.792   9.048 -0.3229 -0.0370 -0.3076
 1712BOLB   C1D41085  30.065  19.133  10.010 -0.1620 -0.0195 -0.3624
 1712BOLB   C2D41086  30.478  19.158   9.868 -0.1923 -0.1512  0.0028
 1712BOLB   C3D41087  30.885  19.222   9.763  0.1434 -0.1458  0.1097
 1712BOLB   C4D41088  31.183  18.908   9.798 -0.2914 -0.1000  0.0508
 1713BOLB   NC141089   1.401  20.813  16.724 -0.1746  0.5988  0.0759
 1713BOLB   PO141090   1.348  20.424  16.700 -0.0170  0.0776 -0.0069
 1713BOLB   GL141091   0.994  20.490  16.992  0.0670  0.2267 -0.1285
 1713BOLB   GL241092   0.983  20.880  17.009  0.0796  0.0822  0.4333
 1713BOLB   C1A41093   1.159  20.285  17.345  0.1607 -0.0087  0.1027
 1713BOLB   C2A41094   1.048  20.191  17.776 -0.3024  0.2589 -0.1885
 1713BOLB   C3A41095   0.874  20.319  18.180  0.1706  0.7046 -0.0081
 1713BOLB   C4A41096   1.167  20.356  18.640 -0.1581 -0.1118  0.1875
 1713BOLB   C1B41097   0.682  20.987  17.236  0.0852 -0.3564 -0.0347
 1713BOLB   C2B41098   0.574  21.281  17.583  0.3030 -0.0686  0.2510
 1713BOLB   C3B41099   0.173  21.482  17.809  0.1609 -0.0655 -0.1284
 1713BOLB   C4B41100  -0.374  21.551  17.933 -0.1940 -0.1987  0.0192
 1713BOLB   NC241101   0.676  19.822  21.264 -0.1902 -0.0078 -0.5409
 1713BOLB   PO241102   0.253  20.064  21.105  0.0881  0.0394 -0.0899
 1713BOLB   GL341103   0.411  19.898  20.694  0.0344 -0.0244 -0.0910
 1713BOLB   GL441104   0.270  19.653  20.448 -0.3159  0.1074  0.2431
 1713BOLB   C1C41105   0.701  19.961  20.330 -0.3690  0.2335  0.2427
 1713BOLB   C2C41106   0.975  20.008  19.933 -0.3117  0.1497  0.3002
 1713BOLB   C3C41107   1.230  20.026  19.486 -0.2995 -0.2748 -0.2133
 1713BOLB   C4C41108   1.285  20.180  19.098 -0.2168  0.3694  0.0765
 1713BOLB   C1D41109   0.202  19.950  20.094  0.0745 -0.3787  0.1509
 1713BOLB   C2D41110   0.545  20.295  20.019  0.1668 -0.0781 -0.0949
 1713BOLB   C3D41111   0.884  20.496  19.787  0.0641  0.2020 -0.3986
 1713BOLB   C4D41112   1.288  20.531  19.581  0.0190 -0.1156 -0.0623
 1714BOLB   NC141113  14.103  20.679   4.708 -0.0254  0.1650  0.3868
 1714BOLB   PO141114  14.268  20.314   4.832  0.2808 -0.0153 -0.1140
 1714BOLB   GL141115  14.507  20.394   4.642  0.3968 -0.0129 -0.0807
 1714BOLB   GL241116  14.334  20.341   4.351 -0.0953 -0.0661 -0.0359
 1714BOLB   C1A41117  14.865  20.294   4.507 -0.0075  0.0700  0.0307
 1714BOLB   C2A41118  15.116  20.309   4.212 -0.1080  0.0057  0.0786
 1714BOLB   C3A41119  15.281  20.511   3.959  0.2221  0.1283  0.0538
 1714BOLB   C4A41120  15.647  20.693   3.853  0.0531 -0.0323  0.2647
 1714BOLB   C1B41121  14.611  20.062   4.167  0.0505 -0.0180  0.1874
 1714BOLB   C2B41122  14.843  19.745   3.859 -0.2677 -0.1376 -0.1431
 1714BOLB   C3B41123  15.225  19.969   3.771 -0.1295 -0.0993 -0.1926
 1714BOLB   C4B41124  15.251  20.271   3.536  0.1276 -0.0166 -0.0298
 1714BOLB   NC241125  17.304  19.900   2.488 -0.1934  0.1137 -0.2133
 1714BOLB   PO241126  17.033  19.841   2.032  0.0598 -0.0650  0.3140
 1714BOLB   GL341127  16.730  20.068   2.247  0.0998  0.0670 -0.0548
 1714BOLB   GL441128  16.336  20.171   1.993 -0.3257 -0.1826 -0.1263
 1714BOLB   C1C41129  16.457  20.456   2.414  0.0562 -0.1830  0.2021
 1714BOLB   C2C41130  16.302  20.617   2.820 -0.0541 -0.2239  0.1112
 1714BOLB   C3C41131  16.225  20.704   3.263  0.1621  0.3134  0.1200
 1714BOLB   C4C41132  15.997  20.634   3.631  0.0805 -0.5116 -0.0221
 1714BOLB   C1D41133  16.126  19.783   2.206  0.0220 -0.1275 -0.2359
 1714BOLB   C2D41134  15.793  19.530   2.292  0.2062 -0.5503 -0.0136
 1714BOLB   C3D41135  15.501  19.156   2.408 -0.3164  0.3779  0.1496
 1714BOLB   C4D41136  15.169  18.990   2.738 -0.2400 -0.4436  0.1211
 1715BOLB   NC141137   1.261  20.325  16.231  0.1740 -0.0932  0.2633
 1715BOLB   PO141138   0.994  20.630  16.431 -0.0948 -0.1569 -0.0131
 1715BOLB   GL141139   0.583  20.524  16.567 -0.2391  0.3886  0.0918
 1715BOLB   GL241140   0.355  20.334  16.549  0.1544 -0.0002 -0.0838
 1715BOLB   C1A41141   0.375  20.515  17.053  0.2861  0.1099 -0.1603
 1715BOLB   C2A41142   0.371  20.738  17.508 -0.1468 -0.4906 -0.1578
 1715BOLB   C3A41143   0.144  21.039  17.631  0.1119  0.2545  0.0833
 1715BOLB   C4A41144  -0.245  21.082  17.941 -0.2588  0.1338  0.1021
 1715BOLB   C1B41145   0.018  20.120  16.913  0.3792  0.2089 -0.0911
 1715BOLB   C2B41146  -0.224  19.815  17.070  0.2965 -0.3940 -0.0393
 1715BOLB   C3B41147  -0.578  19.799  17.218  0.1004 -0.0888  0.2099
 1715BOLB   C4B41148  -1.059  19.890  17.366 -0.0731  0.0138 -0.1342
 1715BOLB   NC241149  -1.477  22.236  20.462  0.2222  0.1323 -0.1425
 1715BOLB   PO241150  -1.512  22.029  20.073 -0.0715  0.0071  0.1729
 1715BOLB   GL341151  -1.358  21.979  19.708 -0.2173 -0.1589  0.0233
 1715BOLB   GL441152  -1.424  22.265  19.462 -0.2749 -0.0272 -0.0503
 1715BOLB   C1C41153  -1.257  21.754  19.344 -0.0952  0.1100  0.3913
 1715BOLB   C2C41154  -0.977  21.583  19.036  0.2518  0.2767  0.2284
 1715BOLB   C3C41155  -0.752  21.345  18.673  0.1887 -0.0499  0.1059
 1715BOLB   C4C41156  -0.566  21.158  18.191  0.2666  0.0192 -0.1018
 1715BOLB   C1D41157  -1.130  22.476  19.217 -0.1241 -0.0717  0.5257
 1715BOLB   C2D41158  -0.775  22.358  18.903 -0.3769 -0.0514  0.0547
 1715BOLB   C3D41159  -0.727  22.124  18.434  0.0627  0.0520 -0.3044
 1715BOLB   C4D41160  -0.748  21.836  18.177  0.0554  0.0113  0.0364
 1716BOLB   NC141161   6.699  13.352   9.318 -0.2815  0.3490 -0.3086
 1716BOLB   PO141162   6.344  13.037   9.310 -0.0143  0.1802  0.0767
 1716BOLB   GL141163   6.319  12.553   9.411 -0.2335  0.2571 -0.3833
 1716BOLB   GL241164   6.209  12.596   9.699  0.0052 -0.0581 -0.1211
 1716BOLB   C1A41165   6.448  12.183   9.557  0.2105  0.1225 -0.2892
 1716BOLB   C2A41166   6.575  11.862   9.744  0.0177 -0.2071  0.0238
 1716BOLB   C3A41167   6.935  11.628   9.642  0.2011  0.0836 -0.0082
 1716BOLB   C4A41168   7.213  11.490   9.855  0.1999 -0.1162  0.2934
 1716BOLB   C1B41169   5.825  12.312   9.748 -0.0022 -0.0449  0.0354
 1716BOLB   C2B41170   5.647  11.969   9.572 -0.3890 -0.0745  0.5003
 1716BOLB   C3B41171   5.494  11.481   9.561  0.1303 -0.0574  0.2972
 1716BOLB   C4B41172   5.786  11.147   9.454  0.1473 -0.1171 -0.0201
 1716BOLB   NC241173   8.060   9.049  10.427 -0.2023  0.1590 -0.0654
 1716BOLB   PO241174   7.732   9.165  10.196  0.3924 -0.0079  0.5924
 1716BOLB   GL341175   7.414   9.629  10.219 -0.1107 -0.2639  0.2901
 1716BOLB   GL441176   7.045   9.862  10.207  0.0277 -0.0208 -0.1383
 1716BOLB   C1C41177   7.478   9.971  10.145  0.0458 -0.1431  0.0156
 1716BOLB   C2C41178   7.526  10.424  10.169  0.0604  0.2104  0.1140
 1716BOLB   C3C41179   7.447  10.785   9.955  0.1285  0.0763 -0.3721
 1716BOLB   C4C41180   7.243  11.081  10.000  0.0337 -0.1929 -0.0055
 1716BOLB   C1D41181   7.064  10.254  10.026  0.1010 -0.1112  0.4735
 1716BOLB   C2D41182   6.819  10.526  10.055 -0.1836  0.1745  0.1455
 1716BOLB   C3D41183   6.784  10.878   9.864  0.2373 -0.1183  0.4068
 1716BOLB   C4D41184   6.829  11.078   9.589 -0.3076  0.2030  0.3022
 1717BOLB   NC141185  14.146  19.808  12.184  0.2948 -0.2789  0.0796
 1717BOLB   PO141186  14.412  19.861  11.884 -0.2446 -0.3827 -0.1406
 1717BOLB   GL141187  14.867  19.880  11.974 -0.3445  0.0715  0.5107
 1717BOLB   GL241188  15.070  19.741  11.712 -0.2679  0.1462  0.0947
 1717BOLB   C1A41189  15.124  19.836  12.424  0.0804 -0.2426 -0.0719
 1717BOLB   C2A41190  15.484  19.528  12.559 -0.0528 -0.0988  0.0378
 1717BOLB   C3A41191  15.905  19.484  12.822 -0.1802 -0.2703  0.0135
 1717BOLB   C4A41192  16.298  19.666  12.992  0.3380 -0.1261 -0.1375
 1717BOLB   C1B41193  15.406  19.743  11.416 -0.1001 -0.0155 -0.0144
 1717BOLB   C2B41194  15.487  19.466  11.093  0.2884  0.0507  0.0438
 1717BOLB   C3B41195  15.811  19.301  10.909 -0.2783 -0.0016 -0.3381
 1717BOLB   C4B41196  16.194  19.051  10.670  0.0287  0.0546  0.2168
 1717BOLB   NC241197  18.493  19.634  13.473 -0.0793 -0.1945  0.1064
 1717BOLB   PO241198  18.396  19.771  13.895 -0.2574 -0.0348 -0.0613
 1717BOLB   GL341199  18.260  20.096  13.551  0.0853  0.1428  0.3134
 1717BOLB   GL441200  18.143  20.008  13.259  0.1748 -0.1502 -0.0428
 1717BOLB   C1C41201  17.877  20.400  13.420  0.2073  0.1249  0.3077
 1717BOLB   C2C41202  17.412  20.310  13.437 -0.1277  0.1462 -0.2113
 1717BOLB   C3C41203  17.178  19.964  13.294 -0.3796 -0.0113 -0.3879
 1717BOLB   C4C41204  16.686  19.804  13.263  0.0303 -0.2640  0.0846
 1717BOLB   C1D41205  17.737  19.788  13.536  0.0262 -0.3954 -0.0786
 1717BOLB   C2D41206  17.393  19.811  13.848 -0.0328 -0.1204  0.4237
 1717BOLB   C3D41207  17.002  19.842  13.833  0.1463 -0.0182 -0.1822
 1717BOLB   C4D41208  16.537  20.050  13.844 -0.0653  0.3084  0.2123
 1718BOLB   NC141209  13.789  18.980  11.646  0.0310  0.0883 -0.2651
 1718BOLB   PO141210  13.944  18.879  12.073 -0.0430  0.1407  0.1235
 1718BOLB   GL141211  14.422  18.755  12.153 -0.0700 -0.1741  0.0979
 1718BOLB   GL241212  14.563  18.780  12.513 -0.1738 -0.1650  0.2874
 1718BOLB   C1A41213  14.862  18.661  12.143 -0.1133 -0.0430 -0.1985
 1718BOLB   C2A41214  15.146  18.423  12.121 -0.2393 -0.0166  0.3815
 1718BOLB   C3A41215  15.393  18.150  12.352 -0.1486  0.0071  0.1904
 1718BOLB   C4A41216  15.641  17.878  12.471 -0.0587 -0.1997  0.3142
 1718BOLB   C1B41217  14.956  18.547  12.644  0.0008 -0.0286  0.0185
 1718BOLB   C2B41218  15.313  18.685  12.658 -0.0365  0.1595  0.0609
 1718BOLB   C3B41219  15.747  19.028  12.601  0.3683 -0.1193  0.4480
 1718BOLB   C4B41220  16.198  19.064  12.752  0.4217  0.0858 -0.0994
 1718BOLB   NC241221  16.383  16.429  14.278 -0.3398 -0.3292 -0.1802
 1718BOLB   PO241222  16.725  16.847  14.288 -0.0637 -0.2455  0.0811
 1718BOLB   GL341223  16.504  16.890  13.955  0.2119 -0.2037 -0.0485
 1718BOLB   GL441224  16.498  16.983  13.538 -0.2064 -0.0032 -0.1380
 1718BOLB   C1C41225  16.227  17.286  13.842  0.1691 -0.0706 -0.3076
 1718BOLB   C2C41226  16.055  17.519  13.626  0.1363  0.0258 -0.0613
 1718BOLB   C3C41227  16.078  17.720  13.222 -0.1904 -0.2086  0.0543
 1718BOLB   C4C41228  15.873  17.798  12.814 -0.1628 -0.0042 -0.0317
 1718BOLB   C1D41229  16.280  16.781  13.127  0.0075  0.0607 -0.1336
 1718BOLB   C2D41230  15.963  16.766  12.844  0.2633  0.0382 -0.1367
 1718BOLB   C3D41231  15.610  17.091  12.769  0.2614 -0.2448  0.1232
 1718BOLB   C4D41232  15.314  17.330  12.476 -0.2300 -0.0147  0.3409
 1719BOLB   NC141233   6.714  15.499  15.363 -0.1308  0.2921  0.2509
 1719BOLB   PO141234   6.947  15.161  15.219 -0.0276  0.4373 -0.0788
 1719BOLB   GL141235   6.869  14.736  15.389  0.3411 -0.1256  0.1512
 1719BOLB   GL241236   6.682  14.677  15.130 -0.0879  0.0643  0.2319
 1719BOLB   C1A41237   6.897  14.241  15.312  0.0357  0.0243  0.0722
 1719BOLB   C2A41238   6.888  13.879  15.477 -0.1255  0.1403  0.2421
 1719BOLB   C3A41239   6.874  13.566  15.722 -0.0471  0.0329 -0.0298
 1719BOLB   C4A41240   6.799  13.337  15.979 -0.1258 -0.1263 -0.0911
 1719BOLB   C1B41241   6.399  14.455  15.389 -0.1895  0.0635  0.0785
 1719BOLB   C2B41242   6.131  14.284  15.641  0.0975 -0.0811 -0.1136
 1719BOLB   C3B41243   6.259  14.165  16.125  0.2268 -0.3064  0.0424
 1719BOLB   C4B41244   6.183  13.821  16.379  0.1482 -0.2441 -0.3792
 1719BOLB   NC241245   7.228  12.827  18.691 -0.4376  0.1595 -0.1262
 1719BOLB   PO241246   7.309  12.554  18.389  0.0279 -0.2426 -0.0738
 1719BOLB   GL341247   7.267  12.690  17.981 -0.0232 -0.1316 -0.0200
 1719BOLB   GL441248   7.013  12.767  17.783  0.0969  0.0965  0.0090
 1719BOLB   C1C41249   7.369  12.963  17.504  0.1513 -0.0135 -0.0903
 1719BOLB   C2C41250   7.434  13.089  17.042  0.3027  0.2777 -0.2854
 1719BOLB   C3C41251   7.366  13.139  16.630  0.4036 -0.2391 -0.0871
 1719BOLB   C4C41252   7.196  13.324  16.291 -0.3446 -0.2495 -0.0467
 1719BOLB   C1D41253   6.661  12.751  17.703  0.0396  0.4318  0.0880
 1719BOLB   C2D41254   6.355  12.985  17.452 -0.0094 -0.0594 -0.0622
 1719BOLB   C3D41255   5.991  13.256  17.392 -0.2747 -0.2161  0.0812
 1719BOLB   C4D41256   5.948  13.654  17.576  0.2581  0.1945  0.1127
 1720BOLB   NC141257  13.959  21.941  13.973  0.1041 -0.0589  0.0088
 1720BOLB   PO141258  14.180  21.510  13.972  0.2616  0.2143  0.1654
 1720BOLB   GL141259  14.473  21.330  14.123 -0.3167 -0.1818  0.0936
 1720BOLB   GL241260  14.475  21.035  14.172 -0.2337  0.1314  0.2899
 1720BOLB   C1A41261  14.688  21.125  14.559 -0.1073 -0.0003  0.2740
 1720BOLB   C2A41262  15.104  20.975  14.600 -0.0236 -0.2317  0.1226
 1720BOLB   C3A41263  15.448  20.649  14.500  0.0716  0.2994  0.1575
 1720BOLB   C4A41264  15.848  20.549  14.503 -0.4511 -0.1660  0.1332
 1720BOLB   C1B41265  14.972  21.180  14.136 -0.1380  0.0461 -0.1272
 1720BOLB   C2B41266  15.185  21.383  14.199 -0.0327  0.2171 -0.0469
 1720BOLB   C3B41267  15.585  21.127  14.373 -0.2230  0.0525 -0.1075
 1720BOLB   C4B41268  15.990  20.990  14.191  0.0780  0.0695 -0.1215
 1720BOLB   NC241269  17.916  19.778  15.229 -0.0234 -0.1849 -0.0597
 1720BOLB   PO241270  17.853  20.116  15.568  0.0809  0.0576 -0.1335
 1720BOLB   GL341271  17.534  20.168  15.205  0.0940  0.0273 -0.2349
 1720BOLB   GL441272  17.761  20.405  15.115  0.1492 -0.1661  0.2826
 1720BOLB   C1C41273  17.306  20.330  14.792 -0.1290 -0.0658  0.0439
 1720BOLB   C2C41274  16.963  20.464  14.601  0.1391 -0.1437 -0.0661
 1720BOLB   C3C41275  16.617  20.679  14.554 -0.0783  0.0631 -0.0734
 1720BOLB   C4C41276  16.282  20.591  14.394 -0.0540  0.0075 -0.0686
 1720BOLB   C1D41277  17.501  20.826  15.067  0.1752 -0.4011  0.0227
 1720BOLB   C2D41278  17.079  20.922  14.792  0.1966  0.2229  0.2358
 1720BOLB   C3D41279  16.681  21.161  14.709 -0.0636 -0.1914  0.2145
 1720BOLB   C4D41280  16.234  21.215  14.592 -0.0015  0.0942  0.0503
 1721BOLB   NC141281  13.231  23.156  14.193  0.1218  0.0437  0.0214
 1721BOLB   PO141282  13.618  23.068  14.522 -0.0507 -0.4255 -0.0143
 1721BOLB   GL141283  14.064  23.168  14.630  0.1604 -0.0560  0.1083
 1721BOLB   GL241284  14.351  23.010  14.743  0.1992 -0.0766 -0.3620
 1721BOLB   C1A41285  14.274  23.534  14.809 -0.1329 -0.0949 -0.3626
 1721BOLB   C2A41286  14.515  23.682  15.111 -0.4186  0.0010  0.0469
 1721BOLB   C3A41287  14.935  23.895  15.349 -0.0204  0.1497  0.1576
 1721BOLB   C4A41288  15.203  24.168  15.304 -0.2837 -0.1914 -0.0692
 1721BOLB   C1B41289  14.709  23.090  14.914 -0.2431 -0.3282 -0.0787
 1721BOLB   C2B41290  14.887  23.279  15.389 -0.2227 -0.0118 -0.3363
 1721BOLB   C3B41291  15.144  23.533  15.794 -0.0321  0.2972  0.0042
 1721BOLB   C4B41292  15.531  23.364  16.045 -0.1341 -0.1842 -0.0228
 1721BOLB   NC241293  16.609  25.578  16.649 -0.1052 -0.0180 -0.0103
 1721BOLB   PO241294  16.951  25.373  16.431 -0.2603  0.1774 -0.3004
 1721BOLB   GL341295  16.536  25.210  16.160  0.2927  0.0176  0.1193
 1721BOLB   GL441296  16.246  25.294  16.152 -0.3153 -0.0867  0.1453
 1721BOLB   C1C41297  16.451  25.000  15.794 -0.0333  0.0374  0.1203
 1721BOLB   C2C41298  16.164  24.649  15.772  0.1330  0.0764 -0.5283
 1721BOLB   C3C41299  15.667  24.603  15.821 -0.0155  0.2146 -0.0854
 1721BOLB   C4C41300  15.357  24.512  15.507  0.0106 -0.0704  0.1492
 1721BOLB   C1D41301  15.984  25.005  16.082  0.0391 -0.3040  0.1904
 1721BOLB   C2D41302  15.625  24.880  16.266  0.3210  0.1513 -0.2470
 1721BOLB   C3D41303  15.316  24.802  16.523  0.0127  0.1442  0.1312
 1721BOLB   C4D41304  15.045  24.524  16.734  0.2675  0.1149  0.0245
 1722BOLB   NC141305   9.991  20.181   2.570  0.1161 -0.0533 -0.1772
 1722BOLB   PO141306  10.247  19.762   2.704 -0.0211  0.0505  0.2258
 1722BOLB   GL141307  10.218  19.709   2.310  0.0454  0.0252  0.0091
 1722BOLB   GL241308  10.024  19.321   2.210  0.1961 -0.1616  0.0733
 1722BOLB   C1A41309  10.582  19.673   1.961  0.0308 -0.0975  0.4543
 1722BOLB   C2A41310  10.764  19.535   1.555  0.3936 -0.0786  0.2625
 1722BOLB   C3A41311  11.118  19.485   1.335  0.1431 -0.0011 -0.0222
 1722BOLB   C4A41312  11.435  19.391   1.037  0.0093 -0.2002 -0.0161
 1722BOLB   C1B41313  10.093  19.515   1.795 -0.0309 -0.0232 -0.1950
 1722BOLB   C2B41314  10.225  19.554   1.431  0.0968  0.3674  0.2243
 1722BOLB   C3B41315  10.319  19.727   1.060 -0.1911 -0.1239 -0.0491
 1722BOLB   C4B41316  10.536  19.836   0.658 -0.0886  0.2407 -0.1526
 1722BOLB   NC241317  12.693  18.028  -0.200  0.1822 -0.0575 -0.2048
 1722BOLB   PO241318  12.522  17.619  -0.141 -0.0421 -0.1579 -0.2796
 1722BOLB   GL341319  12.137  17.888  -0.006 -0.1214 -0.2511  0.0460
 1722BOLB   GL441320  12.269  18.220  -0.043  0.3684 -0.0377  0.3681
 1722BOLB   C1C41321  11.885  18.243   0.193 -0.0809  0.3892 -0.0018
 1722BOLB   C2C41322  11.554  18.541   0.336  0.0277 -0.1946  0.0710
 1722BOLB   C3C41323  11.596  19.012   0.470  0.1283 -0.1964  0.1701
 1722BOLB   C4C41324  11.263  19.229   0.715 -0.0189 -0.3383  0.1601
 1722BOLB   C1D41325  12.407  18.319   0.361  0.2966 -0.2802  0.1118
 1722BOLB   C2D41326  12.346  18.250   0.770 -0.1162 -0.2646 -0.0945
 1722BOLB   C3D41327  12.157  18.102   1.180  0.2795 -0.0920  0.0395
 1722BOLB   C4D41328  12.102  18.022   1.563 -0.1904 -0.0428 -0.1407
 1723BOLB   NC141329  13.504  19.798   4.701 -0.1204 -0.2160 -0.0464
 1723BOLB   PO141330  13.411  20.141   4.443  0.0365  0.0758  0.0476
 1723BOLB   GL141331  13.680  20.221   4.230 -0.0481  0.0929 -0.3361
 1723BOLB   GL241332  13.635  20.094   3.933 -0.0214  0.1543 -0.0754
 1723BOLB   C1A41333  14.000  20.497   4.011 -0.2011  0.1055 -0.0541
 1723BOLB   C2A41334  14.460  20.369   3.815 -0.2166 -0.0695 -0.0510
 1723BOLB   C3A41335  14.732  20.211   3.491  0.1593 -0.1339 -0.1178
 1723BOLB   C4A41336  14.977  20.320   3.096  0.3051 -0.0869  0.0385
 1723BOLB   C1B41337  13.648  20.232   3.574 -0.0841 -0.1847  0.0704
 1723BOLB   C2B41338  13.718  20.178   3.191  0.0520 -0.0753 -0.0778
 1723BOLB   C3B41339  13.462  20.070   2.859 -0.0928 -0.0605  0.1675
 1723BOLB   C4B41340  13.478  19.838   2.503 -0.1337  0.0223 -0.0613
 1723BOLB   NC241341  16.544  21.236   2.045 -0.1145  0.2682 -0.3887
 1723BOLB   PO241342  16.312  21.147   1.776  0.0241 -0.3264  0.1868
 1723BOLB   GL341343  15.899  21.070   1.566  0.0392  0.0810 -0.1012
 1723BOLB   GL441344  15.625  21.397   1.508 -0.2746 -0.0969  0.1935
 1723BOLB   C1C41345  15.512  21.026   1.790  0.2900 -0.1269  0.2854
 1723BOLB   C2C41346  15.517  20.836   2.244  0.3858  0.2062 -0.0055
 1723BOLB   C3C41347  15.420  20.607   2.532  0.0634  0.3342 -0.2166
 1723BOLB   C4C41348  15.172  20.635   2.901 -0.3104  0.1832 -0.0135
 1723BOLB   C1D41349  15.268  21.599   1.665  0.0168  0.1937 -0.4115
 1723BOLB   C2D41350  14.919  21.542   1.910  0.1374  0.2294  0.0476
 1723BOLB   C3D41351  14.801  21.431   2.357 -0.3273 -0.0063  0.1529
 1723BOLB   C4D41352  14.465  21.264   2.753 -0.2880  0.0480 -0.1478
 1724BOLB   NC141353   6.641  28.402   7.230 -0.0916  0.2549 -0.3232
 1724BOLB   PO141354   6.912  28.784   7.486 -0.1792  0.0805  0.3594
 1724BOLB   GL141355   7.152  29.088   7.280  0.1228 -0.3303  0.3074
 1724BOLB   GL241356   6.912  29.089   7.038  0.1010  0.1147  0.1151
 1724BOLB   C1A41357   7.080  29.608   7.291 -0.0296  0.3776 -0.3295
 1724BOLB   C2A41358   7.038  29.984   7.274 -0.0555  0.1217  0.3798
 1724BOLB   C3A41359   6.821  30.368   6.997  0.0321 -0.1567 -0.1412
 1724BOLB   C4A41360   6.505  30.657   7.148 -0.2035 -0.1135  0.0563
 1724BOLB   C1B41361   6.832  29.514   6.818  0.4220  0.1224  0.1854
 1724BOLB   C2B41362   6.978  29.898   6.659  0.2108  0.2374 -0.5182
 1724BOLB   C3B41363   7.057  30.065   6.290 -0.2472 -0.1061  0.0330
 1724BOLB   C4B41364   7.150  30.084   5.851  0.1495  0.1658 -0.1720
 1724BOLB   NC241365   6.527  33.148   7.852  0.1369 -0.0924  0.0039
 1724BOLB   PO241366   6.382  32.773   7.772 -0.1423  0.0222 -0.1768
 1724BOLB   GL341367   6.552  32.389   7.659 -0.1696  0.0134  0.0698
 1724BOLB   GL441368   6.596  32.302   7.940 -0.1317  0.2513 -0.0845
 1724BOLB   C1C41369   6.230  32.033   7.561 -0.3124 -0.1520  0.0525
 1724BOLB   C2C41370   6.033  31.670   7.323  0.2553 -0.2747  0.0845
 1724BOLB   C3C41371   6.118  31.233   7.455  0.1395 -0.3790  0.0814
 1724BOLB   C4C41372   6.163  30.830   7.394 -0.0965  0.0813  0.2666
 1724BOLB   C1D41373   6.864  31.914   7.743  0.3157  0.3806 -0.0634
 1724BOLB   C2D41374   7.148  31.634   7.828  0.0440 -0.3887  0.1388
 1724BOLB   C3D41375   7.488  31.497   7.635 -0.1863  0.2584  0.2973
 1724BOLB   C4D41376   7.794  31.175   7.748 -0.3570 -0.0649 -0.0516
 1725BOLB   NC141377   6.981  16.859  17.053 -0.0648  0.2681 -0.2858
 1725BOLB   PO141378   6.679  16.920  17.414 -0.1899  0.0079 -0.2831
 1725BOLB   GL141379   6.964  16.777  17.598  0.2368  0.4316 -0.0119
 1725BOLB   GL241380   7.341  16.820  17.538  0.3663  0.0425  0.4250
 1725BOLB   C1A41381   7.213  16.516  17.946  0.3187 -0.0275 -0.1006
 1725BOLB   C2A41382   7.285  16.310  18.365 -0.3816 -0.0020  0.1582
 1725BOLB   C3A41383   7.400  15.937  18.604 -0.3372  0.0785 -0.3306
 1725BOLB   C4A41384   7.510  15.574  18.958 -0.1190 -0.1192 -0.0038
 1725BOLB   C1B41385   7.746  16.560  17.746  0.1240  0.1684 -0.1485
 1725BOLB   C2B41386   8.180  16.514  17.757 -0.2731 -0.4153 -0.2090
 1725BOLB   C3B41387   8.485  16.054  17.652 -0.0357  0.1158  0.2312
 1725BOLB   C4B41388   8.506  15.725  17.784  0.0224  0.0046  0.1551
 1725BOLB   NC241389   6.184  14.025  20.400 -0.0101  0.2234  0.1794
 1725BOLB   PO241390   5.950  13.866  20.023  0.2974  0.0848 -0.1082
 1725BOLB   GL341391   6.258  14.175  19.892  0.0284  0.0653 -0.3062
 1725BOLB   GL441392   6.290  14.569  20.016 -0.1524  0.0818  0.4817
 1725BOLB   C1C41393   6.594  14.383  19.629  0.1121 -0.0630 -0.0344
 1725BOLB   C2C41394   6.969  14.457  19.572  0.0609  0.4004 -0.1454
 1725BOLB   C3C41395   7.455  14.620  19.365 -0.0110 -0.3109 -0.3667
 1725BOLB   C4C41396   7.475  15.040  19.116  0.0850  0.0549 -0.2296
 1725BOLB   C1D41397   5.910  14.779  19.901  0.1291  0.0784 -0.0949
 1725BOLB   C2D41398   5.792  15.134  19.911  0.4664 -0.2901  0.0383
 1725BOLB   C3D41399   5.529  15.384  19.810 -0.0709  0.0804  0.1560
 1725BOLB   C4D41400   5.146  15.479  19.529  0.2704  0.0075 -0.0740
 1726BOLB   NC141401  14.662  22.595  13.517 -0.1397  0.0961  0.0124
 1726BOLB   PO141402  14.665  22.630  13.950 -0.1431 -0.2642  0.0071
 1726BOLB   GL141403  15.059  22.831  13.979 -0.0629 -0.4140  0.3323
 1726BOLB   GL241404  15.014  23.096  14.133  0.1488 -0.2168  0.0269
 1726BOLB   C1A41405  15.396  22.764  14.286 -0.0879  0.3292  0.0153
 1726BOLB   C2A41406  15.660  23.089  14.432  0.1768  0.2487  0.0103
 1726BOLB   C3A41407  15.673  23.433  14.638 -0.2583  0.0002 -0.0349
 1726BOLB   C4A41408  15.758  23.555  15.084 -0.3203 -0.0819 -0.0751
 1726BOLB   C1B41409  15.163  23.098  14.530  0.2044 -0.4023 -0.0490
 1726BOLB   C2B41410  15.320  23.069  14.965 -0.0182 -0.0860  0.1026
 1726BOLB   C3B41411  15.584  23.146  15.329  0.0152 -0.0550 -0.0187
 1726BOLB   C4B41412  15.339  23.112  15.572  0.0689 -0.0047  0.0269
 1726BOLB   NC241413  17.066  23.595  17.008 -0.1149 -0.1222  0.2868
 1726BOLB   PO241414  17.151  23.304  16.639 -0.0716 -0.2622 -0.0285
 1726BOLB   GL341415  16.985  23.707  16.469  0.3250 -0.1141 -0.0595
 1726BOLB   GL441416  16.699  23.647  16.585 -0.2055  0.2571  0.3392
 1726BOLB   C1C41417  16.861  23.802  16.123  0.0157  0.1312 -0.2403
 1726BOLB   C2C41418  16.604  23.824  15.654 -0.0298 -0.1628  0.2097
 1726BOLB   C3C41419  16.475  23.399  15.650 -0.1850 -0.1310  0.3342
 1726BOLB   C4C41420  16.122  23.475  15.255  0.2252 -0.0287 -0.1581
 1726BOLB   C1D41421  16.567  23.234  16.537 -0.0221  0.0129  0.1538
 1726BOLB   C2D41422  16.247  23.272  16.242 -0.0562  0.2641 -0.3835
 1726BOLB   C3D41423  15.926  23.094  15.980 -0.1334  0.0129 -0.0087
 1726BOLB   C4D41424  15.639  22.859  15.902  0.1029 -0.2255  0.0960
 1727BOLB   NC141425  37.842  22.281  14.318 -0.0216 -0.2169  0.2803
 1727BOLB   PO141426  37.652  22.770  14.273 -0.1996 -0.4059  0.1277
 1727BOLB   GL141427  37.391  22.948  14.505 -0.0498  0.0229  0.0371
 1727BOLB   GL241428  37.492  22.877  14.763  0.1168 -0.3373  0.1683
 1727BOLB   C1A41429  37.055  23.089  14.738  0.2755 -0.2721 -0.1127
 1727BOLB   C2A41430  36.687  23.421  14.840 -0.0137  0.2183 -0.0796
 1727BOLB   C3A41431  36.271  23.469  14.736  0.1540  0.0281 -0.1947
 1727BOLB   C4A41432  36.090  23.814  14.815 -0.2202 -0.0098  0.0341
 1727BOLB   C1B41433  37.107  22.593  14.923  0.0394  0.0050  0.1875
 1727BOLB   C2B41434  36.765  22.457  15.080 -0.4941  0.3490 -0.0888
 1727BOLB   C3B41435  36.375  22.615  15.158  0.1851 -0.2636  0.0828
 1727BOLB   C4B41436  36.205  23.040  15.072 -0.2634  0.0264 -0.1726
 1727BOLB   NC241437  34.646  25.292  15.671 -0.2433 -0.1177  0.1105
 1727BOLB   PO241438  34.701  25.599  15.425  0.1100 -0.3079 -0.2376
 1727BOLB   GL341439  35.139  25.413  15.417  0.0755  0.1047  0.0329
 1727BOLB   GL441440  35.329  25.568  15.318 -0.2454  0.0855 -0.1632
 1727BOLB   C1C41441  35.135  25.020  15.321  0.0374  0.0463  0.0151
 1727BOLB   C2C41442  35.253  24.639  15.353  0.2264  0.0622  0.3593
 1727BOLB   C3C41443  35.591  24.351  15.335 -0.1925  0.1972 -0.2299
 1727BOLB   C4C41444  35.875  24.102  15.149  0.1497 -0.0696  0.2947
 1727BOLB   C1D41445  35.422  25.603  14.921  0.1459  0.0002  0.1817
 1727BOLB   C2D41446  35.723  25.369  14.540  0.1358  0.1329 -0.0998
 1727BOLB   C3D41447  36.130  25.201  14.429  0.0120 -0.3569 -0.2383
 1727BOLB   C4D41448  36.228  24.835  14.624 -0.2048  0.0414 -0.0533
 1728BOLB   NC141449   9.332  14.654  13.969  0.3440 -0.0801  0.1233
 1728BOLB   PO141450   8.843  14.724  14.119 -0.0536 -0.1414  0.2370
 1728BOLB   GL141451   9.069  14.611  14.463  0.0401 -0.1853 -0.0511
 1728BOLB   GL241452   8.806  14.658  14.727  0.1298 -0.0455  0.1471
 1728BOLB   C1A41453   9.305  14.301  14.672  0.0605  0.0559  0.1317
 1728BOLB   C2A41454   9.483  13.948  15.019  0.1144 -0.0736  0.1100
 1728BOLB   C3A41455   9.577  13.549  15.222 -0.3486  0.0243  0.0220
 1728BOLB   C4A41456  10.003  13.398  15.303 -0.0888  0.2975 -0.1963
 1728BOLB   C1B41457   8.821  14.207  14.784  0.0031  0.2603 -0.1935
 1728BOLB   C2B41458   8.943  13.850  14.959 -0.0756 -0.0498  0.0368
 1728BOLB   C3B41459   9.108  13.686  15.330 -0.2973 -0.0932  0.1849
 1728BOLB   C4B41460   9.246  13.798  15.734  0.1707 -0.0269 -0.1338
 1728BOLB   NC241461  10.451  12.020  16.666 -0.1352  0.0561 -0.0677
 1728BOLB   PO241462  10.881  12.003  16.629  0.0370 -0.0091 -0.3693
 1728BOLB   GL341463  10.765  12.404  16.524 -0.2188 -0.1614  0.1839
 1728BOLB   GL441464  10.575  12.620  16.626  0.0138  0.1397 -0.0450
 1728BOLB   C1C41465  10.879  12.558  16.097  0.1026  0.0062 -0.0313
 1728BOLB   C2C41466  10.659  12.761  15.853 -0.2081  0.3318 -0.0722
 1728BOLB   C3C41467  10.537  12.771  15.492 -0.0754  0.1429  0.1855
 1728BOLB   C4C41468  10.295  13.015  15.352 -0.3925  0.2147  0.0474
 1728BOLB   C1D41469  10.603  13.004  16.438 -0.2085 -0.3020  0.1185
 1728BOLB   C2D41470  10.627  13.398  16.123  0.0338  0.2265  0.0065
 1728BOLB   C3D41471  10.539  13.815  15.952  0.1232  0.1674  0.2416
 1728BOLB   C4D41472  10.167  14.174  15.836 -0.0676 -0.2103 -0.0994
 1729BOLB   NC141473   3.380   9.125  16.897 -0.3432 -0.3291 -0.1430
 1729BOLB   PO141474   3.161   9.421  17.204 -0.0865  0.0584  0.2208
 1729BOLB   GL141475   2.976   9.775  17.012 -0.1890  0.0795  0.0274
 1729BOLB   GL241476   2.764   9.817  17.226  0.2343  0.1725  0.0916
 1729BOLB   C1A41477   2.774   9.986  16.701 -0.1575 -0.0993 -0.0425
 1729BOLB   C2A41478   2.592  10.057  16.321  0.0908  0.1661  0.1136
 1729BOLB   C3A41479   2.299  10.176  16.064  0.1525 -0.1150 -0.0758
 1729BOLB   C4A41480   1.978   9.993  15.959  0.0830 -0.0845 -0.1404
 1729BOLB   C1B41481   2.427  10.181  17.110 -0.1198  0.0171 -0.2183
 1729BOLB   C2B41482   2.142  10.418  17.177  0.0217  0.0740  0.0764
 1729BOLB   C3B41483   1.983  10.904  17.014 -0.2520  0.2246 -0.1336
 1729BOLB   C4B41484   1.675  11.377  16.996  0.0979 -0.0178  0.0896
 1729BOLB   NC241485   1.813   7.814  15.676 -0.0861 -0.4195  0.0494
 1729BOLB   PO241486   1.545   7.927  16.063 -0.1737 -0.3342 -0.0334
 1729BOLB   GL341487   1.439   8.286  15.836  0.1335 -0.0232  0.1881
 1729BOLB   GL441488   1.535   8.561  16.037 -0.0390 -0.3689 -0.2046
 1729BOLB   C1C41489   1.405   8.708  15.537  0.0474  0.0447 -0.0409
 1729BOLB   C2C41490   1.390   9.144  15.540  0.2476 -0.0308  0.0963
 1729BOLB   C3C41491   1.562   9.462  15.666 -0.1435  0.5809  0.5071
 1729BOLB   C4C41492   1.679   9.789  15.808 -0.1605  0.1320  0.0133
 1729BOLB   C1D41493   1.704   9.002  15.940 -0.0778 -0.1921  0.1243
 1729BOLB   C2D41494   1.829   9.428  16.069  0.0529  0.1118 -0.4111
 1729BOLB   C3D41495   1.791   9.676  16.375 -0.2284 -0.0303  0.0862
 1729BOLB   C4D41496   1.698  10.155  16.335 -0.1132  0.0196  0.1737
 1730BOLB   NC141497  33.035  11.488   5.922  0.1340  0.0953  0.0176
 1730BOLB   PO141498  33.003  11.670   6.258 -0.2363  0.1731 -0.0769
 1730BOLB   GL141499  33.364  12.081   6.348 -0.2604  0.2725 -0.0489
 1730BOLB   GL241500  33.344  12.404   6.442 -0.1932 -0.1466  0.1511
 1730BOLB   C1A41501  33.770  12.029   6.587  0.1361 -0.0191 -0.0123
 1730BOLB   C2A41502  34.014  12.035   6.855 -0.1761 -0.2005 -0.4248
 1730BOLB   C3A41503  34.018  12.449   7.244 -0.0998  0.1133  0.0140
 1730BOLB   C4A41504  34.089  12.921   7.154 -0.3207  0.1592  0.1724
 1730BOLB   C1B41505  33.785  12.452   6.285  0.0898  0.2367  0.0084
 1730BOLB   C2B41506  34.210  12.585   6.381 -0.2219 -0.4064 -0.0402
 1730BOLB   C3B41507  34.404  12.886   6.669 -0.1039 -0.1136 -0.0560
 1730BOLB   C4B41508  34.483  13.165   6.981 -0.1655  0.1270 -0.0624
 1730BOLB   NC241509  32.394  13.520   5.639 -0.4897  0.0031  0.0174
 1730BOLB   PO241510  32.397  13.039   5.713 -0.0579  0.1201 -0.3009
 1730BOLB   GL341511  32.778  13.099   5.701 -0.0602  0.1380  0.1402
 1730BOLB   GL441512  33.051  12.881   5.712 -0.0968 -0.1344  0.2596
 1730BOLB   C1C41513  33.003  13.144   6.129 -0.3226  0.1654  0.1105
 1730BOLB   C2C41514  33.251  13.076   6.460  0.0587  0.2551 -0.1568
 1730BOLB   C3C41515  33.580  13.160   6.681  0.4258  0.1662  0.1615
 1730BOLB   C4C41516  33.967  13.185   6.822  0.2088  0.2466 -0.1867
 1730BOLB   C1D41517  33.348  13.182   5.694  0.1984 -0.1941 -0.2300
 1730BOLB   C2D41518  33.553  13.281   6.032 -0.3351  0.0664  0.0477
 1730BOLB   C3D41519  33.446  13.537   6.393 -0.1180 -0.0934  0.2672
 1730BOLB   C4D41520  33.695  13.767   6.651 -0.1926 -0.0914 -0.2316
 1731BOLB   NC141521  36.557  11.679  20.369  0.0948  0.1296  0.1010
 1731BOLB   PO141522  36.867  11.706  20.073  0.0497 -0.1782 -0.1320
 1731BOLB   GL141523  36.897  11.617  19.632 -0.1425 -0.2579  0.1779
 1731BOLB   GL241524  37.218  11.526  19.588  0.0160 -0.0894 -0.2342
 1731BOLB   C1A41525  36.887  11.851  19.245 -0.1049  0.2196 -0.0153
 1731BOLB   C2A41526  36.759  12.264  19.083 -0.1640 -0.3342  0.1230
 1731BOLB   C3A41527  36.727  12.578  18.773 -0.2635 -0.1203  0.2267
 1731BOLB   C4A41528  36.476  12.484  18.450 -0.0689  0.2707 -0.1565
 1731BOLB   C1B41529  37.378  11.729  19.177  0.1685 -0.0658 -0.0426
 1731BOLB   C2B41530  37.533  11.868  18.789  0.1521  0.3527 -0.0311
 1731BOLB   C3B41531  37.649  12.157  18.412  0.2662  0.4731 -0.2264
 1731BOLB   C4B41532  37.828  12.580  18.461  0.0597 -0.3781  0.0827
 1731BOLB   NC241533  34.480  11.924  18.904 -0.0127  0.0702 -0.1607
 1731BOLB   PO241534  34.833  11.717  18.906  0.1371 -0.0815 -0.0708
 1731BOLB   GL341535  34.874  11.825  18.537  0.2290  0.0126 -0.1803
 1731BOLB   GL441536  34.709  11.849  18.405  0.3152  0.0949  0.0159
 1731BOLB   C1C41537  35.147  12.113  18.209 -0.0278  0.0553 -0.1024
 1731BOLB   C2C41538  35.443  12.241  18.209  0.1521  0.3639  0.0488
 1731BOLB   C3C41539  35.802  12.083  18.368  0.1590  0.0179  0.0144
 1731BOLB   C4C41540  36.176  12.217  18.344 -0.3278 -0.0345  0.0024
 1731BOLB   C1D41541  34.541  12.088  18.027  0.0633 -0.0923 -0.1862
 1731BOLB   C2D41542  34.393  12.101  17.594 -0.3562  0.1686 -0.1835
 1731BOLB   C3D41543  34.737  12.241  17.335  0.1787 -0.0171 -0.2882
 1731BOLB   C4D41544  35.111  12.323  17.223  0.0702 -0.0566 -0.1000
 1732BOLB   NC141545  11.520  23.696   4.026 -0.0655  0.2336 -0.1482
 1732BOLB   PO141546  11.297  23.624   3.628  0.0322 -0.3714  0.1315
 1732BOLB   GL141547  11.412  23.668   3.156  0.0027  0.0973 -0.1551
 1732BOLB   GL241548  11.397  23.975   3.253 -0.0873  0.2952 -0.2796
 1732BOLB   C1A41549  11.539  23.811   2.642 -0.2680  0.1094 -0.1992
 1732BOLB   C2A41550  11.413  23.998   2.284 -0.2775  0.0298 -0.2734
 1732BOLB   C3A41551  11.373  24.199   1.885  0.1672  0.0370  0.0862
 1732BOLB   C4A41552  11.373  24.644   1.687 -0.0425  0.0030 -0.2080
 1732BOLB   C1B41553  11.363  24.212   2.976 -0.0311 -0.1169  0.1511
 1732BOLB   C2B41554  11.600  24.317   2.589 -0.0324  0.0131 -0.1225
 1732BOLB   C3B41555  11.927  24.085   2.342  0.0460  0.1899  0.0613
 1732BOLB   C4B41556  12.443  23.920   2.261  0.0328  0.0922 -0.3954
 1732BOLB   NC241557  10.923  26.484   0.465  0.2310 -0.0283 -0.1471
 1732BOLB   PO241558  11.239  26.628   0.739 -0.1317  0.0728 -0.2653
 1732BOLB   GL341559  11.045  26.293   0.984 -0.3135  0.0907  0.1877
 1732BOLB   GL441560  10.790  26.133   0.809 -0.3002  0.0173 -0.2404
 1732BOLB   C1C41561  10.975  25.959   1.276 -0.0325 -0.1917 -0.0514
 1732BOLB   C2C41562  10.626  25.675   1.381 -0.1194 -0.4205 -0.0457
 1732BOLB   C3C41563  10.718  25.253   1.594  0.1287 -0.2588  0.0357
 1732BOLB   C4C41564  11.081  25.011   1.746 -0.0095  0.1046 -0.0737
 1732BOLB   C1D41565  10.556  26.212   1.225  0.0138  0.1890  0.1448
 1732BOLB   C2D41566  10.385  26.092   1.569 -0.1737  0.1602 -0.0465
 1732BOLB   C3D41567  10.370  26.009   1.964  0.0186 -0.1816 -0.1380
 1732BOLB   C4D41568  10.340  26.124   2.388 -0.0421 -0.1798 -0.1277
 1733BOLB   NC141569   8.248  23.439  18.675 -0.2688 -0.4352 -0.2533
 1733BOLB   PO141570   7.874  23.725  18.513  0.0982  0.0952 -0.3024
 1733BOLB   GL141571   7.994  23.838  18.980  0.2177 -0.2407 -0.0976
 1733BOLB   GL241572   8.081  23.644  19.108 -0.0478  0.0693  0.0468
 1733BOLB   C1A41573   7.994  24.025  19.409  0.1389  0.2875  0.2915
 1733BOLB   C2A41574   8.402  24.048  19.748 -0.1538 -0.0629 -0.1323
 1733BOLB   C3A41575   8.766  23.845  20.004 -0.2850  0.5046  0.1774
 1733BOLB   C4A41576   8.864  23.605  20.328 -0.0985 -0.0410  0.2142
 1733BOLB   C1B41577   7.750  23.598  19.370  0.2118  0.0927  0.1318
 1733BOLB   C2B41578   7.210  23.650  19.485 -0.1965  0.0738  0.2000
 1733BOLB   C3B41579   6.955  23.409  19.706 -0.0270  0.0907  0.0144
 1733BOLB   C4B41580   7.064  23.321  20.055  0.1800  0.3576 -0.0027
 1733BOLB   NC241581  10.213  23.463  22.249  0.3004  0.1679  0.1204
 1733BOLB   PO241582  10.190  23.781  21.982 -0.2408  0.0278  0.0063
 1733BOLB   GL341583   9.810  23.746  21.714 -0.3007 -0.1502  0.2898
 1733BOLB   GL441584   9.717  24.115  21.705  0.2031  0.2213 -0.0370
 1733BOLB   C1C41585   9.761  23.659  21.296 -0.1953  0.2802  0.0386
 1733BOLB   C2C41586   9.662  23.372  20.996  0.1128  0.0833  0.1684
 1733BOLB   C3C41587   9.461  23.122  20.660  0.1275 -0.0416  0.3343
 1733BOLB   C4C41588   9.078  23.212  20.543 -0.2838  0.1996  0.1041
 1733BOLB   C1D41589   9.704  24.131  21.312  0.0416 -0.2372 -0.0988
 1733BOLB   C2D41590   9.933  24.276  20.951  0.0179 -0.0616  0.0421
 1733BOLB   C3D41591   9.757  24.130  20.634 -0.2633  0.3284 -0.1007
 1733BOLB   C4D41592   9.565  24.053  20.310  0.1147  0.3615  0.2664
 1734BOLB   NC141593  10.276  26.744  15.914  0.3164  0.0308  0.2483
 1734BOLB   PO141594  10.577  26.514  15.609 -0.4103  0.0522  0.0052
 1734BOLB   GL141595  10.784  26.943  15.743 -0.0292  0.0492  0.2176
 1734BOLB   GL241596  10.945  26.676  15.945 -0.0417  0.0014 -0.1811
 1734BOLB   C1A41597  11.147  27.235  15.670 -0.1266  0.1009  0.0345
 1734BOLB   C2A41598  11.207  27.591  15.993 -0.0783  0.0633 -0.1701
 1734BOLB   C3A41599  11.375  27.971  16.218  0.2813 -0.1402  0.0675
 1734BOLB   C4A41600  11.496  28.216  16.581  0.0561  0.0565  0.2882
 1734BOLB   C1B41601  11.209  27.052  16.152 -0.0347 -0.1296 -0.0514
 1734BOLB   C2B41602  11.530  27.388  16.329  0.1918  0.0018  0.0978
 1734BOLB   C3B41603  11.800  27.507  16.296 -0.0093 -0.0663  0.1522
 1734BOLB   C4B41604  12.080  27.385  15.980  0.3248 -0.0038 -0.4785
 1734BOLB   NC241605  12.604  29.364  18.661  0.0653 -0.0814 -0.5122
 1734BOLB   PO241606  12.208  29.462  18.555 -0.0531  0.1281 -0.2320
 1734BOLB   GL341607  12.232  29.087  18.292 -0.0512  0.0817 -0.2450
 1734BOLB   GL441608  12.420  28.896  18.082  0.0190  0.5444  0.1597
 1734BOLB   C1C41609  11.902  28.941  18.004  0.0018  0.1323  0.0204
 1734BOLB   C2C41610  11.795  28.939  17.610 -0.1193 -0.0249 -0.2942
 1734BOLB   C3C41611  11.884  28.692  17.321  0.2937 -0.0272  0.2281
 1734BOLB   C4C41612  11.757  28.299  17.014 -0.0095 -0.0285  0.1022
 1734BOLB   C1D41613  12.272  29.095  17.678 -0.1239 -0.1321  0.1607
 1734BOLB   C2D41614  12.164  29.104  17.179  0.1378  0.0134  0.0570
 1734BOLB   C3D41615  12.083  29.156  16.820  0.2332  0.2158  0.1260
 1734BOLB   C4D41616  12.250  29.003  16.458  0.3732 -0.2173 -0.1577
 1735BOLB   NC141617   5.829  27.395  15.690 -0.2283  0.2071 -0.2410
 1735BOLB   PO141618   5.921  27.801  15.501 -0.1337 -0.0881  0.0787
 1735BOLB   GL141619   5.605  28.044  15.628 -0.2558  0.1615  0.2366
 1735BOLB   GL241620   5.648  28.300  15.514  0.0288  0.0145 -0.1717
 1735BOLB   C1A41621   5.483  28.340  16.001  0.0444 -0.0834 -0.1114
 1735BOLB   C2A41622   5.263  28.523  16.291  0.0004 -0.0647 -0.1057
 1735BOLB   C3A41623   5.239  28.990  16.258 -0.0554  0.0111 -0.1596
 1735BOLB   C4A41624   5.277  29.469  16.218  0.0953  0.0555 -0.0295
 1735BOLB   C1B41625   5.963  28.409  15.888 -0.2335 -0.0071 -0.1731
 1735BOLB   C2B41626   5.930  28.696  16.031 -0.1371  0.0664 -0.0032
 1735BOLB   C3B41627   5.718  29.020  16.403  0.1651 -0.2775 -0.0467
 1735BOLB   C4B41628   5.581  29.317  16.674  0.0447  0.0486 -0.0538
 1735BOLB   NC241629   5.007  31.204  16.459  0.2557 -0.4132 -0.1486
 1735BOLB   PO241630   5.024  31.352  16.026  0.0099  0.1013  0.1399
 1735BOLB   GL341631   4.948  30.941  15.972 -0.0895 -0.1272  0.0571
 1735BOLB   GL441632   5.031  30.659  16.208 -0.2091  0.1959 -0.2446
 1735BOLB   C1C41633   4.755  30.607  15.836  0.0527  0.1436  0.1236
 1735BOLB   C2C41634   4.737  30.208  15.636  0.0394  0.0047 -0.4904
 1735BOLB   C3C41635   4.989  29.905  15.690  0.2005  0.0546 -0.0582
 1735BOLB   C4C41636   5.099  29.723  16.023  0.0279  0.1045  0.3630
 1735BOLB   C1D41637   4.933  30.137  16.138 -0.0320  0.0878  0.0921
 1735BOLB   C2D41638   4.645  29.774  16.105 -0.1824 -0.0971  0.2235
 1735BOLB   C3D41639   4.572  29.297  16.093  0.2824 -0.1491 -0.0331
 1735BOLB   C4D41640   4.255  29.125  16.417  0.0287  0.0537  0.1926
 1736BOLB   NC141641   0.730  25.649   7.420  0.1378 -0.2598  0.0401
 1736BOLB   PO141642   0.787  25.776   7.868  0.0427  0.2394 -0.2933
 1736BOLB   GL141643   0.537  26.055   7.587 -0.2243 -0.2093 -0.2249
 1736BOLB   GL241644   0.180  26.025   7.461  0.3748  0.0239 -0.0827
 1736BOLB   C1A41645   0.433  26.490   7.592  0.0629 -0.1430 -0.1801
 1736BOLB   C2A41646   0.571  26.907   7.460 -0.1894 -0.2279 -0.3826
 1736BOLB   C3A41647   0.705  27.289   7.169 -0.0243  0.1302  0.1513
 1736BOLB   C4A41648   0.279  27.567   7.011  0.3928 -0.1240 -0.2628
 1736BOLB   C1B41649  -0.113  26.374   7.225  0.0072  0.1618  0.2928
 1736BOLB   C2B41650  -0.099  26.710   6.983 -0.3631  0.0342  0.2863
 1736BOLB   C3B41651  -0.119  27.097   6.806  0.1266 -0.0530 -0.2273
 1736BOLB   C4B41652  -0.344  27.293   6.560  0.2114  0.1901  0.2780
 1736BOLB   NC241653  -1.349  28.201   5.521 -0.1057 -0.0182  0.2549
 1736BOLB   PO241654  -1.270  28.365   5.908  0.1164 -0.1571 -0.0590
 1736BOLB   GL341655  -0.806  28.347   6.052  0.0748 -0.2255  0.1726
 1736BOLB   GL441656  -0.701  28.121   6.295 -0.0491 -0.0916 -0.4716
 1736BOLB   C1C41657  -0.255  28.300   6.062 -0.4489 -0.0842 -0.2459
 1736BOLB   C2C41658   0.018  28.299   6.333  0.1309 -0.0248 -0.2509
 1736BOLB   C3C41659   0.223  28.042   6.406  0.0106  0.2341  0.0078
 1736BOLB   C4C41660   0.090  27.719   6.697  0.0677  0.2510 -0.2612
 1736BOLB   C1D41661  -0.507  27.780   6.665 -0.1570 -0.1947 -0.2135
 1736BOLB   C2D41662  -0.231  27.590   7.011 -0.0158 -0.1342 -0.2757
 1736BOLB   C3D41663  -0.042  27.543   7.453  0.0558 -0.2173 -0.0577
 1736BOLB   C4D41664  -0.214  27.293   7.694  0.1857 -0.0940 -0.0555
 1737BOLB   NC141665   4.445  18.456  17.725  0.1404  0.1527  0.1034
 1737BOLB   PO141666   4.941  18.268  17.781  0.1575 -0.1734 -0.0956
 1737BOLB   GL141667   4.644  18.107  18.042 -0.1457  0.0900  0.1173
 1737BOLB   GL241668   4.405  17.969  17.957  0.0568  0.2248 -0.0255
 1737BOLB   C1A41669   4.661  17.889  18.482 -0.1628  0.1205  0.1697
 1737BOLB   C2A41670   4.526  17.868  18.854 -0.0660 -0.0396  0.0395
 1737BOLB   C3A41671   4.524  17.649  19.244  0.2936 -0.3194 -0.1839
 1737BOLB   C4A41672   4.694  17.546  19.596 -0.0766 -0.3907  0.3840
 1737BOLB   C1B41673   4.250  17.716  18.309 -0.3194 -0.1013  0.2581
 1737BOLB   C2B41674   4.004  17.478  18.668 -0.0362 -0.0042 -0.0682
 1737BOLB   C3B41675   3.759  17.239  18.945 -0.0418  0.0447  0.3638
 1737BOLB   C4B41676   3.491  17.037  19.147 -0.0176 -0.1203 -0.0059
 1737BOLB   NC241677   4.723  16.613  21.621  0.0682 -0.0477  0.2835
 1737BOLB   PO241678   5.164  16.450  21.525 -0.1600 -0.0646 -0.0594
 1737BOLB   GL341679   4.825  16.437  21.173  0.1031 -0.0464  0.1533
 1737BOLB   GL441680   4.396  16.690  21.112 -0.2166 -0.0284  0.1230
 1737BOLB   C1C41681   4.799  16.417  20.770  0.2190 -0.0906 -0.0896
 1737BOLB   C2C41682   5.003  16.661  20.458 -0.4641  0.0538 -0.1752
 1737BOLB   C3C41683   5.024  16.954  20.159 -0.3457 -0.0795 -0.1030
 1737BOLB   C4C41684   5.042  17.387  20.008 -0.0494  0.0361 -0.0820
 1737BOLB   C1D41685   4.544  16.913  20.869 -0.1189  0.0596 -0.1625
 1737BOLB   C2D41686   4.596  16.896  20.515  0.0375  0.2557  0.3578
 1737BOLB   C3D41687   4.603  17.319  20.254  0.1518  0.1448  0.1750
 1737BOLB   C4D41688   4.436  17.454  19.953  0.1197  0.4471 -0.2578
 1738BOLB   NC141689   1.436  23.520   4.392  0.0043  0.2205  0.1184
 1738BOLB   PO141690   1.051  23.600   4.608 -0.2363  0.1622 -0.1666
 1738BOLB   GL141691   1.008  23.825   4.307 -0.1663  0.0023 -0.1901
 1738BOLB   GL241692   1.040  23.728   4.087  0.0550  0.0098  0.2268
 1738BOLB   C1A41693   0.869  24.224   4.141  0.0106  0.1578 -0.1231
 1738BOLB   C2A41694   0.624  24.626   4.090  0.3632 -0.0193  0.0210
 1738BOLB   C3A41695   0.628  24.985   3.888 -0.0246 -0.1764  0.1588
 1738BOLB   C4A41696   0.295  25.199   3.654 -0.3333 -0.0192 -0.2585
 1738BOLB   C1B41697   1.176  23.873   3.675  0.4636 -0.1627  0.1879
 1738BOLB   C2B41698   1.192  23.882   3.271 -0.3728  0.1586  0.3363
 1738BOLB   C3B41699   1.031  24.029   2.855 -0.1056  0.0420 -0.2401
 1738BOLB   C4B41700   0.733  23.767   2.664  0.1148 -0.0148  0.2673
 1738BOLB   NC241701  -0.744  27.081   2.582 -0.0968  0.1655  0.1077
 1738BOLB   PO241702  -0.885  26.742   2.396  0.1125  0.0772 -0.0535
 1738BOLB   GL341703  -0.536  26.533   2.741 -0.1258  0.1550  0.2154
 1738BOLB   GL441704  -0.337  26.805   2.839 -0.0828  0.0103  0.0686
 1738BOLB   C1C41705  -0.251  26.283   2.963  0.0257  0.2686 -0.1013
 1738BOLB   C2C41706   0.111  26.053   2.888  0.1414  0.1629 -0.0415
 1738BOLB   C3C41707   0.348  25.795   3.061 -0.2568 -0.4777 -0.1091
 1738BOLB   C4C41708   0.207  25.489   3.351  0.0018 -0.0560  0.1713
 1738BOLB   C1D41709  -0.223  26.692   3.284  0.0927  0.3046  0.1706
 1738BOLB   C2D41710  -0.297  26.265   3.525 -0.2816 -0.1013  0.0055
 1738BOLB   C3D41711  -0.642  26.014   3.629 -0.0794 -0.0881 -0.0496
 1738BOLB   C4D41712  -0.792  25.710   3.468 -0.0424 -0.0926  0.0883
 1739BOLB   NC141713   0.542  26.031  10.013  0.1390  0.0634  0.5127
 1739BOLB   PO141714   0.427  26.181   9.621  0.0682  0.0761 -0.0969
 1739BOLB   GL141715   0.314  26.569   9.420  0.1690 -0.1806  0.0353
 1739BOLB   GL241716   0.202  26.606   9.120  0.3181  0.2080  0.1814
 1739BOLB   C1A41717   0.228  26.958   9.640  0.3246 -0.3124 -0.1928
 1739BOLB   C2A41718   0.338  27.434   9.554  0.0885 -0.1568  0.1124
 1739BOLB   C3A41719   0.075  27.733   9.618  0.0287 -0.1857  0.0413
 1739BOLB   C4A41720  -0.405  27.715   9.504  0.0877 -0.2765  0.1724
 1739BOLB   C1B41721  -0.082  26.818   9.238 -0.0384 -0.2066 -0.1586
 1739BOLB   C2B41722  -0.177  27.251   9.554 -0.0746 -0.0842 -0.1909
 1739BOLB   C3B41723  -0.082  27.427   9.961  0.0837  0.4121 -0.1308
 1739BOLB   C4B41724  -0.130  27.791  10.192  0.4171  0.0620 -0.0105
 1739BOLB   NC241725  -2.415  28.355   7.909 -0.1636 -0.2717 -0.2060
 1739BOLB   PO241726  -2.432  28.423   8.368 -0.0457  0.0780 -0.1822
 1739BOLB   GL341727  -1.971  28.309   8.421  0.0564  0.1876 -0.0844
 1739BOLB   GL441728  -1.921  28.060   8.498 -0.2278  0.0873 -0.0441
 1739BOLB   C1C41729  -1.529  28.387   8.565 -0.1322  0.3253 -0.2883
 1739BOLB   C2C41730  -1.183  28.130   8.650 -0.0312  0.0551  0.2972
 1739BOLB   C3C41731  -1.031  27.817   8.861  0.2354  0.2692  0.1865
 1739BOLB   C4C41732  -0.770  27.709   9.158 -0.0295 -0.0237  0.2877
 1739BOLB   C1D41733  -1.618  27.863   8.222 -0.0292 -0.0819 -0.4038
 1739BOLB   C2D41734  -1.177  27.734   8.308 -0.2647  0.0617  0.0222
 1739BOLB   C3D41735  -0.935  27.313   8.504  0.1715  0.2655 -0.1475
 1739BOLB   C4D41736  -0.872  27.258   8.871  0.0081  0.2994 -0.1336
 1740BOLB   NC141737   9.135  17.978   3.333  0.1958 -0.0192 -0.0030
 1740BOLB   PO141738   9.483  18.191   3.031  0.1255  0.0957 -0.0204
 1740BOLB   GL141739   9.588  18.014   2.633  0.0664 -0.2612  0.3632
 1740BOLB   GL241740   9.501  18.152   2.282  0.1471  0.0050  0.1627
 1740BOLB   C1A41741   9.844  17.785   2.343 -0.2655  0.1813  0.0517
 1740BOLB   C2A41742   9.850  17.521   2.017  0.5510 -0.1730  0.1819
 1740BOLB   C3A41743   9.886  17.586   1.577 -0.0753  0.0083  0.2630
 1740BOLB   C4A41744   9.951  17.533   1.117 -0.0390 -0.3583 -0.1347
 1740BOLB   C1B41745   9.671  18.031   1.888 -0.1288  0.1047  0.1128
 1740BOLB   C2B41746   9.994  18.060   1.595  0.0046 -0.1735 -0.0653
 1740BOLB   C3B41747   9.853  18.071   1.238  0.0810  0.2763  0.1137
 1740BOLB   C4B41748  10.013  18.160   0.921 -0.3378 -0.0036 -0.3199
 1740BOLB   NC241749   9.803  16.672  -0.873  0.0095  0.1205  0.1491
 1740BOLB   PO241750   9.784  16.283  -0.627  0.0943 -0.0617  0.0290
 1740BOLB   GL341751   9.450  16.415  -0.342 -0.2521  0.4784 -0.0017
 1740BOLB   GL441752   9.330  16.691  -0.470  0.1507  0.0280  0.4571
 1740BOLB   C1C41753   9.448  16.660   0.057  0.3053  0.0083 -0.0112
 1740BOLB   C2C41754   9.603  16.780   0.307 -0.1162 -0.1420 -0.3238
 1740BOLB   C3C41755   9.911  17.182   0.380  0.1946  0.2651  0.0771
 1740BOLB   C4C41756   9.890  17.612   0.705 -0.0711 -0.2939 -0.1460
 1740BOLB   C1D41757   9.507  17.117  -0.333 -0.2781 -0.1225 -0.1578
 1740BOLB   C2D41758   9.807  17.005  -0.122  0.1514 -0.0569  0.1244
 1740BOLB   C3D41759  10.119  16.776   0.050  0.0182  0.0099 -0.2362
 1740BOLB   C4D41760  10.332  16.407   0.127  0.0258 -0.0479  0.2575
 1741BOLB   NC141761   8.406  14.190  13.522 -0.1138 -0.0105  0.4003
 1741BOLB   PO141762   7.936  14.251  13.454  0.1348 -0.3016  0.0808
 1741BOLB   GL141763   7.950  13.899  13.768  0.0099  0.0167 -0.2373
 1741BOLB   GL241764   7.635  13.777  13.828  0.1356  0.0033  0.0588
 1741BOLB   C1A41765   8.282  13.513  13.771 -0.2421  0.1534  0.2195
 1741BOLB   C2A41766   8.234  13.091  13.486 -0.3128 -0.3010  0.0137
 1741BOLB   C3A41767   7.971  12.871  13.145 -0.2953 -0.1851  0.1535
 1741BOLB   C4A41768   7.779  12.531  13.210 -0.1262  0.1940 -0.1300
 1741BOLB   C1B41769   7.739  13.590  14.271 -0.0242  0.3398  0.0977
 1741BOLB   C2B41770   7.604  13.571  14.657  0.1413  0.0558  0.0599
 1741BOLB   C3B41771   7.337  13.329  14.985  0.0093 -0.0521  0.3146
 1741BOLB   C4B41772   6.861  13.118  14.855 -0.0334  0.2146 -0.0061
 1741BOLB   NC241773   7.700  10.070  14.636 -0.1747  0.0418  0.2179
 1741BOLB   PO241774   7.441  10.472  14.665 -0.0696  0.0354 -0.0743
 1741BOLB   GL341775   7.285  10.915  14.549  0.3244  0.1773 -0.0804
 1741BOLB   GL441776   7.677  11.022  14.542 -0.0947 -0.0196 -0.2664
 1741BOLB   C1C41777   7.116  11.253  14.284 -0.0976  0.0364  0.0009
 1741BOLB   C2C41778   7.034  11.631  14.056  0.2472 -0.2312 -0.0894
 1741BOLB   C3C41779   7.326  11.949  13.804 -0.0733  0.2220 -0.4690
 1741BOLB   C4C41780   7.552  12.328  13.633 -0.3601  0.0589  0.1001
 1741BOLB   C1D41781   7.570  11.310  14.257 -0.0668  0.2670 -0.2464
 1741BOLB   C2D41782   7.488  11.473  13.894 -0.0254 -0.1589  0.0904
 1741BOLB   C3D41783   7.488  11.549  13.445  0.3245  0.0574 -0.0856
 1741BOLB   C4D41784   7.646  11.963  13.304 -0.1524 -0.1102 -0.0606
 1742BOLB   NC141785   6.170  28.514   7.027 -0.2054  0.0082  0.3925
 1742BOLB   PO141786   5.947  28.087   6.767 -0.1560  0.4915 -0.2786
 1742BOLB   GL141787   5.855  28.426   6.575  0.0297 -0.0358 -0.2435
 1742BOLB   GL241788   6.170  28.687   6.573  0.0922 -0.0963 -0.1354
 1742BOLB   C1A41789   5.688  28.769   6.406  0.0229 -0.4746  0.0310
 1742BOLB   C2A41790   5.521  29.049   6.120 -0.1501 -0.0235  0.0400
 1742BOLB   C3A41791   5.418  29.400   5.808  0.0530  0.2937 -0.2008
 1742BOLB   C4A41792   5.381  29.446   5.455  0.1549  0.1850  0.1853
 1742BOLB   C1B41793   6.094  28.987   6.168 -0.3309 -0.3049  0.0837
 1742BOLB   C2B41794   5.877  29.175   5.801 -0.0026 -0.0046  0.1287
 1742BOLB   C3B41795   5.782  29.670   5.715  0.1378  0.1102 -0.0098
 1742BOLB   C4B41796   5.994  29.882   5.399  0.2344  0.2206 -0.0201
 1742BOLB   NC241797   4.195  31.137   3.406 -0.1300  0.2130  0.0240
 1742BOLB   PO241798   4.513  31.031   3.606 -0.0303  0.1458 -0.0053
 1742BOLB   GL341799   4.777  30.759   3.827 -0.0108 -0.0008 -0.0548
 1742BOLB   GL441800   4.554  30.593   4.085 -0.0294 -0.3810 -0.0432
 1742BOLB   C1C41801   5.097  30.448   3.974  0.2556 -0.0448  0.0719
 1742BOLB   C2C41802   5.159  30.173   4.426 -0.0573 -0.0612 -0.0873
 1742BOLB   C3C41803   5.162  29.928   4.730  0.0489  0.0066 -0.0633
 1742BOLB   C4C41804   5.280  29.501   4.897  0.0025 -0.3080 -0.1646
 1742BOLB   C1D41805   4.774  30.588   4.476 -0.1048 -0.1203 -0.1683
 1742BOLB   C2D41806   4.906  30.333   4.867 -0.0993 -0.3516  0.3492
 1742BOLB   C3D41807   4.730  29.957   5.116 -0.1316 -0.2394  0.1512
 1742BOLB   C4D41808   4.849  29.574   5.235  0.0668  0.1818 -0.0963
 1743BOLB   NC141809   9.986  22.611   3.735 -0.1218  0.0814  0.3913
 1743BOLB   PO141810  10.155  22.855   3.327  0.0577  0.1431  0.2242
 1743BOLB   GL141811  10.306  22.987   2.901 -0.0508  0.1412  0.2401
 1743BOLB   GL241812  10.068  23.213   2.940  0.3890 -0.1491 -0.0390
 1743BOLB   C1A41813  10.606  23.144   2.541  0.3681 -0.1436 -0.0623
 1743BOLB   C2A41814  10.694  22.803   2.229 -0.0932 -0.1678 -0.3223
 1743BOLB   C3A41815  10.898  22.861   1.826  0.1680 -0.1588  0.2116
 1743BOLB   C4A41816  10.835  23.099   1.406  0.1265  0.1990  0.0249
 1743BOLB   C1B41817  10.154  23.537   2.631  0.2424  0.3579 -0.0199
 1743BOLB   C2B41818  10.154  23.865   2.401  0.0965  0.2046  0.2429
 1743BOLB   C3B41819  10.482  24.052   2.315 -0.1491  0.0428 -0.1093
 1743BOLB   C4B41820  10.892  23.952   2.106 -0.1491 -0.3809 -0.0274
 1743BOLB   NC241821   9.964  24.527  -0.319  0.2798  0.0445  0.1664
 1743BOLB   PO241822   9.830  24.115  -0.285 -0.1094 -0.0857  0.1028
 1743BOLB   GL341823   9.808  23.908   0.051 -0.0824  0.1644  0.0617
 1743BOLB   GL441824  10.097  24.197   0.093 -0.0478 -0.2454  0.0570
 1743BOLB   C1C41825  10.216  23.674   0.069 -0.1450 -0.1192  0.1246
 1743BOLB   C2C41826  10.636  23.634   0.103  0.0157  0.1300  0.0403
 1743BOLB   C3C41827  10.734  23.549   0.538  0.1228  0.2831 -0.1658
 1743BOLB   C4C41828  10.807  23.320   0.959 -0.1883 -0.0609 -0.4941
 1743BOLB   C1D41829  10.447  24.125   0.335 -0.1292  0.1076  0.1288
 1743BOLB   C2D41830  10.852  24.065   0.485  0.0866 -0.2622  0.0872
 1743BOLB   C3D41831  11.060  23.819   0.744 -0.0198 -0.2221 -0.5428
 1743BOLB   C4D41832  11.507  23.800   0.701  0.1446  0.1349 -0.1714
 1744BOLB   NC141833  11.366  27.367  14.126  0.1132  0.1493  0.3857
 1744BOLB   PO141834  10.903  27.448  13.949  0.0455 -0.2752 -0.2446
 1744BOLB   GL141835  10.863  27.800  14.013 -0.2370  0.2349  0.0306
 1744BOLB   GL241836  10.727  27.888  13.753  0.2968 -0.1130  0.2765
 1744BOLB   C1A41837  10.934  28.286  14.097 -0.0534 -0.1431  0.0031
 1744BOLB   C2A41838  11.008  28.719  14.254  0.1136  0.0422  0.0077
 1744BOLB   C3A41839  11.203  29.092  14.428  0.0986 -0.0841  0.2171
 1744BOLB   C4A41840  11.414  29.346  14.589  0.1457  0.2008 -0.0585
 1744BOLB   C1B41841  10.861  28.269  13.571  0.3166  0.0339 -0.0229
 1744BOLB   C2B41842  11.066  28.606  13.741  0.0884 -0.0419 -0.2735
 1744BOLB   C3B41843  11.352  28.975  13.856  0.3207 -0.1550  0.1923
 1744BOLB   C4B41844  11.689  29.152  14.154  0.1226  0.1224  0.0855
 1744BOLB   NC241845  13.158  30.678  15.070 -0.0481 -0.2925 -0.2059
 1744BOLB   PO241846  13.221  30.275  14.827  0.0864  0.1903  0.0192
 1744BOLB   GL341847  12.868  30.198  15.037 -0.1759 -0.1096 -0.1407
 1744BOLB   GL441848  12.506  30.392  15.067 -0.0495  0.0932 -0.0973
 1744BOLB   C1C41849  12.467  29.863  15.136  0.2579 -0.2306 -0.0862
 1744BOLB   C2C41850  12.382  29.659  14.850  0.3334  0.0114 -0.4022
 1744BOLB   C3C41851  12.084  29.765  14.661  0.0059 -0.2567  0.1429
 1744BOLB   C4C41852  11.679  29.625  14.843 -0.0842 -0.0301  0.0616
 1744BOLB   C1D41853  12.148  30.169  15.019 -0.3537 -0.2172  0.2273
 1744BOLB   C2D41854  11.724  30.097  15.147  0.1322  0.0156  0.2570
 1744BOLB   C3D41855  11.342  30.291  15.214  0.3459 -0.3268 -0.1097
 1744BOLB   C4D41856  10.952  30.157  15.214 -0.0388  0.3881 -0.3997
 1745BOLB   NC141857  11.240  24.691  16.159  0.0064 -0.0452  0.1874
 1745BOLB   PO141858  10.950  24.815  16.420  0.0109 -0.0875  0.2668
 1745BOLB   GL141859  11.256  24.878  16.723  0.0301 -0.2209 -0.2281
 1745BOLB   GL241860  11.256  24.746  17.043 -0.2264 -0.1051 -0.0259
 1745BOLB   C1A41861  11.544  25.190  17.084  0.1985  0.0327  0.1752
 1745BOLB   C2A41862  11.757  25.614  17.237 -0.0107  0.1427  0.1109
 1745BOLB   C3A41863  12.006  25.881  17.537  0.0004 -0.1553 -0.0245
 1745BOLB   C4A41864  11.932  26.223  17.631  0.1303  0.4018 -0.0389
 1745BOLB   C1B41865  11.594  24.747  17.290  0.1459  0.1057  0.2178
 1745BOLB   C2B41866  11.662  24.687  17.720 -0.0522 -0.0389  0.0334
 1745BOLB   C3B41867  11.769  25.043  17.988  0.2782  0.0562 -0.1921
 1745BOLB   C4B41868  12.188  25.201  18.165  0.0319 -0.3036  0.3300
 1745BOLB   NC241869  12.225  26.524  20.275 -0.1034  0.3046  0.4236
 1745BOLB   PO241870  12.554  26.772  20.006 -0.2300  0.1850  0.1688
 1745BOLB   GL341871  12.426  26.613  19.534 -0.0030  0.2444  0.0515
 1745BOLB   GL441872  12.321  26.855  19.467 -0.2471  0.0505 -0.2164
 1745BOLB   C1C41873  12.451  26.329  19.220  0.0799 -0.1867  0.1997
 1745BOLB   C2C41874  12.161  26.440  18.765  0.1686  0.0917 -0.1700
 1745BOLB   C3C41875  11.971  26.297  18.432 -0.1591 -0.0555  0.1405
 1745BOLB   C4C41876  11.916  26.305  18.013 -0.2859  0.0638  0.1671
 1745BOLB   C1D41877  12.027  26.627  19.217 -0.1468 -0.0623  0.1458
 1745BOLB   C2D41878  11.631  26.666  19.141  0.0892  0.0185 -0.1266
 1745BOLB   C3D41879  11.137  26.488  19.087 -0.1443 -0.2828 -0.1820
 1745BOLB   C4D41880  10.676  26.401  19.138  0.0234 -0.2779  0.0990
 1746BOLB   NC141881   6.738  28.331   7.754 -0.0032 -0.1099 -0.0575
 1746BOLB   PO141882   6.346  28.471   7.615 -0.0251 -0.1005  0.2724
 1746BOLB   GL141883   6.226  28.919   7.575 -0.3935 -0.1279 -0.1197
 1746BOLB   GL241884   5.987  28.974   7.664  0.1992 -0.1242 -0.1896
 1746BOLB   C1A41885   6.229  29.310   7.233 -0.1542  0.0223  0.5610
 1746BOLB   C2A41886   5.978  29.619   6.935  0.3277 -0.0986 -0.1064
 1746BOLB   C3A41887   5.843  29.866   6.597  0.3583  0.0324 -0.2275
 1746BOLB   C4A41888   5.994  29.905   6.163 -0.1546 -0.1160 -0.1754
 1746BOLB   C1B41889   5.796  29.309   7.530 -0.2371 -0.1830 -0.1173
 1746BOLB   C2B41890   5.985  29.694   7.465 -0.0783  0.0104  0.1940
 1746BOLB   C3B41891   6.329  29.903   7.213 -0.1612 -0.0029  0.1694
 1746BOLB   C4B41892   6.483  29.964   6.884  0.0392 -0.3502  0.0040
 1746BOLB   NC241893   6.781  32.348   5.488  0.1105 -0.4869 -0.3086
 1746BOLB   PO241894   6.492  32.149   5.584 -0.0004 -0.2848  0.1469
 1746BOLB   GL341895   6.312  31.910   5.849  0.1557  0.0616 -0.0549
 1746BOLB   GL441896   5.927  31.942   5.812 -0.2050  0.0287 -0.1227
 1746BOLB   C1C41897   6.249  31.416   6.028 -0.2142 -0.1459  0.0829
 1746BOLB   C2C41898   6.314  31.050   6.062  0.1749  0.1457  0.0838
 1746BOLB   C3C41899   6.389  30.608   6.018 -0.1570  0.1151 -0.3698
 1746BOLB   C4C41900   6.145  30.267   5.959 -0.0816  0.0859 -0.0958
 1746BOLB   C1D41901   5.811  31.529   5.830 -0.5305  0.3843  0.1460
 1746BOLB   C2D41902   5.830  31.175   6.133  0.5249  0.3617  0.0060
 1746BOLB   C3D41903   5.976  30.699   6.248 -0.0459 -0.2023  0.0844
 1746BOLB   C4D41904   6.127  30.349   6.498 -0.0940 -0.1459  0.0820
 1747BOLB   NC141905   5.247  26.304  16.856 -0.2595 -0.0479  0.2070
 1747BOLB   PO141906   4.839  26.087  16.808 -0.0656 -0.1110 -0.0856
 1747BOLB   GL141907   4.672  26.327  17.086  0.3573 -0.0589  0.4771
 1747BOLB   GL241908   4.928  26.306  17.305 -0.0591 -0.0105  0.2084
 1747BOLB   C1A41909   4.289  26.511  17.183  0.0629 -0.1506  0.0468
 1747BOLB   C2A41910   3.973  26.907  17.280 -0.0880  0.2355  0.4583
 1747BOLB   C3A41911   3.766  27.172  17.502  0.0415 -0.0363 -0.1031
 1747BOLB   C4A41912   3.782  27.539  17.646 -0.0482  0.0749  0.2906
 1747BOLB   C1B41913   4.657  26.328  17.621  0.3739  0.0656  0.4169
 1747BOLB   C2B41914   4.403  26.383  18.013 -0.3082 -0.1718 -0.3750
 1747BOLB   C3B41915   4.140  26.402  18.121 -0.0325 -0.4502 -0.0483
 1747BOLB   C4B41916   3.739  26.481  18.112  0.0854  0.0598 -0.2001
 1747BOLB   NC241917   2.890  28.754  19.189 -0.1577 -0.1999  0.1003
 1747BOLB   PO241918   3.083  28.614  19.622  0.0761  0.1716 -0.2148
 1747BOLB   GL341919   3.351  28.374  19.300  0.3874  0.1164  0.5370
 1747BOLB   GL441920   3.357  28.147  19.233 -0.0987 -0.2597  0.0428
 1747BOLB   C1C41921   3.661  28.467  18.893  0.4558  0.1709  0.1083
 1747BOLB   C2C41922   3.807  28.249  18.584  0.1919  0.4194  0.1136
 1747BOLB   C3C41923   3.960  28.007  18.171  0.1182 -0.2568 -0.0818
 1747BOLB   C4C41924   4.076  27.835  17.837 -0.0917  0.0304  0.1592
 1747BOLB   C1D41925   3.490  27.921  18.874 -0.1368 -0.2243 -0.1416
 1747BOLB   C2D41926   3.628  27.796  18.531  0.0634  0.1449  0.2310
 1747BOLB   C3D41927   3.915  27.497  18.238  0.1210 -0.2545  0.0294
 1747BOLB   C4D41928   4.197  27.300  17.891  0.3881 -0.0342 -0.8062
 1748BOLB   NC141929   3.459  26.520   6.477  0.2240  0.0879  0.2612
 1748BOLB   PO141930   3.035  26.554   6.445  0.0178  0.1128  0.1271
 1748BOLB   GL141931   2.974  26.974   6.349 -0.3417  0.3341  0.3804
 1748BOLB   GL241932   2.810  27.108   6.595  0.4039  0.1439 -0.1018
 1748BOLB   C1A41933   2.908  27.369   6.228 -0.2073 -0.1783  0.3571
 1748BOLB   C2A41934   2.720  27.759   6.103  0.1403 -0.3346  0.2569
 1748BOLB   C3A41935   2.406  27.969   5.917  0.0163  0.0407  0.0096
 1748BOLB   C4A41936   2.110  27.999   5.587  0.0051  0.0709 -0.0264
 1748BOLB   C1B41937   2.421  27.361   6.380 -0.1616  0.3045 -0.2429
 1748BOLB   C2B41938   2.283  27.774   6.356  0.2661  0.0123  0.1358
 1748BOLB   C3B41939   2.215  28.161   6.377  0.1647 -0.0727  0.3859
 1748BOLB   C4B41940   2.241  28.585   6.413 -0.1886 -0.1577 -0.1412
 1748BOLB   NC241941   0.927  29.508   4.134 -0.0119 -0.0776 -0.3250
 1748BOLB   PO241942   0.900  29.383   3.584  0.0548  0.1281  0.0654
 1748BOLB   GL341943   1.084  29.011   3.815  0.1309  0.0383 -0.0093
 1748BOLB   GL441944   1.177  28.836   3.555  0.0604  0.1506 -0.3042
 1748BOLB   C1C41945   1.144  28.770   4.269  0.0548  0.1881  0.1237
 1748BOLB   C2C41946   1.293  28.523   4.623 -0.1668  0.2299  0.0564
 1748BOLB   C3C41947   1.641  28.292   4.905 -0.0729 -0.4985 -0.1295
 1748BOLB   C4C41948   1.687  28.182   5.361 -0.0448 -0.1465 -0.0113
 1748BOLB   C1D41949   1.263  28.476   3.826 -0.4689 -0.0813  0.1831
 1748BOLB   C2D41950   1.366  28.297   4.120 -0.2912  0.0237  0.1923
 1748BOLB   C3D41951   1.609  27.986   4.380  0.0597 -0.1509  0.0220
 1748BOLB   C4D41952   1.807  27.596   4.514 -0.1707  0.1891  0.0983
 1749BOLB   NC141953   7.513  15.239   3.541  0.1755  0.0841  0.2249
 1749BOLB   PO141954   7.661  15.295   3.932 -0.1494 -0.0920  0.2183
 1749BOLB   GL141955   7.837  14.954   3.725 -0.3747 -0.0222 -0.0267
 1749BOLB   GL241956   7.938  14.720   3.927  0.0850  0.3716  0.0209
 1749BOLB   C1A41957   8.138  14.796   3.453  0.1893 -0.1053 -0.1458
 1749BOLB   C2A41958   8.537  14.503   3.135 -0.1476 -0.0308 -0.2190
 1749BOLB   C3A41959   8.806  14.291   2.764 -0.3734  0.2904  0.0874
 1749BOLB   C4A41960   9.209  14.096   2.640  0.1751  0.0982 -0.0726
 1749BOLB   C1B41961   8.307  14.460   4.002  0.2293 -0.1719  0.3177
 1749BOLB   C2B41962   8.719  14.336   3.780 -0.0570 -0.0867  0.0749
 1749BOLB   C3B41963   8.851  13.981   3.550  0.0296  0.0475  0.2716
 1749BOLB   C4B41964   9.225  14.012   3.335  0.4037 -0.1266  0.0998
 1749BOLB   NC241965  10.096  13.503   0.475 -0.0637 -0.0679  0.1873
 1749BOLB   PO241966  10.162  13.214   0.815 -0.0271  0.0328 -0.1164
 1749BOLB   GL341967   9.991  13.451   1.133 -0.0672  0.0217 -0.0125
 1749BOLB   GL441968  10.116  13.304   1.404  0.1650 -0.0097 -0.0437
 1749BOLB   C1C41969   9.926  13.919   1.312 -0.0035 -0.1669  0.4536
 1749BOLB   C2C41970   9.886  14.301   1.713  0.0830  0.2934  0.2787
 1749BOLB   C3C41971   9.807  14.287   2.183  0.2310  0.0536  0.2854
 1749BOLB   C4C41972   9.664  14.043   2.537  0.1744 -0.2406 -0.1760
 1749BOLB   C1D41973  10.030  13.590   1.729 -0.2305  0.2911  0.0431
 1749BOLB   C2D41974  10.119  13.938   1.985  0.0748 -0.0744 -0.0448
 1749BOLB   C3D41975  10.175  14.034   2.428  0.3506 -0.0082 -0.3557
 1749BOLB   C4D41976   9.983  14.153   2.903 -0.0797  0.2805  0.1120
 1750BOLB   NC141977   0.277  24.259   6.406 -0.2619 -0.2345  0.3400
 1750BOLB   PO141978   0.421  24.678   6.227 -0.0593  0.2489  0.0748
 1750BOLB   GL141979   0.172  25.115   6.054 -0.0291  0.1026 -0.3092
 1750BOLB   GL241980   0.079  25.209   6.352 -0.1136 -0.2331  0.1063
 1750BOLB   C1A41981  -0.193  25.398   5.953 -0.3466 -0.1759 -0.1372
 1750BOLB   C2A41982  -0.714  25.466   6.067 -0.1711  0.0236 -0.1441
 1750BOLB   C3A41983  -1.024  25.633   6.138  0.3799 -0.3933 -0.1249
 1750BOLB   C4A41984  -1.369  25.959   6.155  0.3812  0.1727 -0.1421
 1750BOLB   C1B41985  -0.333  25.376   6.454 -0.2190 -0.0955  0.0932
 1750BOLB   C2B41986  -0.747  25.440   6.541  0.0981  0.0328 -0.1630
 1750BOLB   C3B41987  -1.057  25.350   6.546  0.0653 -0.0349 -0.0223
 1750BOLB   C4B41988  -1.445  25.274   6.374 -0.0791 -0.4721  0.1434
 1750BOLB   NC241989  -2.923  27.589   5.053 -0.2403  0.0292  0.0755
 1750BOLB   PO241990  -2.925  27.164   5.092  0.0938  0.2115  0.0028
 1750BOLB   GL341991  -2.871  26.718   5.099  0.3543  0.3250  0.0365
 1750BOLB   GL441992  -3.133  26.517   5.045 -0.0308 -0.2488  0.1708
 1750BOLB   C1C41993  -2.603  26.534   5.389  0.1109  0.0138 -0.3221
 1750BOLB   C2C41994  -2.467  26.283   5.679 -0.1111 -0.2439  0.3853
 1750BOLB   C3C41995  -2.155  26.081   5.818  0.0185  0.0594 -0.0699
 1750BOLB   C4C41996  -1.812  26.003   6.144  0.2725 -0.1829  0.4573
 1750BOLB   C1D41997  -2.894  26.174   5.238  0.0425 -0.0002 -0.1959
 1750BOLB   C2D41998  -2.899  25.766   5.082 -0.2534  0.0343  0.1344
 1750BOLB   C3D41999  -3.341  25.607   5.006  0.2355  0.1384  0.2614
 1750BOLB   C4D42000  -3.664  25.832   5.151  0.1719 -0.1666  0.1288
 1751BOLB   NC142001   9.293  22.298  18.045  0.0058  0.1495  0.5115
 1751BOLB   PO142002   9.605  21.986  17.852  0.1335 -0.0376 -0.1254
 1751BOLB   GL142003   9.566  22.031  18.357 -0.0933  0.0189 -0.0927
 1751BOLB   GL242004   9.784  22.094  18.647 -0.2350 -0.3424  0.2688
 1751BOLB   C1A42005   9.421  21.876  18.867  0.0215 -0.0631  0.2245
 1751BOLB   C2A42006   9.424  21.916  19.299 -0.3348  0.1166  0.0219
 1751BOLB   C3A42007   9.851  21.876  19.583  0.1152  0.1192  0.3372
 1751BOLB   C4A42008   9.938  22.127  19.905  0.2228 -0.0087  0.1091
 1751BOLB   C1B42009  10.041  22.054  19.112  0.0099  0.4227  0.1645
 1751BOLB   C2B42010  10.124  22.329  19.401  0.2600 -0.0973  0.0514
 1751BOLB   C3B42011  10.300  22.510  19.736 -0.0373 -0.1875 -0.1092
 1751BOLB   C4B42012  10.238  22.695  20.207 -0.0653  0.3140 -0.1733
 1751BOLB   NC242013   9.825  21.998  22.308 -0.3421  0.0563 -0.1995
 1751BOLB   PO242014   9.486  21.687  22.133  0.0261 -0.4207 -0.0300
 1751BOLB   GL342015   9.342  21.701  21.834  0.1246 -0.3905 -0.0469
 1751BOLB   GL442016   9.084  21.631  21.754  0.0992 -0.2727 -0.0272
 1751BOLB   C1C42017   9.515  21.972  21.479  0.3588  0.0421 -0.0127
 1751BOLB   C2C42018   9.627  21.892  21.032  0.2278  0.0551  0.1664
 1751BOLB   C3C42019   9.853  22.102  20.643 -0.2112  0.3805 -0.0339
 1751BOLB   C4C42020  10.062  22.139  20.382  0.1236 -0.0173 -0.0083
 1751BOLB   C1D42021   9.084  21.814  21.265 -0.5811  0.0145  0.0796
 1751BOLB   C2D42022   9.203  21.835  20.842  0.4806  0.4202 -0.0366
 1751BOLB   C3D42023   9.494  21.786  20.560 -0.0919  0.0951 -0.2052
 1751BOLB   C4D42024   9.629  21.652  20.235 -0.0902  0.1733  0.0762
 1752BOLB   NC142025   7.734  14.315   6.073  0.1266 -0.0660  0.2660
 1752BOLB   PO142026   7.698  13.915   6.053 -0.0590 -0.0165 -0.1174
 1752BOLB   GL142027   7.928  13.661   5.750 -0.0060 -0.2061 -0.2005
 1752BOLB   GL242028   8.270  13.681   5.525 -0.3345 -0.1736  0.1636
 1752BOLB   C1A42029   8.216  13.206   5.650  0.0009  0.1015  0.1218
 1752BOLB   C2A42030   8.527  12.898   5.628 -0.0269 -0.0838 -0.3381
 1752BOLB   C3A42031   8.739  12.640   5.357 -0.0417 -0.0213  0.0569
 1752BOLB   C4A42032   9.055  12.298   5.524 -0.4866  0.3472 -0.1745
 1752BOLB   C1B42033   8.486  13.390   5.278  0.1337 -0.1878 -0.0796
 1752BOLB   C2B42034   8.514  13.094   5.038  0.3229  0.1891  0.2006
 1752BOLB   C3B42035   8.385  13.015   4.743 -0.2352 -0.0579  0.1143
 1752BOLB   C4B42036   8.436  12.745   4.522 -0.0281  0.2528 -0.3681
 1752BOLB   NC242037  10.498  10.772   3.961 -0.0959 -0.0032  0.0253
 1752BOLB   PO242038  10.817  10.985   4.222  0.3520 -0.1113 -0.1511
 1752BOLB   GL342039  10.477  11.211   4.303  0.1348 -0.1633 -0.3437
 1752BOLB   GL442040  10.707  11.478   4.270 -0.0150  0.3200 -0.1045
 1752BOLB   C1C42041  10.209  11.497   4.629 -0.5686  0.1044  0.0470
 1752BOLB   C2C42042   9.935  11.610   4.886  0.3375 -0.0747 -0.1688
 1752BOLB   C3C42043   9.556  11.772   5.112  0.1304  0.3815  0.2403
 1752BOLB   C4C42044   9.248  11.953   5.312  0.3601 -0.1035  0.0696
 1752BOLB   C1D42045  10.549  11.660   3.919 -0.1677  0.2126  0.0703
 1752BOLB   C2D42046  10.424  12.061   3.679  0.0094  0.0433 -0.0850
 1752BOLB   C3D42047  10.196  12.388   3.668  0.1188 -0.2249 -0.1455
 1752BOLB   C4D42048  10.307  12.871   3.686  0.1084 -0.0712  0.3367
 1753BOLB   NC142049   4.928  16.838   4.040  0.2313  0.0622  0.1776
 1753BOLB   PO142050   4.768  16.825   3.597  0.0038  0.0031 -0.0774
 1753BOLB   GL142051   4.580  16.638   3.184  0.0883  0.2727 -0.0456
 1753BOLB   GL242052   4.755  16.319   3.035  0.0352 -0.1199 -0.2150
 1753BOLB   C1A42053   4.371  16.438   2.757 -0.1374 -0.2495 -0.1142
 1753BOLB   C2A42054   4.452  16.240   2.371 -0.0587 -0.2649 -0.0012
 1753BOLB   C3A42055   4.732  15.945   2.221 -0.1233 -0.1421 -0.0781
 1753BOLB   C4A42056   5.003  15.770   1.903 -0.0603 -0.1801  0.1915
 1753BOLB   C1B42057   4.764  15.953   2.719 -0.3510 -0.1084  0.2209
 1753BOLB   C2B42058   5.067  15.605   2.481  0.1330 -0.0616  0.0893
 1753BOLB   C3B42059   4.903  15.308   2.332 -0.0516 -0.2979 -0.0876
 1753BOLB   C4B42060   4.667  14.944   2.246 -0.1844  0.0895  0.0001
 1753BOLB   NC242061   5.007  14.790  -0.382  0.2376 -0.0081 -0.0531
 1753BOLB   PO242062   4.921  15.241  -0.440  0.2479 -0.4003  0.2043
 1753BOLB   GL342063   5.083  15.158  -0.012  0.3526  0.1891  0.0085
 1753BOLB   GL442064   5.500  15.265  -0.030  0.1726  0.1013  0.2522
 1753BOLB   C1C42065   5.196  15.301   0.457 -0.0601 -0.2779 -0.3080
 1753BOLB   C2C42066   5.162  15.158   0.847 -0.0821 -0.1013 -0.0404
 1753BOLB   C3C42067   5.284  15.300   1.228  0.0250 -0.0846  0.4070
 1753BOLB   C4C42068   5.268  15.452   1.660  0.1713 -0.0662  0.0684
 1753BOLB   C1D42069   5.699  15.282   0.373  0.2311  0.0541 -0.1243
 1753BOLB   C2D42070   5.619  15.077   0.806 -0.0471 -0.0857  0.2119
 1753BOLB   C3D42071   5.874  15.116   1.092 -0.1813  0.1209  0.0084
 1753BOLB   C4D42072   6.029  14.791   1.386 -0.0032 -0.1282 -0.1589
 1754BOLB   NC142073   8.344  18.933  18.104 -0.1060  0.2003 -0.2119
 1754BOLB   PO142074   8.791  18.780  18.021  0.0143  0.0603 -0.2993
 1754BOLB   GL142075   8.577  18.634  18.433 -0.1384  0.1723  0.1354
 1754BOLB   GL242076   8.456  18.368  18.505  0.0734 -0.1535 -0.2739
 1754BOLB   C1A42077   8.452  18.902  18.703 -0.2221  0.5983  0.3052
 1754BOLB   C2A42078   8.347  18.739  19.086  0.0498  0.1778  0.2174
 1754BOLB   C3A42079   8.204  18.766  19.463  0.2248 -0.1538 -0.2769
 1754BOLB   C4A42080   8.133  18.570  19.949  0.1351  0.1834 -0.0932
 1754BOLB   C1B42081   8.506  18.320  18.931 -0.1452 -0.4543 -0.0690
 1754BOLB   C2B42082   8.529  18.382  19.437 -0.4006  0.0188 -0.1898
 1754BOLB   C3B42083   8.608  18.456  19.867 -0.0891  0.1933  0.2198
 1754BOLB   C4B42084   8.588  18.365  20.280  0.3027  0.2307  0.1550
 1754BOLB   NC242085   8.146  18.224  22.499 -0.3860 -0.2065  0.2402
 1754BOLB   PO242086   8.444  18.457  22.300 -0.1852 -0.2492 -0.0494
 1754BOLB   GL342087   8.216  18.332  21.932  0.2492  0.0384  0.0824
 1754BOLB   GL442088   8.361  18.565  21.757 -0.0504 -0.1632 -0.1247
 1754BOLB   C1C42089   8.030  18.211  21.564  0.2157 -0.1569 -0.2298
 1754BOLB   C2C42090   8.109  18.205  21.177  0.1803 -0.2246 -0.3655
 1754BOLB   C3C42091   8.114  18.206  20.750  0.1234  0.0080  0.0912
 1754BOLB   C4C42092   8.117  18.393  20.376  0.2266 -0.0233  0.1247
 1754BOLB   C1D42093   8.100  18.669  21.330 -0.1788 -0.0434 -0.0534
 1754BOLB   C2D42094   8.232  18.738  20.844  0.2379 -0.1099  0.1216
 1754BOLB   C3D42095   8.160  18.878  20.432 -0.1135  0.0571  0.2939
 1754BOLB   C4D42096   8.081  19.109  20.058 -0.3446  0.0785  0.0824
 1755BOLB   NC142097   0.864  22.865   4.705  0.1689  0.2108 -0.0630
 1755BOLB   PO142098   0.566  22.830   5.006  0.1136 -0.3190  0.0136
 1755BOLB   GL142099   0.335  23.140   4.835 -0.2886 -0.0425 -0.1869
 1755BOLB   GL242100   0.277  23.400   4.864  0.0933  0.1924 -0.1137
 1755BOLB   C1A42101   0.135  23.168   4.435 -0.1436 -0.0415 -0.0499
 1755BOLB   C2A42102  -0.092  23.172   4.069  0.0358  0.0667 -0.1135
 1755BOLB   C3A42103  -0.364  23.282   3.823  0.2928 -0.1914  0.0391
 1755BOLB   C4A42104  -0.654  23.500   3.598 -0.0468  0.0043  0.0001
 1755BOLB   C1B42105  -0.023  23.584   4.719  0.0220 -0.0157 -0.1107
 1755BOLB   C2B42106  -0.480  23.709   4.592 -0.2003 -0.0005 -0.0942
 1755BOLB   C3B42107  -0.899  23.654   4.574 -0.0617  0.0203  0.1785
 1755BOLB   C4B42108  -1.252  23.783   4.392  0.0986 -0.0507 -0.0772
 1755BOLB   NC242109  -0.585  24.046   0.529 -0.2196  0.3065 -0.2127
 1755BOLB   PO242110  -0.876  24.015   0.955  0.1368 -0.1274 -0.0048
 1755BOLB   GL342111  -0.906  24.035   1.475 -0.2708  0.0247  0.1833
 1755BOLB   GL442112  -0.851  24.317   1.759  0.2362  0.0399  0.4078
 1755BOLB   C1C42113  -1.199  24.009   1.963 -0.0342  0.0347 -0.0377
 1755BOLB   C2C42114  -1.070  23.976   2.421  0.1733 -0.0651 -0.0308
 1755BOLB   C3C42115  -0.872  23.810   2.693  0.2698  0.1817 -0.1551
 1755BOLB   C4C42116  -0.800  23.655   3.180  0.0047 -0.1714  0.1353
 1755BOLB   C1D42117  -0.531  24.012   1.876 -0.1102  0.0300 -0.3378
 1755BOLB   C2D42118  -0.464  23.720   2.292 -0.4616 -0.0456  0.0887
 1755BOLB   C3D42119  -0.371  23.799   2.780  0.2112  0.1258 -0.0556
 1755BOLB   C4D42120  -0.303  23.785   3.273 -0.0078 -0.1154 -0.1629
 1756BOLB   NC142121   2.150  26.828  14.549 -0.1332 -0.1235 -0.0529
 1756BOLB   PO142122   1.850  26.694  14.172  0.1365 -0.0003  0.1156
 1756BOLB   GL142123   1.839  27.127  14.325  0.0817  0.0774 -0.0635
 1756BOLB   GL242124   1.708  27.056  14.640 -0.1235 -0.0666  0.0405
 1756BOLB   C1A42125   1.743  27.519  14.332 -0.0545  0.0694 -0.0503
 1756BOLB   C2A42126   1.512  27.901  14.599 -0.4354  0.2924  0.3884
 1756BOLB   C3A42127   1.154  28.087  14.663  0.0634 -0.0913  0.0787
 1756BOLB   C4A42128   0.982  28.295  15.014 -0.2103  0.0645  0.1156
 1756BOLB   C1B42129   1.521  26.949  14.893  0.4324 -0.1436 -0.0114
 1756BOLB   C2B42130   1.249  27.038  15.210  0.1783  0.0498  0.0305
 1756BOLB   C3B42131   1.045  26.907  15.641 -0.2264  0.0488  0.1870
 1756BOLB   C4B42132   1.155  26.786  15.997 -0.0139 -0.2060 -0.0473
 1756BOLB   NC242133  -0.028  28.996  17.224 -0.0818 -0.4125 -0.1199
 1756BOLB   PO242134  -0.290  29.103  16.870  0.4225  0.1087  0.1959
 1756BOLB   GL342135  -0.116  28.957  16.562 -0.1829 -0.0120  0.0031
 1756BOLB   GL442136  -0.259  29.001  16.174  0.0186 -0.0643 -0.1356
 1756BOLB   C1C42137   0.123  28.621  16.415 -0.0751  0.0148  0.1531
 1756BOLB   C2C42138   0.223  28.363  15.993  0.1286  0.4985  0.1994
 1756BOLB   C3C42139   0.530  28.368  15.768 -0.0828  0.0495  0.0892
 1756BOLB   C4C42140   0.782  28.295  15.415 -0.1063 -0.0864  0.0139
 1756BOLB   C1D42141  -0.066  28.816  16.049  0.0619  0.1133  0.0419
 1756BOLB   C2D42142   0.429  28.830  15.998  0.0850  0.1216 -0.2408
 1756BOLB   C3D42143   0.882  28.741  15.944 -0.2490 -0.1091 -0.1413
 1756BOLB   C4D42144   1.071  28.348  15.773 -0.0028  0.0216 -0.1257
 1757BOLB   NC142145   8.841  26.992   6.399 -0.1388 -0.0531 -0.2251
 1757BOLB   PO142146   8.830  26.589   6.055 -0.0958  0.0767 -0.2126
 1757BOLB   GL142147   8.838  27.079   5.905 -0.3688  0.0548  0.1514
 1757BOLB   GL242148   8.791  27.269   5.646 -0.1161 -0.1754 -0.0119
 1757BOLB   C1A42149   9.077  27.623   5.741 -0.2902  0.0646  0.0607
 1757BOLB   C2A42150   9.178  27.960   5.386  0.2124 -0.1622  0.0137
 1757BOLB   C3A42151   9.052  28.155   4.919  0.0937 -0.3202  0.0302
 1757BOLB   C4A42152   9.270  28.464   4.580  0.2280  0.0102  0.0365
 1757BOLB   C1B42153   8.730  27.531   5.279  0.0285  0.3701  0.0887
 1757BOLB   C2B42154   8.646  27.817   4.981 -0.3606 -0.3034 -0.0694
 1757BOLB   C3B42155   8.447  27.717   4.563  0.0769  0.1010  0.1178
 1757BOLB   C4B42156   8.171  27.740   4.199  0.2386  0.2802  0.1811
 1757BOLB   NC242157  10.627  30.061   3.130 -0.1169  0.2229  0.0731
 1757BOLB   PO242158  10.551  30.227   3.580 -0.1758  0.1993 -0.0071
 1757BOLB   GL342159  10.610  29.868   3.948 -0.0765 -0.0542  0.0128
 1757BOLB   GL442160  10.888  29.750   4.158 -0.2698  0.3123  0.0645
 1757BOLB   C1C42161  10.512  29.425   3.984  0.0682 -0.0595  0.1810
 1757BOLB   C2C42162  10.319  29.170   4.179 -0.1584 -0.0404 -0.5493
 1757BOLB   C3C42163   9.832  29.154   4.367  0.0924  0.1168 -0.2155
 1757BOLB   C4C42164   9.555  28.817   4.550  0.1146  0.1290 -0.0414
 1757BOLB   C1D42165  10.873  29.914   4.540 -0.1597 -0.0481  0.1165
 1757BOLB   C2D42166  10.902  29.929   4.951 -0.0628  0.3697 -0.1163
 1757BOLB   C3D42167  10.756  29.790   5.354  0.0665 -0.0074 -0.1040
 1757BOLB   C4D42168  11.055  29.554   5.639  0.0744  0.0741 -0.0235
 1758BOLB   NC142169  38.214  23.459   6.609  0.2606  0.0273  0.1819
 1758BOLB   PO142170  37.926  23.729   6.892 -0.1467 -0.0908 -0.0657
 1758BOLB   GL142171  37.782  23.842   6.532  0.0730 -0.0597 -0.0437
 1758BOLB   GL242172  37.450  23.786   6.613 -0.1035  0.0358 -0.2611
 1758BOLB   C1A42173  37.578  24.085   6.229 -0.0076  0.0935 -0.1390
 1758BOLB   C2A42174  37.397  24.270   5.860 -0.0325 -0.0811  0.0617
 1758BOLB   C3A42175  37.090  24.358   5.522  0.0585 -0.1915  0.2305
 1758BOLB   C4A42176  36.899  24.642   5.157 -0.0019 -0.0817 -0.1781
 1758BOLB   C1B42177  37.117  24.020   6.470 -0.1048  0.4917  0.2493
 1758BOLB   C2B42178  36.838  24.339   6.599 -0.4194  0.0102 -0.1632
 1758BOLB   C3B42179  36.539  24.508   6.582  0.0808  0.0887 -0.0832
 1758BOLB   C4B42180  36.098  24.650   6.609  0.0929  0.1167  0.0106
 1758BOLB   NC242181  35.315  26.055   3.387 -0.1969  0.2580  0.1641
 1758BOLB   PO242182  35.425  25.719   3.520 -0.0972 -0.1512  0.0761
 1758BOLB   GL342183  35.618  25.553   3.875 -0.2290 -0.0336  0.0697
 1758BOLB   GL442184  35.625  25.285   3.860  0.3266  0.0140  0.4117
 1758BOLB   C1C42185  35.858  25.448   4.224  0.2234 -0.0813 -0.0779
 1758BOLB   C2C42186  36.227  25.463   4.555 -0.1435 -0.1826  0.0585
 1758BOLB   C3C42187  36.621  25.294   4.625  0.0098  0.0535 -0.0540
 1758BOLB   C4C42188  36.628  24.967   4.925  0.3494 -0.1449  0.1373
 1758BOLB   C1D42189  35.992  25.245   3.621  0.1997  0.1791  0.1585
 1758BOLB   C2D42190  36.428  25.401   3.555 -0.1203 -0.2982 -0.1649
 1758BOLB   C3D42191  36.738  25.428   3.880 -0.1869 -0.1690 -0.0481
 1758BOLB   C4D42192  37.139  25.196   4.003  0.1926  0.2524  0.0215
 1759BOLB   NC142193  10.496  28.019   9.145 -0.0646  0.2845  0.2375
 1759BOLB   PO142194  10.389  27.976   9.654 -0.0273  0.2408 -0.1403
 1759BOLB   GL142195  10.672  28.290   9.537 -0.0246 -0.0114 -0.0416
 1759BOLB   GL242196  11.044  28.204   9.583 -0.0089  0.0277  0.0779
 1759BOLB   C1A42197  10.912  28.734   9.702 -0.0426 -0.1210  0.2599
 1759BOLB   C2A42198  11.155  29.074   9.586 -0.3544 -0.2005 -0.0068
 1759BOLB   C3A42199  11.232  29.491   9.654 -0.0255  0.0526 -0.0653
 1759BOLB   C4A42200  11.377  29.938   9.535  0.1680 -0.1304 -0.2151
 1759BOLB   C1B42201  11.309  28.451   9.667  0.1664 -0.1315  0.1106
 1759BOLB   C2B42202  11.541  28.846   9.836 -0.3192  0.0182  0.0205
 1759BOLB   C3B42203  11.648  29.270   9.693  0.1929  0.2225  0.0221
 1759BOLB   C4B42204  11.884  29.616   9.582 -0.0733  0.0434 -0.1276
 1759BOLB   NC242205  11.257  32.467   9.324 -0.0486  0.1045 -0.1124
 1759BOLB   PO242206  11.712  32.214   9.271  0.1989  0.0722 -0.2959
 1759BOLB   GL342207  11.494  31.786   9.101  0.2595  0.0429 -0.1564
 1759BOLB   GL442208  11.178  31.575   8.937 -0.0373  0.0882  0.0001
 1759BOLB   C1C42209  11.640  31.414   9.304  0.5042  0.1103 -0.2856
 1759BOLB   C2C42210  11.559  31.032   9.436  0.1623  0.0609  0.0946
 1759BOLB   C3C42211  11.567  30.724   9.740  0.0331  0.1512 -0.0465
 1759BOLB   C4C42212  11.405  30.350   9.686  0.0327 -0.2412  0.5017
 1759BOLB   C1D42213  10.968  31.203   8.785 -0.0872 -0.1127  0.1197
 1759BOLB   C2D42214  10.633  30.834   8.689 -0.1819 -0.0097 -0.1639
 1759BOLB   C3D42215  10.398  30.496   8.659 -0.3341  0.1072 -0.0972
 1759BOLB   C4D42216  10.303  30.204   8.428  0.3990  0.0696  0.0753
 1760BOLB   NC142217   5.496  13.440  11.889  0.2210  0.0298  0.3001
 1760BOLB   PO142218   5.676  13.079  12.066  0.1000  0.1661 -0.0191
 1760BOLB   GL142219   5.589  12.694  11.952  0.0742  0.0282  0.1166
 1760BOLB   GL242220   5.306  12.667  11.653 -0.3613 -0.0971 -0.1121
 1760BOLB   C1A42221   5.546  12.262  11.964 -0.2002 -0.4911  0.0732
 1760BOLB   C2A42222   5.526  11.846  11.787 -0.2631  0.0963  0.0251
 1760BOLB   C3A42223   5.633  11.467  11.858 -0.1723 -0.0632  0.3454
 1760BOLB   C4A42224   5.415  11.119  11.707 -0.0562  0.0776 -0.1558
 1760BOLB   C1B42225   5.088  12.310  11.729  0.0872  0.1192  0.0927
 1760BOLB   C2B42226   5.035  11.825  11.765  0.1724  0.1982 -0.4745
 1760BOLB   C3B42227   5.218  11.612  12.095 -0.2352  0.0618 -0.3777
 1760BOLB   C4B42228   5.504  11.547  12.371 -0.1745  0.1096 -0.0465
 1760BOLB   NC242229   5.109   8.782  13.143  0.0682 -0.0023  0.1634
 1760BOLB   PO242230   5.401   9.060  13.033 -0.0919  0.0173  0.3346
 1760BOLB   GL342231   5.130   9.423  13.136 -0.1917 -0.2365  0.3171
 1760BOLB   GL442232   4.886   9.248  13.041 -0.0827  0.1617  0.0360
 1760BOLB   C1C42233   4.917   9.726  12.807 -0.2398 -0.0408 -0.3353
 1760BOLB   C2C42234   5.147  10.044  12.501  0.0042  0.1268  0.1884
 1760BOLB   C3C42235   5.271  10.387  12.199  0.1597  0.1112  0.0468
 1760BOLB   C4C42236   5.333  10.721  11.969 -0.2538  0.1904  0.2274
 1760BOLB   C1D42237   4.512   9.404  12.756  0.0676  0.0522 -0.0254
 1760BOLB   C2D42238   4.177   9.304  12.512  0.0574  0.1150 -0.0479
 1760BOLB   C3D42239   3.748   9.547  12.468 -0.0055 -0.2890 -0.0486
 1760BOLB   C4D42240   3.681   9.955  12.084  0.2221  0.0960 -0.3234
 1761BOLB   NC142241   7.754  13.600   6.744 -0.0699 -0.3835 -0.0715
 1761BOLB   PO142242   8.140  13.427   7.037 -0.2176 -0.2501  0.2909
 1761BOLB   GL142243   8.415  13.061   6.944  0.0219  0.2124 -0.0742
 1761BOLB   GL242244   8.584  12.873   7.190 -0.1368  0.1069 -0.0735
 1761BOLB   C1A42245   8.753  12.817   6.714  0.3172 -0.1376  0.2743
 1761BOLB   C2A42246   8.739  12.697   6.263 -0.0947  0.0929  0.1016
 1761BOLB   C3A42247   8.630  12.461   5.988 -0.2978 -0.1390 -0.0154
 1761BOLB   C4A42248   8.488  12.227   5.603 -0.4318 -0.0765 -0.0971
 1761BOLB   C1B42249   8.807  12.503   7.120 -0.0421  0.1930 -0.0932
 1761BOLB   C2B42250   8.687  12.078   7.085  0.0959  0.1923 -0.0860
 1761BOLB   C3B42251   8.894  11.646   6.935 -0.1832  0.0523 -0.0411
 1761BOLB   C4B42252   9.362  11.471   7.018  0.0715  0.1501 -0.0506
 1761BOLB   NC242253   7.453  10.358   4.073  0.0706  0.3317 -0.0292
 1761BOLB   PO242254   7.804  10.552   4.246  0.1093 -0.0796  0.0195
 1761BOLB   GL342255   8.047  10.720   4.581 -0.3928  0.2482  0.0656
 1761BOLB   GL442256   7.774  10.849   4.793  0.0051  0.4399  0.0413
 1761BOLB   C1C42257   8.282  10.682   4.934  0.1980 -0.2702  0.0361
 1761BOLB   C2C42258   8.343  11.056   5.185  0.3999 -0.2929  0.1296
 1761BOLB   C3C42259   8.257  11.494   5.346 -0.1353 -0.0001 -0.2237
 1761BOLB   C4C42260   8.164  11.891   5.472 -0.1299 -0.1428 -0.3892
 1761BOLB   C1D42261   7.492  11.063   5.063  0.2100  0.1691  0.1415
 1761BOLB   C2D42262   7.320  11.284   5.148  0.5807  0.4649 -0.0551
 1761BOLB   C3D42263   7.013  11.519   5.386  0.1755 -0.1502  0.3551
 1761BOLB   C4D42264   7.338  11.801   5.544  0.3368 -0.1380  0.0898
 1762BOLB   NC142265   0.503  25.100  14.440  0.0119  0.4226  0.1387
 1762BOLB   PO142266   0.563  25.430  14.258 -0.1619  0.0241  0.0842
 1762BOLB   GL142267   0.309  25.668  14.294 -0.0658  0.1868 -0.0316
 1762BOLB   GL242268   0.220  25.616  14.550  0.1471 -0.0297 -0.0004
 1762BOLB   C1A42269   0.318  26.115  14.477 -0.2814  0.1112 -0.3022
 1762BOLB   C2A42270   0.219  26.556  14.643 -0.2748 -0.0969  0.2484
 1762BOLB   C3A42271   0.005  26.923  14.782  0.2493 -0.3676  0.1789
 1762BOLB   C4A42272  -0.343  27.101  14.917  0.1768 -0.3335 -0.4009
 1762BOLB   C1B42273  -0.140  25.850  14.707  0.0319 -0.3249  0.1615
 1762BOLB   C2B42274  -0.159  26.303  14.518 -0.1264  0.6209  0.1765
 1762BOLB   C3B42275  -0.347  26.698  14.420  0.3869  0.1561 -0.4298
 1762BOLB   C4B42276  -0.472  27.181  14.449 -0.2668 -0.0969  0.2936
 1762BOLB   NC242277  -2.410  28.590  14.349  0.0793  0.0147 -0.0439
 1762BOLB   PO242278  -2.162  28.423  14.662 -0.0367 -0.2593  0.2770
 1762BOLB   GL342279  -1.758  28.378  14.601  0.2438 -0.2087  0.1784
 1762BOLB   GL442280  -1.551  28.561  14.361  0.1373 -0.1966  0.0377
 1762BOLB   C1C42281  -1.356  28.118  14.563  0.3169  0.1432 -0.1104
 1762BOLB   C2C42282  -1.194  27.721  14.522 -0.3463 -0.1788  0.0522
 1762BOLB   C3C42283  -1.070  27.441  14.838  0.0523 -0.0282 -0.0201
 1762BOLB   C4C42284  -0.779  27.276  14.870 -0.0775 -0.4150 -0.1306
 1762BOLB   C1D42285  -1.319  28.472  13.963  0.0138 -0.1466 -0.1185
 1762BOLB   C2D42286  -1.072  28.532  13.644 -0.0482 -0.3370 -0.4681
 1762BOLB   C3D42287  -0.749  28.526  13.379 -0.1695 -0.0153  0.0286
 1762BOLB   C4D42288  -0.459  28.456  13.189  0.3079  0.3460 -0.1632
 1763BOLB   NC142289   4.540  28.577  12.258  0.2478  0.0568 -0.1110
 1763BOLB   PO142290   4.263  28.241  12.229  0.2602  0.2670 -0.3112
 1763BOLB   GL142291   4.004  28.575  12.498 -0.0392  0.1024  0.3836
 1763BOLB   GL242292   3.720  28.530  12.241  0.1427 -0.3003  0.1967
 1763BOLB   C1A42293   3.858  28.929  12.644  0.2694 -0.1787 -0.3985
 1763BOLB   C2A42294   3.744  29.196  13.085 -0.2009 -0.1166 -0.2973
 1763BOLB   C3A42295   3.706  29.446  13.361 -0.0933 -0.0536 -0.4262
 1763BOLB   C4A42296   3.376  29.734  13.471 -0.0415  0.3846 -0.1859
 1763BOLB   C1B42297   3.474  28.929  12.240  0.4908  0.4953 -0.0191
 1763BOLB   C2B42298   3.147  29.331  12.069  0.0239  0.1308 -0.1793
 1763BOLB   C3B42299   2.737  29.498  11.958  0.0963  0.2741 -0.2016
 1763BOLB   C4B42300   2.457  29.761  12.202 -0.0992  0.5623  0.0319
 1763BOLB   NC242301   1.967  31.394  14.771 -0.3355 -0.0139  0.1433
 1763BOLB   PO242302   1.939  31.341  14.312  0.1002 -0.4132 -0.3545
 1763BOLB   GL342303   1.854  30.933  14.412 -0.0719 -0.1371  0.3930
 1763BOLB   GL442304   1.971  30.758  14.634 -0.0424  0.0057  0.3052
 1763BOLB   C1C42305   1.970  30.480  14.178 -0.0493  0.1117  0.0741
 1763BOLB   C2C42306   2.413  30.283  13.927  0.3899  0.5004 -0.3012
 1763BOLB   C3C42307   2.698  30.014  13.688  0.1956 -0.2142 -0.3031
 1763BOLB   C4C42308   3.027  29.670  13.598  0.1480 -0.0965  0.1206
 1763BOLB   C1D42309   2.064  30.319  14.627  0.0189  0.2654 -0.4402
 1763BOLB   C2D42310   2.254  30.055  14.383  0.0371  0.0494  0.1114
 1763BOLB   C3D42311   2.221  29.775  14.059 -0.0151  0.2513  0.2415
 1763BOLB   C4D42312   2.473  29.536  13.712 -0.6156  0.4369 -0.0902
 1764BOLB   NC142313   4.878  14.984  13.715  0.0655  0.2802  0.1656
 1764BOLB   PO142314   4.705  14.530  13.792 -0.0574 -0.0249 -0.3405
 1764BOLB   GL142315   4.496  14.085  13.720  0.1542  0.1327 -0.2362
 1764BOLB   GL242316   4.238  14.050  13.515  0.3096 -0.2533  0.2051
 1764BOLB   C1A42317   4.479  13.764  14.139  0.0958 -0.0253  0.1074
 1764BOLB   C2A42318   4.558  13.518  14.590  0.0350  0.1980 -0.1348
 1764BOLB   C3A42319   4.587  13.183  14.935 -0.2069  0.0643 -0.0426
 1764BOLB   C4A42320   4.418  12.871  15.377 -0.2794 -0.0116  0.0179
 1764BOLB   C1B42321   4.234  13.574  13.428 -0.1787  0.2141  0.1276
 1764BOLB   C2B42322   4.107  13.193  13.265  0.2147 -0.0132  0.1373
 1764BOLB   C3B42323   3.829  12.926  13.012 -0.0975 -0.0884  0.1746
 1764BOLB   C4B42324   3.462  12.690  13.136 -0.0004 -0.3031 -0.0803
 1764BOLB   NC242325   4.713  10.836  17.276 -0.3755 -0.2541  0.1656
 1764BOLB   PO242326   4.974  10.864  16.926  0.0040  0.0076 -0.3257
 1764BOLB   GL342327   4.958  11.307  16.777 -0.0005 -0.0338 -0.1882
 1764BOLB   GL442328   5.092  11.441  16.500  0.3126  0.0890 -0.2322
 1764BOLB   C1C42329   4.734  11.696  16.713 -0.2294 -0.0985 -0.2607
 1764BOLB   C2C42330   4.588  12.112  16.386 -0.0028 -0.1375  0.2652
 1764BOLB   C3C42331   4.595  12.298  15.985 -0.0573  0.1175  0.1452
 1764BOLB   C4C42332   4.584  12.566  15.613 -0.1791  0.0107  0.2203
 1764BOLB   C1D42333   5.117  11.894  16.450  0.0041  0.3505 -0.1754
 1764BOLB   C2D42334   5.104  12.237  16.228 -0.1860 -0.0034 -0.0617
 1764BOLB   C3D42335   5.042  12.351  15.758  0.0678  0.0402  0.0258
 1764BOLB   C4D42336   5.225  12.538  15.425  0.0476 -0.1888 -0.1902
 1765BOLB   NC142337  13.565  24.944   8.944 -0.1387  0.0077 -0.1006
 1765BOLB   PO142338  13.932  24.971   9.258  0.1442  0.1956  0.2776
 1765BOLB   GL142339  14.329  25.115   9.211 -0.1178  0.0916  0.1758
 1765BOLB   GL242340  14.389  25.048   8.879 -0.0531  0.0289 -0.4154
 1765BOLB   C1A42341  14.513  25.501   9.167  0.0773 -0.0979 -0.2255
 1765BOLB   C2A42342  14.714  25.786   8.927  0.0008  0.3726  0.0786
 1765BOLB   C3A42343  15.105  25.849   8.713  0.1557  0.1719  0.3103
 1765BOLB   C4A42344  15.556  26.123   8.717 -0.3579 -0.0680 -0.1776
 1765BOLB   C1B42345  14.715  25.328   8.692  0.1739 -0.0705  0.1990
 1765BOLB   C2B42346  15.216  25.335   8.648  0.1221 -0.2420 -0.2452
 1765BOLB   C3B42347  15.611  25.614   8.546  0.1031  0.1423  0.4369
 1765BOLB   C4B42348  15.958  25.760   8.680  0.3437  0.1093 -0.1650
 1765BOLB   NC242349  17.665  27.962   8.025  0.0447 -0.0822  0.1665
 1765BOLB   PO242350  17.303  27.684   8.185  0.1074  0.1227 -0.0566
 1765BOLB   GL342351  17.134  27.382   8.548 -0.3497 -0.2663 -0.1640
 1765BOLB   GL442352  17.326  27.146   8.641  0.1654  0.1055  0.1431
 1765BOLB   C1C42353  16.767  27.139   8.424  0.1334  0.2560  0.0226
 1765BOLB   C2C42354  16.534  26.798   8.610 -0.0599 -0.0054 -0.0599
 1765BOLB   C3C42355  16.181  26.678   8.590 -0.1422 -0.0787 -0.2514
 1765BOLB   C4C42356  15.865  26.419   8.661  0.2056 -0.1483 -0.0085
 1765BOLB   C1D42357  16.926  27.023   8.960  0.1091  0.0119  0.3980
 1765BOLB   C2D42358  16.722  26.590   9.087  0.0946  0.0998 -0.0204
 1765BOLB   C3D42359  16.787  26.198   9.274 -0.2699 -0.0176 -0.2401
 1765BOLB   C4D42360  16.821  25.850   9.338  0.1838 -0.3993 -0.2116
 1766BOLB   NC142361  13.290  20.565   4.169  0.2053  0.0607 -0.0148
 1766BOLB   PO142362  13.226  21.076   4.158 -0.2846 -0.0031 -0.0355
 1766BOLB   GL142363  13.295  20.922   3.736  0.3151  0.0712 -0.0002
 1766BOLB   GL242364  13.342  20.569   3.677 -0.1715 -0.2517  0.2690
 1766BOLB   C1A42365  13.417  20.932   3.330 -0.0094 -0.1104 -0.2252
 1766BOLB   C2A42366  13.760  20.693   3.081  0.1109  0.1780  0.2078
 1766BOLB   C3A42367  13.909  20.437   2.742 -0.5528  0.1555  0.5205
 1766BOLB   C4A42368  13.878  20.132   2.324  0.2850 -0.0222 -0.2129
 1766BOLB   C1B42369  13.282  20.465   3.188  0.0969  0.1520 -0.1967
 1766BOLB   C2B42370  13.352  20.720   2.820  0.2105  0.1177  0.2862
 1766BOLB   C3B42371  13.539  20.646   2.444 -0.2364 -0.2010 -0.0525
 1766BOLB   C4B42372  13.503  20.840   2.106 -0.1387  0.0988 -0.0633
 1766BOLB   NC242373  15.156  19.354   0.594 -0.2492 -0.1678  0.3252
 1766BOLB   PO242374  14.705  19.220   0.425  0.2453 -0.0667 -0.2507
 1766BOLB   GL342375  14.390  19.207   0.715  0.4576 -0.2959  0.2500
 1766BOLB   GL442376  14.074  19.159   0.648 -0.4402 -0.1172  0.0941
 1766BOLB   C1C42377  14.251  19.110   1.144  0.0367  0.0495 -0.1120
 1766BOLB   C2C42378  13.919  19.310   1.343  0.0655  0.0277  0.2962
 1766BOLB   C3C42379  13.725  19.737   1.603  0.2362  0.4156 -0.0424
 1766BOLB   C4C42380  13.814  19.961   1.943 -0.2448 -0.3061  0.2862
 1766BOLB   C1D42381  13.762  19.343   0.913  0.3095  0.1083 -0.2638
 1766BOLB   C2D42382  13.475  19.519   1.160 -0.1713 -0.3291 -0.0852
 1766BOLB   C3D42383  13.300  19.448   1.599 -0.0969 -0.0297 -0.2459
 1766BOLB   C4D42384  13.243  19.014   1.905  0.1858 -0.0874  0.1723
 1767BOLB   NC142385   6.233  27.865  15.119 -0.1189 -0.1379 -0.0153
 1767BOLB   PO142386   5.996  28.031  14.712 -0.0825  0.2403  0.2757
 1767BOLB   GL142387   6.158  28.318  14.938 -0.1736 -0.1495  0.0379
 1767BOLB   GL242388   6.477  28.366  14.908 -0.0590 -0.2022  0.2172
 1767BOLB   C1A42389   5.846  28.537  15.151 -0.2102 -0.0495  0.1954
 1767BOLB   C2A42390   5.982  28.773  15.535 -0.1550 -0.1617  0.2449
 1767BOLB   C3A42391   6.125  29.168  15.733 -0.2302  0.2571  0.2522
 1767BOLB   C4A42392   6.434  29.330  15.932 -0.2439  0.0781 -0.0019
 1767BOLB   C1B42393   6.543  28.609  15.205 -0.1349  0.1079 -0.2066
 1767BOLB   C2B42394   6.483  28.849  15.542 -0.3851 -0.1350  0.1460
 1767BOLB   C3B42395   6.786  29.211  15.534 -0.2646  0.1167 -0.2882
 1767BOLB   C4B42396   6.974  29.399  15.213  0.3425 -0.0833  0.0089
 1767BOLB   NC242397   7.255  31.166  17.589  0.1321  0.2280 -0.0368
 1767BOLB   PO242398   7.715  31.267  17.308  0.1193  0.2101  0.2509
 1767BOLB   GL342399   7.756  30.901  17.000 -0.2162 -0.1030 -0.0263
 1767BOLB   GL442400   7.822  30.918  16.706 -0.4017  0.0774  0.2470
 1767BOLB   C1C42401   7.414  30.537  16.774 -0.2852  0.2095 -0.1579
 1767BOLB   C2C42402   7.222  30.165  16.542  0.1701  0.2066 -0.3269
 1767BOLB   C3C42403   6.849  29.963  16.448  0.3033 -0.3386 -0.0393
 1767BOLB   C4C42404   6.709  29.601  16.229  0.1584  0.0101  0.1032
 1767BOLB   C1D42405   7.976  30.951  16.338  0.0176  0.1657  0.1085
 1767BOLB   C2D42406   7.963  30.740  15.960 -0.2436  0.1118 -0.0286
 1767BOLB   C3D42407   8.208  30.500  15.742  0.1503  0.0726  0.1035
 1767BOLB   C4D42408   8.302  30.117  15.541  0.0364  0.0981 -0.0370
 1768BOLB   NC142409  38.326  22.722   6.230 -0.4517 -0.0778  0.1458
 1768BOLB   PO142410  38.264  22.671   5.828 -0.0351  0.2552  0.0010
 1768BOLB   GL142411  38.142  22.828   5.479 -0.3227  0.0318 -0.0912
 1768BOLB   GL242412  37.861  23.052   5.582 -0.0097  0.1304 -0.1141
 1768BOLB   C1A42413  38.030  22.767   5.138  0.0781 -0.3617 -0.0561
 1768BOLB   C2A42414  37.673  22.875   4.803  0.2619 -0.1411 -0.0184
 1768BOLB   C3A42415  37.373  23.116   4.634 -0.1126  0.3346 -0.0289
 1768BOLB   C4A42416  37.199  23.023   4.263 -0.0007 -0.0397  0.0394
 1768BOLB   C1B42417  37.628  23.162   5.202  0.1550 -0.1634  0.0606
 1768BOLB   C2B42418  37.206  22.985   5.062 -0.1773  0.1482 -0.1591
 1768BOLB   C3B42419  36.927  22.723   4.772  0.0384  0.0374  0.3240
 1768BOLB   C4B42420  36.935  22.599   4.338  0.0987 -0.2206 -0.0093
 1768BOLB   NC242421  35.526  23.985   2.459 -0.0804 -0.1474 -0.0595
 1768BOLB   PO242422  35.782  24.404   2.495 -0.2815  0.1638 -0.1035
 1768BOLB   GL342423  36.018  24.325   2.790  0.2752  0.3268 -0.1441
 1768BOLB   GL442424  35.886  23.960   2.829 -0.0638 -0.2017  0.0029
 1768BOLB   C1C42425  36.474  24.154   3.045  0.1101 -0.0492  0.1185
 1768BOLB   C2C42426  36.691  23.886   3.442 -0.1457 -0.0950  0.3676
 1768BOLB   C3C42427  36.827  23.540   3.658 -0.0184  0.4552 -0.1890
 1768BOLB   C4C42428  36.936  23.294   3.980 -0.1659  0.1821 -0.0759
 1768BOLB   C1D42429  36.073  23.899   3.136  0.0343 -0.2247 -0.1324
 1768BOLB   C2D42430  36.193  23.673   3.388  0.1007 -0.0717 -0.1061
 1768BOLB   C3D42431  36.327  23.540   3.762 -0.1860 -0.1508 -0.1587
 1768BOLB   C4D42432  36.363  23.249   4.083 -0.3180 -0.3934 -0.1726
 1769BOLB   NC142433  15.044  21.739  11.352 -0.0656 -0.0454 -0.0848
 1769BOLB   PO142434  15.144  22.177  11.283  0.1588  0.1049  0.0946
 1769BOLB   GL142435  15.535  22.332  11.304  0.0304  0.2245  0.2454
 1769BOLB   GL242436  15.557  22.669  11.380 -0.3351  0.4061  0.0827
 1769BOLB   C1A42437  15.884  22.376  11.030 -0.0073  0.4046  0.0111
 1769BOLB   C2A42438  16.258  22.562  11.176  0.1995  0.1252 -0.0272
 1769BOLB   C3A42439  16.582  22.344  11.082 -0.0109  0.0086  0.1270
 1769BOLB   C4A42440  16.754  22.018  11.166  0.0393  0.1632 -0.0526
 1769BOLB   C1B42441  15.971  22.756  11.576  0.0028  0.3399 -0.1349
 1769BOLB   C2B42442  16.320  22.743  11.659  0.2514  0.0849 -0.0454
 1769BOLB   C3B42443  16.736  22.676  11.833  0.1653  0.2141 -0.2472
 1769BOLB   C4B42444  17.073  22.829  11.846  0.1011  0.1838 -0.0839
 1769BOLB   NC242445  19.158  22.635  11.771  0.0881 -0.4512  0.0346
 1769BOLB   PO242446  19.041  22.516  11.340 -0.2678  0.0595 -0.2292
 1769BOLB   GL342447  18.553  22.422  11.251  0.0501 -0.2168 -0.3728
 1769BOLB   GL442448  18.555  22.750  11.147 -0.0010 -0.0885  0.0063
 1769BOLB   C1C42449  18.327  22.109  10.969 -0.1689 -0.0735 -0.4532
 1769BOLB   C2C42450  17.965  21.877  10.972  0.0164  0.0726  0.0293
 1769BOLB   C3C42451  17.555  21.847  11.139  0.2138 -0.0740 -0.2570
 1769BOLB   C4C42452  17.167  21.995  11.147 -0.2742 -0.1281 -0.1009
 1769BOLB   C1D42453  18.120  22.691  11.275  0.0408 -0.0898  0.2102
 1769BOLB   C2D42454  17.806  22.884  11.339  0.1624 -0.1578  0.1130
 1769BOLB   C3D42455  17.460  23.297  11.257 -0.0798  0.1068  0.0575
 1769BOLB   C4D42456  17.096  23.198  11.032  0.2408 -0.1760 -0.1632
 1770BOLB   NC142457   8.941  17.152  16.097  0.1616  0.0270 -0.1896
 1770BOLB   PO142458   9.224  16.939  16.258 -0.1760 -0.1756  0.3275
 1770BOLB   GL142459   9.224  16.557  16.473 -0.2133 -0.2070 -0.2293
 1770BOLB   GL242460   9.215  16.368  16.248  0.1365 -0.1602  0.1080
 1770BOLB   C1A42461   9.428  16.314  16.795  0.3408  0.2433 -0.2654
 1770BOLB   C2A42462   9.684  16.017  17.006  0.2586 -0.1138 -0.3108
 1770BOLB   C3A42463   9.972  15.974  17.410  0.1955  0.0949  0.4920
 1770BOLB   C4A42464   9.886  15.613  17.714 -0.2478  0.0463  0.0138
 1770BOLB   C1B42465   9.173  15.981  16.489 -0.0578 -0.1831 -0.0678
 1770BOLB   C2B42466   9.175  15.621  16.603  0.1321 -0.1893 -0.1019
 1770BOLB   C3B42467   9.169  15.136  16.626  0.0825 -0.2035  0.1496
 1770BOLB   C4B42468   9.285  14.798  16.869  0.3449 -0.0148 -0.1419
 1770BOLB   NC242469   9.981  14.136  19.300  0.3562  0.2332 -0.1647
 1770BOLB   PO242470  10.008  14.293  19.731 -0.1082  0.1588  0.2147
 1770BOLB   GL342471  10.076  14.605  19.482 -0.3615  0.1089 -0.1161
 1770BOLB   GL442472  10.355  14.860  19.479 -0.1107 -0.1281 -0.1078
 1770BOLB   C1C42473  10.222  14.680  19.023 -0.0010 -0.6640  0.2618
 1770BOLB   C2C42474   9.971  14.694  18.658 -0.2527  0.1781  0.1928
 1770BOLB   C3C42475   9.877  14.857  18.273  0.1579  0.0791  0.4236
 1770BOLB   C4C42476   9.840  15.278  18.060 -0.1930 -0.0737 -0.1139
 1770BOLB   C1D42477  10.270  15.147  19.102 -0.4113 -0.1145 -0.6463
 1770BOLB   C2D42478  10.480  15.387  18.765 -0.0129 -0.0136  0.0036
 1770BOLB   C3D42479  10.789  15.467  18.749 -0.2215  0.0720 -0.1212
 1770BOLB   C4D42480  11.048  15.720  18.721 -0.2366  0.2419 -0.1515
 1771BOLB   NC142481  10.197  15.302   6.499  0.1604 -0.1260 -0.0677
 1771BOLB   PO142482  10.234  14.985   6.247  0.2031 -0.0649 -0.2079
 1771BOLB   GL142483  10.467  14.688   6.163 -0.1126  0.0443 -0.2392
 1771BOLB   GL242484  10.344  14.428   6.321 -0.0144 -0.1298 -0.1961
 1771BOLB   C1A42485  10.663  14.301   5.900 -0.2030 -0.2825 -0.1685
 1771BOLB   C2A42486  10.879  13.934   5.618 -0.1751 -0.1508 -0.1638
 1771BOLB   C3A42487  10.849  13.497   5.477  0.1742  0.0634 -0.1804
 1771BOLB   C4A42488  10.916  13.271   5.066  0.0674  0.2624 -0.0412
 1771BOLB   C1B42489  10.482  14.052   6.356 -0.5480  0.2193 -0.1499
 1771BOLB   C2B42490  10.576  13.634   6.451  0.0258 -0.0969 -0.0156
 1771BOLB   C3B42491  10.804  13.206   6.393 -0.0165  0.0153  0.0881
 1771BOLB   C4B42492  11.120  12.992   6.440 -0.1994  0.0598  0.1436
 1771BOLB   NC242493  11.160  11.307   4.033 -0.1360 -0.0721  0.1262
 1771BOLB   PO242494  11.573  11.333   4.101  0.2931 -0.2084  0.3704
 1771BOLB   GL342495  11.574  11.740   4.339  0.3372 -0.2940 -0.0020
 1771BOLB   GL442496  11.837  12.005   4.348  0.1776  0.1407 -0.1612
 1771BOLB   C1C42497  11.253  12.126   4.518  0.1145  0.0211 -0.0098
 1771BOLB   C2C42498  10.997  12.433   4.393 -0.1142  0.1045  0.1063
 1771BOLB   C3C42499  10.742  12.795   4.458  0.1834  0.0987 -0.1451
 1771BOLB   C4C42500  10.703  13.138   4.672 -0.0423 -0.1114 -0.0379
 1771BOLB   C1D42501  11.739  12.478   4.293  0.0543 -0.0692  0.0308
 1771BOLB   C2D42502  11.470  12.827   4.478  0.2252  0.0468  0.1736
 1771BOLB   C3D42503  11.303  13.045   4.753  0.1310 -0.0394 -0.2224
 1771BOLB   C4D42504  11.411  13.160   5.252 -0.2623  0.1456 -0.2462
 1772BOLB   NC142505   9.114  15.125   5.072 -0.0372 -0.0302  0.0351
 1772BOLB   PO142506   8.752  15.065   5.130 -0.2786 -0.1356  0.1387
 1772BOLB   GL142507   8.923  14.805   4.763 -0.0333 -0.2105 -0.0038
 1772BOLB   GL242508   8.664  14.529   4.731  0.2527  0.0072 -0.1027
 1772BOLB   C1A42509   9.094  14.532   4.395  0.0997 -0.2741  0.0095
 1772BOLB   C2A42510   9.444  14.243   4.308  0.3480  0.1720  0.2580
 1772BOLB   C3A42511   9.703  13.822   4.278  0.1563 -0.0488  0.0267
 1772BOLB   C4A42512   9.506  13.482   4.065 -0.1526  0.2935 -0.0491
 1772BOLB   C1B42513   8.663  14.360   4.289  0.0763  0.3133  0.3874
 1772BOLB   C2B42514   8.989  14.100   4.151  0.3385  0.0826  0.2315
 1772BOLB   C3B42515   9.115  13.731   3.904 -0.3521  0.2464  0.0869
 1772BOLB   C4B42516   8.967  13.426   4.039  0.0031  0.1011  0.1034
 1772BOLB   NC242517   9.806  11.834   2.576  0.0914  0.2233 -0.2038
 1772BOLB   PO242518   9.446  11.565   2.363  0.4789  0.0475  0.0693
 1772BOLB   GL342519   9.295  12.044   2.575  0.2176 -0.0430  0.1875
 1772BOLB   GL442520   8.921  12.140   2.558  0.2937 -0.2914  0.1412
 1772BOLB   C1C42521   9.385  12.418   2.870  0.1041  0.1837  0.1169
 1772BOLB   C2C42522   9.258  12.560   3.231 -0.1468 -0.1212  0.0923
 1772BOLB   C3C42523   9.369  13.003   3.432 -0.2146 -0.3428 -0.4413
 1772BOLB   C4C42524   9.406  13.232   3.748 -0.1608 -0.2072  0.2274
 1772BOLB   C1D42525   8.884  12.487   2.835 -0.3286  0.1608  0.0303
 1772BOLB   C2D42526   9.052  12.878   2.852  0.1975 -0.3250 -0.1248
 1772BOLB   C3D42527   9.087  13.247   3.162  0.0715  0.0056 -0.0754
 1772BOLB   C4D42528   9.292  13.543   3.348 -0.1963  0.0912 -0.1370
 1773BOLB   NC142529  15.203  22.331   8.987 -0.2413  0.0167  0.1555
 1773BOLB   PO142530  15.099  22.180   8.553 -0.0725  0.1488 -0.0433
 1773BOLB   GL142531  15.536  22.352   8.446 -0.1681 -0.1257  0.0568
 1773BOLB   GL242532  15.601  22.186   8.719  0.1480 -0.0980  0.2632
 1773BOLB   C1A42533  15.839  22.610   8.320  0.0108  0.0966  0.1972
 1773BOLB   C2A42534  16.141  22.850   8.217  0.3420 -0.0750  0.7098
 1773BOLB   C3A42535  16.509  23.216   8.231 -0.4211 -0.1362  0.0125
 1773BOLB   C4A42536  16.768  23.487   7.915 -0.0028  0.1048 -0.1631
 1773BOLB   C1B42537  16.004  22.304   8.752  0.0716 -0.2289  0.0050
 1773BOLB   C2B42538  16.400  22.485   8.695  0.0660 -0.1016  0.0942
 1773BOLB   C3B42539  16.944  22.272   8.607 -0.0938 -0.0095  0.1172
 1773BOLB   C4B42540  17.401  22.171   8.648 -0.1203 -0.1017  0.1057
 1773BOLB   NC242541  18.827  23.998   7.024  0.1287  0.2340 -0.1725
 1773BOLB   PO242542  18.729  24.416   7.203  0.0513  0.1277 -0.1453
 1773BOLB   GL342543  18.350  24.298   6.929  0.1976  0.2492  0.2818
 1773BOLB   GL442544  18.171  24.532   6.757 -0.2034  0.2297  0.1328
 1773BOLB   C1C42545  17.861  24.106   6.876  0.1713 -0.3318  0.0738
 1773BOLB   C2C42546  17.470  23.955   6.837 -0.0715 -0.2075 -0.2931
 1773BOLB   C3C42547  17.205  23.919   7.281  0.0097 -0.1714  0.1482
 1773BOLB   C4C42548  16.932  23.839   7.676  0.2362  0.2175 -0.1600
 1773BOLB   C1D42549  17.828  24.563   7.048 -0.1834 -0.0468 -0.0101
 1773BOLB   C2D42550  17.802  24.274   7.443 -0.2439 -0.2489 -0.0917
 1773BOLB   C3D42551  17.990  24.393   7.796  0.1618  0.3691  0.1100
 1773BOLB   C4D42552  18.230  24.653   7.915  0.0011 -0.1467  0.0909
 1774BOLB   NC142553  18.709  24.782  12.461 -0.2905  0.1731 -0.0454
 1774BOLB   PO142554  18.610  24.348  12.762  0.0059 -0.1963  0.3119
 1774BOLB   GL142555  18.265  24.409  12.867 -0.0470 -0.0290  0.0456
 1774BOLB   GL242556  18.272  24.667  13.128 -0.0585 -0.2848 -0.0114
 1774BOLB   C1A42557  17.843  24.410  12.883 -0.2625  0.0768 -0.0942
 1774BOLB   C2A42558  17.509  24.303  12.625  0.0986 -0.1768  0.0954
 1774BOLB   C3A42559  17.200  24.457  12.353 -0.0388 -0.1863  0.2236
 1774BOLB   C4A42560  16.706  24.502  12.289 -0.1620  0.0607 -0.2569
 1774BOLB   C1B42561  17.933  24.630  13.330 -0.1262 -0.3126  0.1192
 1774BOLB   C2B42562  17.500  24.624  13.297  0.0627  0.0619 -0.3910
 1774BOLB   C3B42563  17.272  24.298  13.513  0.3076  0.1586  0.3144
 1774BOLB   C4B42564  16.809  24.131  13.591  0.1358 -0.2760  0.3823
 1774BOLB   NC242565  17.860  26.047  11.573 -0.0621  0.1278  0.1016
 1774BOLB   PO242566  17.610  25.964  11.458  0.0988  0.1570  0.0322
 1774BOLB   GL342567  17.149  25.872  11.447  0.2446  0.1808 -0.1683
 1774BOLB   GL442568  16.909  26.194  11.546  0.0922  0.2441 -0.3097
 1774BOLB   C1C42569  16.767  25.668  11.589  0.0535  0.1789  0.2527
 1774BOLB   C2C42570  16.497  25.370  11.705 -0.3290  0.1873  0.1570
 1774BOLB   C3C42571  16.483  25.066  11.986  0.0838  0.2301 -0.1935
 1774BOLB   C4C42572  16.421  24.788  12.251  0.3186  0.0841  0.1549
 1774BOLB   C1D42573  16.518  26.224  11.708 -0.0177 -0.2633 -0.1425
 1774BOLB   C2D42574  16.044  26.260  11.551 -0.0630 -0.2216 -0.2424
 1774BOLB   C3D42575  15.710  26.563  11.578 -0.0159 -0.3684 -0.2766
 1774BOLB   C4D42576  15.357  26.762  11.399 -0.1045  0.2936 -0.1776
 1775BOLB   NC142577   1.734  19.929   3.788 -0.2493  0.1252 -0.0331
 1775BOLB   PO142578   1.477  20.045   4.002 -0.0009  0.0245 -0.1477
 1775BOLB   GL142579   1.369  20.214   3.703  0.3789  0.4369  0.0998
 1775BOLB   GL242580   1.565  20.234   3.425 -0.0827 -0.2503 -0.2038
 1775BOLB   C1A42581   1.162  20.465   3.423  0.3260  0.0593 -0.0258
 1775BOLB   C2A42582   0.999  20.533   2.995 -0.2182 -0.2059  0.2482
 1775BOLB   C3A42583   0.847  20.539   2.598  0.1583  0.2889  0.4050
 1775BOLB   C4A42584   0.767  20.506   2.117 -0.2197  0.0091  0.5785
 1775BOLB   C1B42585   1.247  20.129   3.119 -0.0458  0.2862 -0.3562
 1775BOLB   C2B42586   0.716  20.167   3.197 -0.3582 -0.0011  0.0838
 1775BOLB   C3B42587   0.381  20.017   3.106  0.3587 -0.0384 -0.3051
 1775BOLB   C4B42588   0.197  19.917   2.730  0.3329  0.0588  0.1855
 1775BOLB   NC242589  -0.922  20.591   0.273 -0.0909  0.2815 -0.0990
 1775BOLB   PO242590  -0.584  20.492   0.006  0.1515  0.0940 -0.1169
 1775BOLB   GL342591  -0.418  20.517   0.349 -0.1824 -0.0145 -0.3819
 1775BOLB   GL442592  -0.389  20.759   0.456 -0.2653 -0.1477 -0.1053
 1775BOLB   C1C42593  -0.058  20.381   0.593  0.0512 -0.0346 -0.1236
 1775BOLB   C2C42594   0.120  20.338   0.951 -0.0381  0.2829  0.1794
 1775BOLB   C3C42595   0.226  20.592   1.372 -0.0285 -0.2436 -0.0188
 1775BOLB   C4C42596   0.489  20.607   1.731 -0.0721 -0.1463  0.0030
 1775BOLB   C1D42597  -0.395  20.830   0.942  0.1664  0.3899  0.3833
 1775BOLB   C2D42598  -0.149  20.913   1.289 -0.1030 -0.0971  0.2007
 1775BOLB   C3D42599  -0.105  20.746   1.749 -0.0843  0.0831 -0.2023
 1775BOLB   C4D42600   0.024  20.505   2.116 -0.1006  0.0734  0.0984
 1776BOLB   NC142601   8.874  13.785  10.487 -0.1637 -0.2842 -0.0398
 1776BOLB   PO142602   9.247  13.677  10.672 -0.0586 -0.0806 -0.2160
 1776BOLB   GL142603   9.715  13.522  10.912  0.3609 -0.0311 -0.2217
 1776BOLB   GL242604   9.952  13.440  10.695 -0.1203  0.0879 -0.2397
 1776BOLB   C1A42605   9.821  13.232  11.153 -0.0776 -0.0085  0.0876
 1776BOLB   C2A42606   9.816  12.900  11.445 -0.0083  0.0793 -0.1080
 1776BOLB   C3A42607   9.915  12.508  11.555 -0.1370 -0.3811  0.1107
 1776BOLB   C4A42608  10.059  12.196  11.861 -0.0300  0.0864  0.0976
 1776BOLB   C1B42609  10.180  13.057  10.733 -0.1672  0.0716 -0.0075
 1776BOLB   C2B42610  10.479  12.761  10.640  0.0056  0.0130  0.1849
 1776BOLB   C3B42611  10.662  12.552  10.451  0.2510 -0.0287  0.1196
 1776BOLB   C4B42612  11.098  12.470  10.575  0.1996 -0.0365  0.0336
 1776BOLB   NC242613  11.349  11.067  13.465  0.0951  0.0525  0.0096
 1776BOLB   PO242614  11.383  11.014  13.002 -0.0657 -0.1649 -0.0829
 1776BOLB   GL342615  11.015  11.258  13.129  0.0529 -0.0971 -0.2343
 1776BOLB   GL442616  10.951  11.320  13.507 -0.1481 -0.0260  0.1572
 1776BOLB   C1C42617  10.680  11.081  12.903  0.3947  0.0955  0.2807
 1776BOLB   C2C42618  10.646  11.267  12.512  0.0187  0.2188  0.1200
 1776BOLB   C3C42619  10.443  11.578  12.231 -0.1067  0.0329 -0.0745
 1776BOLB   C4C42620  10.085  11.892  12.135 -0.0590 -0.4430  0.5923
 1776BOLB   C1D42621  10.632  11.596  13.233  0.1119 -0.0275  0.2207
 1776BOLB   C2D42622  10.646  11.636  12.877  0.1188  0.4856 -0.2915
 1776BOLB   C3D42623  10.750  11.798  12.582 -0.2740 -0.2576 -0.4247
 1776BOLB   C4D42624  10.762  12.223  12.514  0.0879 -0.0623 -0.2893
 1777BOLB   NC142625  30.904  12.414  12.959  0.0525  0.1426 -0.2148
 1777BOLB   PO142626  31.291  12.683  13.022 -0.2661 -0.2942 -0.1455
 1777BOLB   GL142627  31.670  12.962  13.030 -0.0964 -0.2608 -0.0905
 1777BOLB   GL242628  31.748  13.221  13.209 -0.3291 -0.0293 -0.2968
 1777BOLB   C1A42629  32.053  12.840  12.729 -0.0225 -0.0763 -0.0540
 1777BOLB   C2A42630  32.371  12.984  12.483 -0.0584  0.1065  0.1919
 1777BOLB   C3A42631  32.790  13.168  12.392  0.0878 -0.4334 -0.2717
 1777BOLB   C4A42632  33.172  13.252  12.271 -0.0377  0.2006  0.3871
 1777BOLB   C1B42633  32.183  13.243  12.949 -0.3800 -0.1844 -0.1536
 1777BOLB   C2B42634  32.526  13.395  12.803 -0.2500 -0.2292  0.1614
 1777BOLB   C3B42635  32.808  13.646  12.556 -0.1900  0.1681  0.0547
 1777BOLB   C4B42636  33.179  13.883  12.901  0.2708 -0.2026 -0.2200
 1777BOLB   NC242637  32.737  11.408  12.130 -0.2367 -0.0858  0.1445
 1777BOLB   PO242638  32.987  11.316  12.549 -0.0547  0.1946  0.0150
 1777BOLB   GL342639  33.336  11.608  12.649 -0.1255  0.0339 -0.2954
 1777BOLB   GL442640  33.555  11.303  12.709 -0.2498 -0.0830  0.0335
 1777BOLB   C1C42641  33.627  11.984  12.744  0.2121 -0.0062  0.2147
 1777BOLB   C2C42642  33.731  12.462  12.675 -0.0153 -0.0731  0.0550
 1777BOLB   C3C42643  33.771  12.806  12.649  0.0701  0.2995 -0.0073
 1777BOLB   C4C42644  33.530  13.078  12.408  0.0070  0.0091  0.0549
 1777BOLB   C1D42645  33.808  11.497  12.370  0.0313  0.1113 -0.0209
 1777BOLB   C2D42646  34.060  11.589  12.043  0.2242 -0.1509 -0.0095
 1777BOLB   C3D42647  34.361  11.965  11.969 -0.3629 -0.3969  0.2006
 1777BOLB   C4D42648  34.643  12.058  12.331 -0.0558 -0.0962 -0.1728
 1778BOLB   NC142649   3.752  22.402  17.454  0.2125 -0.0301  0.0165
 1778BOLB   PO142650   3.778  22.526  17.914 -0.1481 -0.0910  0.2193
 1778BOLB   GL142651   3.667  22.771  18.279  0.0686  0.3121 -0.0119
 1778BOLB   GL242652   3.635  23.084  18.358  0.1984  0.0253 -0.1283
 1778BOLB   C1A42653   3.451  22.693  18.697  0.3370 -0.1217  0.2162
 1778BOLB   C2A42654   3.190  22.981  18.963 -0.1518 -0.1907 -0.2514
 1778BOLB   C3A42655   3.141  23.105  19.344  0.2587 -0.1917 -0.0184
 1778BOLB   C4A42656   2.910  23.246  19.683  0.1674  0.2979  0.0571
 1778BOLB   C1B42657   3.495  23.273  18.690 -0.3756 -0.0635  0.0353
 1778BOLB   C2B42658   3.395  23.500  19.002 -0.0580 -0.0111 -0.0461
 1778BOLB   C3B42659   3.499  23.769  19.371 -0.0112  0.0447 -0.0895
 1778BOLB   C4B42660   3.222  23.878  19.745  0.6295 -0.2083 -0.0447
 1778BOLB   NC242661   1.613  23.330  21.835 -0.0683  0.0023 -0.0667
 1778BOLB   PO242662   2.059  23.352  21.885 -0.3915 -0.2413 -0.0369
 1778BOLB   GL342663   2.188  23.377  21.551 -0.1325  0.0380  0.0153
 1778BOLB   GL442664   2.283  23.085  21.488  0.0951 -0.1864 -0.1844
 1778BOLB   C1C42665   2.223  23.405  21.027  0.2360  0.4430 -0.0891
 1778BOLB   C2C42666   2.287  23.434  20.605  0.4592 -0.0127  0.2730
 1778BOLB   C3C42667   2.453  23.506  20.134  0.1905 -0.1508 -0.0836
 1778BOLB   C4C42668   2.703  23.410  19.868 -0.0061  0.0323  0.0206
 1778BOLB   C1D42669   2.418  22.941  21.123 -0.0358 -0.2318 -0.0352
 1778BOLB   C2D42670   2.825  22.917  20.940 -0.4124 -0.2200 -0.1296
 1778BOLB   C3D42671   3.213  22.682  20.909  0.0534  0.3485  0.1024
 1778BOLB   C4D42672   3.313  22.382  20.570 -0.0674  0.3363  0.2410
 1779BOLB   NC142673  13.567  21.770  14.692 -0.2714  0.1337  0.1846
 1779BOLB   PO142674  13.845  22.142  14.463 -0.2602 -0.0292 -0.0706
 1779BOLB   GL142675  14.076  21.901  14.856 -0.0198 -0.2945  0.4089
 1779BOLB   GL242676  13.985  21.656  14.962  0.1312 -0.0092  0.1356
 1779BOLB   C1A42677  14.472  22.046  15.040 -0.1020 -0.1926 -0.1229
 1779BOLB   C2A42678  14.643  22.000  15.452 -0.1099 -0.3720  0.1394
 1779BOLB   C3A42679  14.826  21.714  15.705  0.2828 -0.2962  0.2318
 1779BOLB   C4A42680  15.022  21.370  15.905 -0.2731  0.1675 -0.3812
 1779BOLB   C1B42681  14.183  21.297  15.065 -0.2311 -0.0430  0.0169
 1779BOLB   C2B42682  14.594  20.941  15.110 -0.0825 -0.0204 -0.3264
 1779BOLB   C3B42683  15.082  20.869  15.164  0.1857 -0.1707  0.0768
 1779BOLB   C4B42684  15.452  20.738  15.060 -0.0019 -0.0830 -0.0559
 1779BOLB   NC242685  17.234  20.347  16.703  0.0777  0.1180 -0.2028
 1779BOLB   PO242686  17.110  20.705  16.563  0.0963 -0.1568 -0.2907
 1779BOLB   GL342687  16.774  20.670  16.285 -0.3790 -0.1311  0.2963
 1779BOLB   GL442688  16.648  20.989  16.500  0.3201 -0.4875  0.0558
 1779BOLB   C1C42689  16.412  20.635  16.118  0.5437 -0.3098  0.2280
 1779BOLB   C2C42690  16.052  20.753  15.908  0.0120  0.0116 -0.1959
 1779BOLB   C3C42691  15.720  20.875  15.747  0.2386 -0.0805  0.2501
 1779BOLB   C4C42692  15.293  20.972  15.988  0.0042  0.1670 -0.0366
 1779BOLB   C1D42693  16.234  21.158  16.288 -0.2022 -0.0137 -0.1258
 1779BOLB   C2D42694  15.863  21.159  16.275  0.2729  0.3160 -0.0190
 1779BOLB   C3D42695  15.598  21.395  16.018 -0.1870 -0.0034  0.2531
 1779BOLB   C4D42696  15.382  21.771  15.761  0.2437  0.3652  0.4212
 1780BOLB   NC142697   3.847  23.295   3.822 -0.1500 -0.1798  0.2559
 1780BOLB   PO142698   3.926  23.553   3.512 -0.1171 -0.1263 -0.3298
 1780BOLB   GL142699   3.604  23.465   3.162  0.0249 -0.1671  0.0913
 1780BOLB   GL242700   3.667  23.235   2.956 -0.1993  0.0551 -0.1619
 1780BOLB   C1A42701   3.426  23.786   2.771  0.3793 -0.0893  0.1816
 1780BOLB   C2A42702   3.237  23.813   2.327  0.1008 -0.2471 -0.0411
 1780BOLB   C3A42703   3.471  24.057   1.932  0.2342 -0.0167  0.2043
 1780BOLB   C4A42704   3.584  24.436   1.739  0.2209  0.1741 -0.0213
 1780BOLB   C1B42705   3.386  23.275   2.596 -0.1830 -0.2157  0.0181
 1780BOLB   C2B42706   3.253  23.334   2.220 -0.1139 -0.0585  0.0029
 1780BOLB   C3B42707   3.175  23.401   1.853 -0.4306  0.1273 -0.1085
 1780BOLB   C4B42708   3.450  23.153   1.506  0.1222  0.2592  0.0168
 1780BOLB   NC242709   2.072  25.505  -0.165  0.6929 -0.1530  0.1976
 1780BOLB   PO242710   2.509  25.767  -0.064  0.2110  0.0474 -0.0727
 1780BOLB   GL342711   2.866  25.509   0.032  0.3806 -0.1114  0.0478
 1780BOLB   GL442712   2.991  25.287  -0.196  0.0118 -0.2064  0.0500
 1780BOLB   C1C42713   3.185  25.409   0.300 -0.0334 -0.0122 -0.0959
 1780BOLB   C2C42714   3.449  25.286   0.626 -0.1469  0.0582  0.0708
 1780BOLB   C3C42715   3.500  25.130   1.063 -0.2096 -0.0087  0.0035
 1780BOLB   C4C42716   3.695  24.789   1.407  0.3947 -0.1851  0.1389
 1780BOLB   C1D42717   3.349  25.568  -0.129  0.0613  0.0416  0.2954
 1780BOLB   C2D42718   3.638  25.632   0.182  0.0843  0.5078 -0.1984
 1780BOLB   C3D42719   3.983  25.418   0.338  0.1967  0.4743 -0.4492
 1780BOLB   C4D42720   3.905  25.009   0.608 -0.2394  0.0095 -0.1872
 1781BOLB   NC142721   2.346  27.916  10.203  0.2192  0.2846 -0.0864
 1781BOLB   PO142722   2.641  28.272  10.334  0.1642 -0.0438 -0.0076
 1781BOLB   GL142723   2.513  28.712  10.368 -0.2436  0.0195 -0.1849
 1781BOLB   GL242724   2.326  28.632  10.725  0.2833  0.0454 -0.3087
 1781BOLB   C1A42725   2.274  29.123  10.428  0.0817 -0.1781  0.0485
 1781BOLB   C2A42726   1.962  29.157  10.790  0.2008  0.0787  0.1878
 1781BOLB   C3A42727   1.600  29.287  10.860 -0.1559 -0.2448 -0.2843
 1781BOLB   C4A42728   1.147  29.327  10.776  0.2230  0.1068 -0.0473
 1781BOLB   C1B42729   2.407  28.995  10.878 -0.1451 -0.0690  0.1094
 1781BOLB   C2B42730   2.666  29.378  10.663  0.3924  0.3441  0.0876
 1781BOLB   C3B42731   2.591  29.618  10.296 -0.1929 -0.2066 -0.0688
 1781BOLB   C4B42732   2.402  30.006  10.094  0.1921  0.0609 -0.1404
 1781BOLB   NC242733  -0.679  31.174  10.317 -0.3087 -0.0129 -0.2608
 1781BOLB   PO242734  -0.194  31.156  10.574  0.2060 -0.1974  0.1177
 1781BOLB   GL342735   0.071  30.849  10.435 -0.1431  0.0088  0.1480
 1781BOLB   GL442736   0.418  30.913  10.236  0.1368  0.0748  0.0164
 1781BOLB   C1C42737   0.183  30.520  10.550 -0.3176  0.2360 -0.2116
 1781BOLB   C2C42738   0.295  30.158  10.512 -0.0991 -0.0747 -0.1857
 1781BOLB   C3C42739   0.611  29.963  10.397  0.1051 -0.1220  0.3604
 1781BOLB   C4C42740   0.965  29.702  10.490 -0.2365 -0.1933 -0.2167
 1781BOLB   C1D42741   0.015  30.725   9.977  0.1369  0.0763  0.1691
 1781BOLB   C2D42742  -0.051  30.549   9.631 -0.0681 -0.1160  0.2192
 1781BOLB   C3D42743   0.232  30.471   9.418  0.2071  0.0039  0.0091
 1781BOLB   C4D42744   0.412  30.424   8.897  0.2345  0.1072 -0.2336
 1782BOLB   NC142745   6.014  18.693   2.339  0.1438  0.1076 -0.2104
 1782BOLB   PO142746   5.771  18.281   2.208  0.0001  0.1091 -0.0871
 1782BOLB   GL142747   5.969  18.230   1.814  0.0807  0.0508 -0.0966
 1782BOLB   GL242748   5.884  18.367   1.513  0.0137 -0.0035  0.1406
 1782BOLB   C1A42749   6.358  18.073   1.505 -0.1378 -0.0884 -0.0087
 1782BOLB   C2A42750   6.412  17.882   1.142  0.0269  0.0427  0.1047
 1782BOLB   C3A42751   6.387  17.442   0.822  0.0726 -0.1106  0.0440
 1782BOLB   C4A42752   6.310  17.321   0.424 -0.1751  0.1926  0.1369
 1782BOLB   C1B42753   5.721  17.968   1.509 -0.2453  0.2920 -0.4060
 1782BOLB   C2B42754   5.984  17.701   1.217 -0.0728 -0.3729 -0.0050
 1782BOLB   C3B42755   5.865  17.626   0.794 -0.4203 -0.2685 -0.0309
 1782BOLB   C4B42756   5.827  17.517   0.407  0.0364  0.0211 -0.0453
 1782BOLB   NC242757   5.996  17.398  -2.030  0.1043  0.0548  0.2579
 1782BOLB   PO242758   5.787  17.571  -1.686  0.2085  0.2839 -0.0040
 1782BOLB   GL342759   6.028  17.760  -1.441 -0.0903 -0.3947  0.1094
 1782BOLB   GL442760   5.847  17.806  -1.149  0.3009 -0.2988  0.1530
 1782BOLB   C1C42761   6.191  17.474  -1.038  0.0517 -0.3376 -0.4280
 1782BOLB   C2C42762   6.460  17.502  -0.729 -0.0921 -0.1821  0.1516
 1782BOLB   C3C42763   6.441  17.381  -0.309 -0.0430 -0.0138 -0.2100
 1782BOLB   C4C42764   6.165  17.466   0.023 -0.0582 -0.1591  0.0306
 1782BOLB   C1D42765   5.807  17.689  -0.795 -0.0966 -0.1818  0.1750
 1782BOLB   C2D42766   5.934  17.326  -0.510 -0.0135  0.1302  0.2894
 1782BOLB   C3D42767   6.120  17.061  -0.663 -0.0073 -0.1425  0.3720
 1782BOLB   C4D42768   6.339  16.739  -0.503  0.1044 -0.0430 -0.0687
 1783BOLB   NC142769   4.847  26.874   5.201  0.1535  0.1091  0.1829
 1783BOLB   PO142770   5.317  26.752   5.109 -0.2146 -0.0922 -0.0138
 1783BOLB   GL142771   5.529  26.934   4.713  0.2901  0.1514  0.0442
 1783BOLB   GL242772   5.527  26.878   4.393  0.2756  0.0072 -0.2033
 1783BOLB   C1A42773   5.475  27.374   4.571 -0.0167 -0.2010  0.0222
 1783BOLB   C2A42774   5.463  27.763   4.246  0.0333  0.1545 -0.2151
 1783BOLB   C3A42775   5.241  28.131   4.247  0.0879 -0.0734  0.1621
 1783BOLB   C4A42776   4.742  28.436   4.338 -0.1363  0.0329  0.1082
 1783BOLB   C1B42777   5.349  27.208   4.106 -0.0556  0.2017 -0.1653
 1783BOLB   C2B42778   5.662  27.472   3.861 -0.0487  0.1045 -0.2572
 1783BOLB   C3B42779   5.863  27.767   3.570  0.1084 -0.0812 -0.0973
 1783BOLB   C4B42780   6.020  28.093   3.611  0.0360 -0.3287 -0.0074
 1783BOLB   NC242781   3.802  30.006   3.459 -0.0531  0.2470  0.0216
 1783BOLB   PO242782   3.827  30.289   3.717  0.1980  0.1218 -0.2971
 1783BOLB   GL342783   3.580  29.928   3.950  0.2116 -0.0739 -0.4842
 1783BOLB   GL442784   3.304  29.944   3.828 -0.4753 -0.0445  0.2309
 1783BOLB   C1C42785   3.774  29.589   4.198 -0.1743 -0.0768 -0.1148
 1783BOLB   C2C42786   3.922  29.238   4.254 -0.3410 -0.1995  0.3690
 1783BOLB   C3C42787   4.032  28.819   4.262 -0.0854 -0.0128 -0.0410
 1783BOLB   C4C42788   4.371  28.619   4.149 -0.0564  0.2628  0.1857
 1783BOLB   C1D42789   3.456  29.530   3.740  0.5499  0.1717  0.0203
 1783BOLB   C2D42790   3.553  29.173   3.896 -0.2406 -0.0299 -0.1455
 1783BOLB   C3D42791   3.552  28.899   4.105 -0.4239 -0.1846  0.0936
 1783BOLB   C4D42792   3.590  28.588   4.355  0.0026  0.1117 -0.1895
 1784BOLB   NC142793   6.665  13.341   7.097  0.3085  0.3247  0.1320
 1784BOLB   PO142794   6.621  12.977   7.176  0.2232  0.0653 -0.3786
 1784BOLB   GL142795   6.812  12.582   7.023 -0.0767  0.0929 -0.0121
 1784BOLB   GL242796   7.085  12.611   6.963 -0.1970  0.1229 -0.2969
 1784BOLB   C1A42797   6.839  12.150   7.008 -0.0352  0.1108  0.0214
 1784BOLB   C2A42798   7.276  11.918   7.015 -0.0622  0.0615 -0.2885
 1784BOLB   C3A42799   7.457  11.477   7.067 -0.0420 -0.2498 -0.3980
 1784BOLB   C4A42800   7.590  11.073   7.122 -0.1047 -0.0193 -0.1018
 1784BOLB   C1B42801   7.469  12.417   7.057 -0.2211 -0.0942  0.1048
 1784BOLB   C2B42802   7.789  12.051   7.066  0.5082  0.0482 -0.2960
 1784BOLB   C3B42803   7.903  11.667   6.937 -0.0471 -0.4753  0.0147
 1784BOLB   C4B42804   8.371  11.535   6.982 -0.2828 -0.0425  0.0535
 1784BOLB   NC242805   8.093   9.383   5.328 -0.0772  0.1632 -0.1207
 1784BOLB   PO242806   7.849   9.747   5.399 -0.1189  0.1484 -0.1872
 1784BOLB   GL342807   7.839  10.129   5.539  0.0481  0.3248 -0.2225
 1784BOLB   GL442808   7.554  10.353   5.513 -0.1841  0.0580  0.2105
 1784BOLB   C1C42809   7.791  10.075   5.947 -0.1428 -0.1646 -0.4001
 1784BOLB   C2C42810   8.029  10.153   6.345 -0.1153  0.0134  0.1657
 1784BOLB   C3C42811   7.903  10.438   6.707  0.0550  0.1720  0.0345
 1784BOLB   C4C42812   7.720  10.764   6.912  0.0173 -0.0341  0.0078
 1784BOLB   C1D42813   7.445  10.756   5.457  0.2313  0.1184 -0.1530
 1784BOLB   C2D42814   7.137  11.067   5.634 -0.0772  0.1037  0.1321
 1784BOLB   C3D42815   7.218  11.478   5.959  0.0371 -0.0230  0.3650
 1784BOLB   C4D42816   7.042  11.518   6.256  0.0238 -0.0033 -0.1599
 1785BOLB   NC142817   5.070  25.509  21.889  0.1971 -0.0578  0.3068
 1785BOLB   PO142818   4.667  25.508  21.732  0.0899 -0.1925  0.0259
 1785BOLB   GL142819   4.796  25.486  21.374 -0.2278  0.3589  0.1543
 1785BOLB   GL242820   4.958  25.811  21.268  0.2944  0.2124  0.1689
 1785BOLB   C1A42821   4.869  25.407  20.910 -0.0736  0.4047 -0.1679
 1785BOLB   C2A42822   4.867  25.142  20.513 -0.0101  0.2400  0.1688
 1785BOLB   C3A42823   4.881  24.806  20.235 -0.4185 -0.0258  0.2482
 1785BOLB   C4A42824   4.720  24.436  20.095  0.3881 -0.0205  0.1409
 1785BOLB   C1B42825   5.051  25.860  20.841 -0.0611 -0.0918 -0.2993
 1785BOLB   C2B42826   5.047  25.598  20.438 -0.2849 -0.0744  0.0061
 1785BOLB   C3B42827   4.719  25.452  20.117 -0.1409 -0.1695 -0.2422
 1785BOLB   C4B42828   4.341  25.376  19.809 -0.1151  0.3773  0.2577
 1785BOLB   NC242829   3.498  24.013  22.089 -0.3386  0.0818  0.2414
 1785BOLB   PO242830   3.470  23.711  21.927  0.3796  0.0495 -0.2024
 1785BOLB   GL342831   3.758  23.844  21.501  0.3920 -0.0158 -0.2824
 1785BOLB   GL442832   3.811  24.065  21.630 -0.3094 -0.1229  0.2562
 1785BOLB   C1C42833   3.762  23.788  20.975 -0.3138  0.0162  0.0964
 1785BOLB   C2C42834   3.926  23.809  20.574  0.2045  0.0059 -0.3549
 1785BOLB   C3C42835   4.071  23.975  20.259 -0.1612  0.2374 -0.2262
 1785BOLB   C4C42836   4.356  24.210  20.313  0.1115  0.1915 -0.3868
 1785BOLB   C1D42837   4.104  24.071  21.207 -0.0888 -0.1184 -0.2896
 1785BOLB   C2D42838   4.284  24.068  20.780 -0.0797  0.1034 -0.1548
 1785BOLB   C3D42839   4.438  23.728  20.495  0.0326  0.2469 -0.1159
 1785BOLB   C4D42840   4.491  23.598  20.099 -0.0120 -0.2643 -0.2044
 1786BOLB   NC142841   9.873  14.919  12.738  0.3040  0.0300 -0.1524
 1786BOLB   PO142842   9.621  14.590  12.868 -0.1582  0.1561  0.1191
 1786BOLB   GL142843   9.783  14.107  12.980 -0.3509 -0.1084 -0.3380
 1786BOLB   GL242844   9.741  14.021  13.361  0.0274  0.0099 -0.1271
 1786BOLB   C1A42845   9.916  13.692  12.764 -0.0114  0.3255  0.2302
 1786BOLB   C2A42846  10.020  13.351  12.880  0.1595  0.2129 -0.1327
 1786BOLB   C3A42847   9.973  13.140  13.329  0.2536 -0.1345 -0.1340
 1786BOLB   C4A42848  10.286  12.947  13.595  0.1517 -0.0504  0.3017
 1786BOLB   C1B42849  10.042  13.709  13.317 -0.2709  0.1018 -0.1744
 1786BOLB   C2B42850  10.121  13.445  13.699 -0.2158 -0.2763  0.0005
 1786BOLB   C3B42851   9.905  13.213  13.945  0.2916  0.1927  0.1123
 1786BOLB   C4B42852   9.930  13.104  14.401  0.2348  0.0463 -0.1262
 1786BOLB   NC242853  11.662  11.342  15.535  0.0002  0.3171 -0.1375
 1786BOLB   PO242854  11.588  11.458  15.021 -0.0260  0.1558 -0.0565
 1786BOLB   GL342855  11.330  11.812  14.854  0.2501 -0.0495  0.1334
 1786BOLB   GL442856  11.044  11.882  14.957  0.0867  0.3066 -0.0460
 1786BOLB   C1C42857  11.309  12.321  14.826  0.0389  0.0162 -0.1307
 1786BOLB   C2C42858  11.112  12.634  14.539  0.1396  0.0248 -0.3757
 1786BOLB   C3C42859  10.775  12.860  14.382 -0.0732  0.0592  0.2578
 1786BOLB   C4C42860  10.393  12.903  14.061  0.0215  0.1419 -0.0775
 1786BOLB   C1D42861  10.794  12.210  14.741 -0.0934  0.2021 -0.0214
 1786BOLB   C2D42862  10.568  12.455  14.519 -0.2395 -0.0918  0.1164
 1786BOLB   C3D42863  10.198  12.602  14.402 -0.0769  0.1835  0.0462
 1786BOLB   C4D42864   9.705  12.719  14.694  0.0935  0.1357  0.1045
 1787BOLB   NC142865   4.305  17.542   2.852  0.1985  0.1001  0.1830
 1787BOLB   PO142866   3.886  17.593   3.086  0.0208  0.1027  0.0798
 1787BOLB   GL142867   3.539  17.637   2.873 -0.3225 -0.1335 -0.0129
 1787BOLB   GL242868   3.211  17.500   3.008  0.1058  0.0889 -0.2800
 1787BOLB   C1A42869   3.407  17.223   2.633  0.1140  0.1965  0.0549
 1787BOLB   C2A42870   3.203  17.058   2.274  0.2316  0.0268  0.0714
 1787BOLB   C3A42871   3.191  16.681   1.982  0.1877  0.1924  0.0906
 1787BOLB   C4A42872   3.292  16.731   1.532 -0.2797 -0.3244  0.1150
 1787BOLB   C1B42873   2.904  17.396   2.756  0.1079 -0.0020 -0.0152
 1787BOLB   C2B42874   2.769  17.415   2.325  0.0264  0.0565  0.2098
 1787BOLB   C3B42875   2.495  17.464   1.990  0.0291  0.1271 -0.0168
 1787BOLB   C4B42876   2.081  17.486   1.768 -0.0091 -0.0903  0.0366
 1787BOLB   NC242877   4.462  15.039  -0.211 -0.0770  0.1511  0.0924
 1787BOLB   PO242878   4.092  15.380  -0.133 -0.2016  0.0849  0.1485
 1787BOLB   GL342879   3.923  15.559   0.279  0.0753 -0.3482  0.1940
 1787BOLB   GL442880   3.758  15.287   0.522 -0.1048 -0.0255  0.0981
 1787BOLB   C1C42881   3.753  16.022   0.338  0.2405  0.0115 -0.1399
 1787BOLB   C2C42882   3.484  16.234   0.493 -0.1974 -0.2500  0.2390
 1787BOLB   C3C42883   3.634  16.544   0.759 -0.1581 -0.3047  0.0207
 1787BOLB   C4C42884   3.526  16.690   1.129  0.3310  0.1806  0.4104
 1787BOLB   C1D42885   4.004  15.237   0.982  0.0296 -0.1204 -0.0187
 1787BOLB   C2D42886   4.302  15.276   1.214 -0.2568 -0.0876  0.0230
 1787BOLB   C3D42887   4.491  15.471   1.549  0.3313  0.1444 -0.0541
 1787BOLB   C4D42888   4.614  15.351   1.909 -0.0143 -0.3509 -0.4364
 1788BOLB   NC142889  14.976  23.072   8.570 -0.1205 -0.0018 -0.2288
 1788BOLB   PO142890  15.144  22.711   8.594  0.0298 -0.1324 -0.2219
 1788BOLB   GL142891  15.479  22.747   8.770 -0.0022 -0.2663 -0.3466
 1788BOLB   GL242892  15.685  22.591   9.025  0.3428  0.0164 -0.0286
 1788BOLB   C1A42893  15.959  22.849   8.744  0.0866  0.0608  0.1125
 1788BOLB   C2A42894  16.342  22.945   8.680 -0.0302  0.0177 -0.0553
 1788BOLB   C3A42895  16.648  23.255   8.970  0.2608 -0.1322  0.0380
 1788BOLB   C4A42896  16.703  23.692   9.215 -0.0942  0.4319 -0.0504
 1788BOLB   C1B42897  16.144  22.689   9.153  0.1017  0.1297 -0.0940
 1788BOLB   C2B42898  16.563  22.705   9.146 -0.0011 -0.0975 -0.1768
 1788BOLB   C3B42899  16.869  22.857   8.746 -0.1425 -0.2240 -0.3260
 1788BOLB   C4B42900  16.997  23.298   8.567  0.2609 -0.2467  0.1443
 1788BOLB   NC242901  18.756  25.342   9.915 -0.0475  0.1114  0.1676
 1788BOLB   PO242902  18.287  25.392   9.918  0.0852  0.3739 -0.2931
 1788BOLB   GL342903  17.879  25.267   9.648  0.0370  0.0119 -0.0716
 1788BOLB   GL442904  17.610  25.501   9.646 -0.0228 -0.2761 -0.2449
 1788BOLB   C1C42905  17.584  25.006   9.666  0.1177  0.1542 -0.1679
 1788BOLB   C2C42906  17.305  24.678   9.481  0.2220 -0.2825  0.3476
 1788BOLB   C3C42907  17.018  24.407   9.609 -0.0167  0.0339  0.1227
 1788BOLB   C4C42908  17.000  23.988   9.420 -0.1180 -0.0510  0.3985
 1788BOLB   C1D42909  17.243  25.467   9.340 -0.1492  0.0066 -0.3094
 1788BOLB   C2D42910  17.194  25.109   9.179  0.1590  0.1026 -0.1384
 1788BOLB   C3D42911  17.108  24.798   9.040  0.2258  0.1085 -0.1905
 1788BOLB   C4D42912  17.223  24.575   8.653 -0.0355 -0.1851 -0.1490
 1789BOLB   NC142913  13.781  17.554  10.101  0.1908  0.3061 -0.0945
 1789BOLB   PO142914  14.115  17.623  10.252 -0.0285 -0.0530 -0.1113
 1789BOLB   GL142915  14.466  17.527  10.462  0.3394 -0.0371 -0.3668
 1789BOLB   GL242916  14.659  17.680  10.393 -0.0391  0.2221  0.3828
 1789BOLB   C1A42917  14.723  17.263  10.647  0.1092  0.2704 -0.1630
 1789BOLB   C2A42918  14.939  17.084  10.317 -0.2314  0.0320 -0.0861
 1789BOLB   C3A42919  15.309  17.083  10.183 -0.1677 -0.2621  0.2078
 1789BOLB   C4A42920  15.819  17.041   9.907  0.1235 -0.0465  0.0066
 1789BOLB   C1B42921  15.084  17.880  10.555  0.3434  0.3277 -0.0471
 1789BOLB   C2B42922  15.534  17.938  10.505 -0.0595 -0.0372  0.3362
 1789BOLB   C3B42923  15.890  17.679  10.621  0.4347  0.0479 -0.1422
 1789BOLB   C4B42924  16.189  17.440  10.819 -0.1164  0.0065  0.2062
 1789BOLB   NC242925  17.972  15.965  10.037 -0.0227  0.0416  0.1362
 1789BOLB   PO242926  17.930  15.759  10.489 -0.1219  0.0333  0.1422
 1789BOLB   GL342927  17.622  16.147  10.405  0.0387  0.2359  0.1579
 1789BOLB   GL442928  17.812  16.370  10.214  0.1075 -0.1943  0.1937
 1789BOLB   C1C42929  17.306  16.413  10.275  0.1499  0.3404 -0.1270
 1789BOLB   C2C42930  16.950  16.427  10.237 -0.2864  0.1328 -0.2596
 1789BOLB   C3C42931  16.469  16.579  10.168  0.0295 -0.0381 -0.1138
 1789BOLB   C4C42932  16.178  16.796   9.786 -0.4109  0.1786 -0.0524
 1789BOLB   C1D42933  17.523  16.796  10.204  0.1029  0.1716 -0.4987
 1789BOLB   C2D42934  17.096  16.886  10.086 -0.0464 -0.1543 -0.1651
 1789BOLB   C3D42935  16.671  17.003  10.098  0.2051 -0.3141 -0.0680
 1789BOLB   C4D42936  16.291  17.303   9.988  0.4042 -0.0661  0.0314
 1790BOLB   NC142937  33.221  10.896  12.751  0.1812 -0.0484  0.0048
 1790BOLB   PO142938  33.322  10.909  12.365 -0.0174 -0.1230 -0.0155
 1790BOLB   GL142939  33.795  10.963  12.123 -0.1690 -0.3336  0.0541
 1790BOLB   GL242940  33.927  10.849  11.823 -0.1500 -0.0466  0.0843
 1790BOLB   C1A42941  34.309  11.144  12.098 -0.1510  0.1274 -0.1728
 1790BOLB   C2A42942  34.460  11.561  12.357 -0.0775  0.0018  0.3698
 1790BOLB   C3A42943  34.477  11.678  12.801  0.1344  0.1875  0.0309
 1790BOLB   C4A42944  34.694  11.322  13.046  0.0188  0.3271 -0.1480
 1790BOLB   C1B42945  34.254  10.637  11.912  0.0699  0.2171  0.0473
 1790BOLB   C2B42946  34.409  10.648  12.360 -0.0533  0.1064 -0.0766
 1790BOLB   C3B42947  34.494  10.189  12.585 -0.0506  0.2583  0.3369
 1790BOLB   C4B42948  34.397  10.053  13.017 -0.1182 -0.0668 -0.2940
 1790BOLB   NC242949  34.946   8.628  13.879 -0.0494 -0.0644 -0.1482
 1790BOLB   PO242950  34.684   9.081  13.793 -0.5021  0.3000 -0.0743
 1790BOLB   GL342951  34.824   9.484  13.819 -0.3132  0.0244 -0.2031
 1790BOLB   GL442952  34.606   9.629  13.980 -0.1369  0.0886  0.1076
 1790BOLB   C1C42953  34.851   9.868  13.614  0.0069 -0.0809  0.0245
 1790BOLB   C2C42954  34.776  10.104  13.381 -0.0343  0.0865  0.0838
 1790BOLB   C3C42955  34.797  10.556  13.244 -0.3550  0.0827  0.1485
 1790BOLB   C4C42956  34.807  10.896  13.133 -0.2320 -0.2081 -0.1095
 1790BOLB   C1D42957  34.951   9.935  14.130 -0.1393  0.0364  0.0422
 1790BOLB   C2D42958  35.250  10.292  14.159 -0.0832  0.0254  0.0900
 1790BOLB   C3D42959  35.183  10.692  14.087  0.0262 -0.0137 -0.0569
 1790BOLB   C4D42960  35.467  10.933  14.042  0.1031  0.1469  0.1846
 1791BOLB   NC142961   1.470  26.455   8.822 -0.2448  0.0046 -0.1048
 1791BOLB   PO142962   1.621  26.800   9.118 -0.0851 -0.2365  0.0317
 1791BOLB   GL142963   1.324  27.205   9.157 -0.0414  0.2712  0.1110
 1791BOLB   GL242964   1.353  27.490   9.336 -0.2351 -0.2045 -0.0993
 1791BOLB   C1A42965   1.035  27.428   8.866 -0.0404 -0.1534  0.2152
 1791BOLB   C2A42966   0.858  27.810   8.751 -0.1040 -0.0078 -0.1407
 1791BOLB   C3A42967   0.895  28.072   8.263  0.0398  0.1919 -0.1800
 1791BOLB   C4A42968   0.990  28.533   8.289 -0.1754 -0.2097 -0.0411
 1791BOLB   C1B42969   1.123  27.778   9.259 -0.0077  0.3309 -0.0732
 1791BOLB   C2B42970   1.134  28.220   9.052 -0.1428  0.1294 -0.0103
 1791BOLB   C3B42971   0.849  28.613   8.897 -0.0491 -0.0260  0.0907
 1791BOLB   C4B42972   0.636  28.928   8.729 -0.0066 -0.0303  0.1874
 1791BOLB   NC242973  -0.969  29.434   7.151  0.2489  0.1359  0.2094
 1791BOLB   PO242974  -0.989  29.787   7.380  0.1112  0.1613  0.1028
 1791BOLB   GL342975  -0.755  29.440   7.695 -0.0800  0.0803  0.2440
 1791BOLB   GL442976  -0.818  29.390   8.017  0.2360  0.1612  0.1630
 1791BOLB   C1C42977  -0.313  29.372   7.803  0.0358  0.1478 -0.3408
 1791BOLB   C2C42978   0.077  29.209   7.918  0.3289 -0.1698 -0.0541
 1791BOLB   C3C42979   0.351  29.061   8.170 -0.1795  0.0379 -0.1519
 1791BOLB   C4C42980   0.863  28.942   8.235  0.0532 -0.4312  0.2161
 1791BOLB   C1D42981  -0.469  29.391   8.299 -0.1001 -0.0197 -0.0956
 1791BOLB   C2D42982  -0.089  29.140   8.499 -0.3681 -0.1464 -0.0110
 1791BOLB   C3D42983   0.302  29.290   8.593 -0.0287 -0.1836 -0.0534
 1791BOLB   C4D42984   0.530  29.466   8.942 -0.0587 -0.3676  0.0811
 1792BOLB   NC142985   7.079  28.625   7.007 -0.1712 -0.1069  0.2816
 1792BOLB   PO142986   6.630  28.514   6.787 -0.3010 -0.3171 -0.1491
 1792BOLB   GL142987   6.688  28.858   6.636  0.1405 -0.0021 -0.1125
 1792BOLB   GL242988   6.976  28.835   6.481  0.0347 -0.2116  0.2184
 1792BOLB   C1A42989   6.419  29.154   6.593 -0.3109 -0.1985  0.3045
 1792BOLB   C2A42990   6.374  29.656   6.501 -0.1906  0.1412  0.0287
 1792BOLB   C3A42991   6.514  29.940   6.299 -0.0368  0.3410 -0.1235
 1792BOLB   C4A42992   6.647  30.284   6.451 -0.0022 -0.1044 -0.0004
 1792BOLB   C1B42993   7.075  29.195   6.514  0.0005  0.0674  0.1082
 1792BOLB   C2B42994   6.839  29.569   6.277 -0.2234 -0.1342  0.0543
 1792BOLB   C3B42995   6.748  29.731   5.860 -0.0701 -0.1175  0.0987
 1792BOLB   C4B42996   6.782  29.865   5.427  0.0292  0.1767 -0.2078
 1792BOLB   NC242997   6.128  33.167   6.087 -0.4272 -0.0104  0.0640
 1792BOLB   PO242998   6.207  32.723   6.305  0.0796  0.0483 -0.1040
 1792BOLB   GL342999   6.179  32.205   6.330 -0.0688  0.2736  0.0064
 1792BOLB   GL443000   6.492  32.005   6.395  0.0340  0.1793 -0.1230
 1792BOLB   C1C43001   5.929  31.733   6.262  0.1470  0.0420 -0.0689
 1792BOLB   C2C43002   6.007  31.404   6.582  0.2212  0.2434 -0.1912
 1792BOLB   C3C43003   6.174  31.127   6.552 -0.3622  0.0872 -0.3013
 1792BOLB   C4C43004   6.463  30.763   6.582  0.4361  0.0833  0.0935
 1792BOLB   C1D43005   6.523  31.534   6.669  0.0562  0.3475 -0.0960
 1792BOLB   C2D43006   6.457  31.226   6.965  0.0732  0.0361  0.1254
 1792BOLB   C3D43007   6.693  31.082   7.390 -0.1071 -0.0186  0.2625
 1792BOLB   C4D43008   6.632  31.056   7.781 -0.2062 -0.0749 -0.2997
 1793BOLB   NC143009  14.475  23.680   8.992  0.0806  0.1247  0.2768
 1793BOLB   PO143010  14.886  23.757   9.249 -0.0534  0.0936 -0.1905
 1793BOLB   GL143011  15.203  23.900   9.471 -0.4987  0.0354 -0.1741
 1793BOLB   GL243012  15.332  24.151   9.501 -0.0701 -0.2177 -0.0078
 1793BOLB   C1A43013  15.674  23.773   9.706  0.1870 -0.0889  0.2163
 1793BOLB   C2A43014  16.028  24.012   9.800 -0.3421  0.1417 -0.2561
 1793BOLB   C3A43015  16.225  24.271   9.854 -0.2432  0.0870 -0.4698
 1793BOLB   C4A43016  16.601  24.661   9.826 -0.1033  0.5647  0.0157
 1793BOLB   C1B43017  15.644  24.449   9.740  0.1500 -0.3250  0.2438
 1793BOLB   C2B43018  15.891  24.638   9.793  0.1236 -0.0034  0.1811
 1793BOLB   C3B43019  16.161  24.955   9.802 -0.0996  0.2085 -0.0798
 1793BOLB   C4B43020  16.454  25.261   9.796  0.3728  0.1291  0.1011
 1793BOLB   NC243021  18.273  25.974   9.264 -0.1056 -0.0916  0.0756
 1793BOLB   PO243022  18.152  25.865   8.911 -0.1447 -0.0973  0.3157
 1793BOLB   GL343023  17.764  25.924   9.270  0.4118  0.1934 -0.1977
 1793BOLB   GL443024  17.698  25.684   9.169 -0.1052  0.1745 -0.2408
 1793BOLB   C1C43025  17.380  25.920   9.539 -0.0963 -0.3437  0.1650
 1793BOLB   C2C43026  17.082  25.632   9.815  0.1584  0.3995  0.0645
 1793BOLB   C3C43027  16.956  25.193   9.684  0.0576 -0.2282  0.1124
 1793BOLB   C4C43028  16.889  24.801   9.834  0.0417 -0.1381  0.2154
 1793BOLB   C1D43029  17.739  25.193   9.083 -0.0329 -0.0862  0.0238
 1793BOLB   C2D43030  17.597  24.811   9.096  0.0190 -0.1400  0.1275
 1793BOLB   C3D43031  17.677  24.432   8.905  0.0570  0.0640  0.1195
 1793BOLB   C4D43032  18.026  24.131   9.107  0.1433 -0.0550  0.0504
 1794BOLB   NC143033   6.646  20.346  18.041  0.5041 -0.4726 -0.0015
 1794BOLB   PO143034   6.401  20.119  18.328  0.2264  0.0098  0.2812
 1794BOLB   GL143035   6.360  20.037  18.808  0.0164  0.1215  0.0829
 1794BOLB   GL243036   5.977  20.144  18.913  0.0726 -0.2229  0.1225
 1794BOLB   C1A43037   6.370  19.906  19.203 -0.1212  0.1202  0.3320
 1794BOLB   C2A43038   6.201  19.992  19.674 -0.0895  0.1398  0.2576
 1794BOLB   C3A43039   6.358  20.098  20.076  0.3057  0.0264  0.2836
 1794BOLB   C4A43040   6.784  20.098  20.284 -0.1911  0.1112 -0.0356
 1794BOLB   C1B43041   5.835  20.058  19.276 -0.0527 -0.0723 -0.1986
 1794BOLB   C2B43042   5.730  19.917  19.755  0.1048  0.0547  0.2356
 1794BOLB   C3B43043   5.615  19.576  19.826  0.0053  0.2498 -0.0839
 1794BOLB   C4B43044   5.880  19.266  20.121 -0.0205  0.2113  0.4528
 1794BOLB   NC243045   8.664  20.663  22.525 -0.3522 -0.1729  0.0701
 1794BOLB   PO243046   8.410  20.900  22.261 -0.0550  0.3275  0.1208
 1794BOLB   GL343047   8.079  21.045  21.925  0.2044 -0.3112  0.0356
 1794BOLB   GL443048   8.040  21.339  22.151 -0.0747 -0.1500  0.1846
 1794BOLB   C1C43049   7.805  20.967  21.523 -0.1501  0.0574 -0.3199
 1794BOLB   C2C43050   7.577  20.751  21.180  0.2238 -0.1219 -0.1686
 1794BOLB   C3C43051   7.236  20.561  20.951 -0.3363  0.1852  0.1690
 1794BOLB   C4C43052   7.000  20.289  20.648 -0.2523 -0.1260 -0.0585
 1794BOLB   C1D43053   8.341  21.484  21.841  0.0898 -0.0541  0.6038
 1794BOLB   C2D43054   8.700  21.488  21.518  0.0246  0.1316  0.2039
 1794BOLB   C3D43055   8.633  21.678  21.095  0.2753  0.2239  0.4074
 1794BOLB   C4D43056   8.433  21.741  20.758  0.0136  0.0376  0.0865
 1795BOLB   NC143057   6.306  13.686  12.519  0.0436  0.0202 -0.1791
 1795BOLB   PO143058   6.508  13.229  12.373 -0.1536 -0.0318  0.2226
 1795BOLB   GL143059   6.667  12.938  12.090 -0.0086  0.4230  0.2133
 1795BOLB   GL243060   6.931  12.672  12.137 -0.0088 -0.0511  0.0502
 1795BOLB   C1A43061   6.631  12.573  11.815 -0.1796 -0.1040 -0.2704
 1795BOLB   C2A43062   6.557  12.040  11.796 -0.0509  0.3739  0.1862
 1795BOLB   C3A43063   6.390  11.724  11.495  0.0631  0.0446 -0.0008
 1795BOLB   C4A43064   6.110  11.465  11.544  0.2124  0.1865  0.3098
 1795BOLB   C1B43065   6.965  12.244  12.280 -0.1422 -0.1429  0.3727
 1795BOLB   C2B43066   6.827  11.932  12.515  0.2705  0.1417 -0.2903
 1795BOLB   C3B43067   6.888  11.539  12.807  0.1765  0.0230  0.0294
 1795BOLB   C4B43068   6.750  11.207  13.104 -0.1577 -0.0931  0.1738
 1795BOLB   NC243069   6.482   8.575  11.585 -0.0838  0.4084 -0.2568
 1795BOLB   PO243070   6.138   8.766  11.302 -0.1605 -0.1604 -0.1660
 1795BOLB   GL343071   5.987   9.171  11.182  0.2047 -0.3235 -0.1731
 1795BOLB   GL443072   5.695   8.896  11.102 -0.1763 -0.3280 -0.2938
 1795BOLB   C1C43073   5.896   9.645  11.257  0.1053 -0.0220 -0.2413
 1795BOLB   C2C43074   5.916  10.090  11.294 -0.4489  0.0592  0.0743
 1795BOLB   C3C43075   5.920  10.583  11.405  0.0454 -0.0955  0.2647
 1795BOLB   C4C43076   5.948  11.061  11.462  0.0150  0.0576  0.0649
 1795BOLB   C1D43077   5.458   9.413  11.098  0.0998  0.3781 -0.0747
 1795BOLB   C2D43078   5.330   9.670  11.377  0.2459 -0.2770 -0.2057
 1795BOLB   C3D43079   5.407  10.020  11.543 -0.0640 -0.4167 -0.0910
 1795BOLB   C4D43080   5.260  10.332  11.623  0.0876 -0.2823 -0.0233
 1796BOLB   NC143081  14.150  15.001   2.087  0.0804  0.1743 -0.0201
 1796BOLB   PO143082  14.089  15.395   1.865  0.1878  0.2488 -0.1636
 1796BOLB   GL143083  13.704  15.608   2.068 -0.0173  0.2792  0.3195
 1796BOLB   GL243084  13.426  15.705   1.783 -0.1347  0.2075  0.1277
 1796BOLB   C1A43085  13.356  15.905   2.257 -0.1653 -0.3514  0.2403
 1796BOLB   C2A43086  12.991  16.191   2.482 -0.1128 -0.0334 -0.0321
 1796BOLB   C3A43087  12.831  16.023   2.883 -0.1871 -0.0446  0.0968
 1796BOLB   C4A43088  13.034  15.945   3.263 -0.4923  0.3456  0.2315
 1796BOLB   C1B43089  13.211  16.106   1.858  0.3906 -0.3040 -0.2093
 1796BOLB   C2B43090  12.807  16.204   1.989 -0.1468 -0.4483  0.0928
 1796BOLB   C3B43091  12.544  16.477   2.092 -0.0963 -0.4823  0.0378
 1796BOLB   C4B43092  12.429  16.818   2.400  0.4062  0.0318  0.1446
 1796BOLB   NC243093  14.611  14.762   2.233 -0.0437 -0.2116  0.2937
 1796BOLB   PO243094  14.732  15.241   2.231  0.2094  0.0058  0.1569
 1796BOLB   GL343095  14.423  15.470   2.458 -0.0106 -0.0532  0.4056
 1796BOLB   GL443096  14.563  15.810   2.549  0.1667  0.3266 -0.3999
 1796BOLB   C1C43097  14.237  15.415   2.827 -0.4182  0.0277  0.2104
 1796BOLB   C2C43098  13.958  15.381   3.151 -0.0276  0.1378 -0.1950
 1796BOLB   C3C43099  13.798  15.631   3.534 -0.1253 -0.3263 -0.1106
 1796BOLB   C4C43100  13.490  15.898   3.560  0.2798 -0.1089 -0.0709
 1796BOLB   C1D43101  14.272  16.036   2.711  0.0633 -0.0166  0.4164
 1796BOLB   C2D43102  13.958  16.430   2.649 -0.2396 -0.2254  0.0318
 1796BOLB   C3D43103  13.670  16.668   2.965  0.1464  0.1349 -0.1273
 1796BOLB   C4D43104  13.390  16.717   3.383  0.1168 -0.4444  0.0520
 1797BOLB   NC143105   3.529  26.110   5.658 -0.0692 -0.2235 -0.1214
 1797BOLB   PO143106   3.700  26.093   5.325 -0.0707 -0.0709  0.1311
 1797BOLB   GL143107   3.718  26.523   5.115  0.3100  0.0207 -0.3077
 1797BOLB   GL243108   3.841  26.489   4.793 -0.1546  0.5228  0.0392
 1797BOLB   C1A43109   3.653  27.003   4.906  0.0136 -0.1619 -0.3039
 1797BOLB   C2A43110   3.651  27.142   4.547  0.0942  0.3274 -0.0322
 1797BOLB   C3A43111   3.712  27.337   4.213 -0.0406 -0.3001  0.4178
 1797BOLB   C4A43112   3.933  27.380   3.829  0.0169 -0.2620 -0.3420
 1797BOLB   C1B43113   4.026  26.809   4.616 -0.4585 -0.1704  0.0849
 1797BOLB   C2B43114   4.197  27.143   4.440  0.2297  0.2100 -0.1269
 1797BOLB   C3B43115   4.414  27.322   4.166  0.0181  0.0302  0.5295
 1797BOLB   C4B43116   4.435  27.695   4.012  0.1561  0.1450  0.3698
 1797BOLB   NC243117   3.930  28.323   1.389  0.1889 -0.0784 -0.0271
 1797BOLB   PO243118   3.631  28.438   1.759  0.1248  0.1074 -0.0294
 1797BOLB   GL343119   3.927  28.346   2.034 -0.1569  0.1412 -0.3683
 1797BOLB   GL443120   3.955  28.649   2.282  0.4482 -0.1704 -0.0310
 1797BOLB   C1C43121   3.986  28.137   2.302  0.2338  0.3253  0.0419
 1797BOLB   C2C43122   3.947  27.945   2.738 -0.2760  0.0583 -0.2517
 1797BOLB   C3C43123   4.134  27.928   3.156  0.1156 -0.0292  0.0698
 1797BOLB   C4C43124   4.157  27.730   3.523  0.2502 -0.0669  0.0990
 1797BOLB   C1D43125   3.805  28.454   2.607  0.2461  0.3373 -0.1819
 1797BOLB   C2D43126   3.512  28.133   2.515 -0.0800  0.2315  0.2968
 1797BOLB   C3D43127   3.582  27.784   2.430 -0.2484  0.3609  0.1885
 1797BOLB   C4D43128   3.677  27.374   2.588 -0.0279 -0.1737  0.0305
 1798BOLB   NC143129   3.826  32.789   8.079  0.0576 -0.0861  0.1530
 1798BOLB   PO143130   4.200  32.693   7.849  0.2218  0.1790  0.0273
 1798BOLB   GL143131   4.014  32.297   8.054 -0.0295  0.0652  0.0844
 1798BOLB   GL243132   3.691  32.240   8.165  0.1709  0.0670  0.0489
 1798BOLB   C1A43133   4.244  32.205   8.352  0.1305  0.0036  0.0349
 1798BOLB   C2A43134   4.270  31.831   8.452 -0.1953  0.0841  0.1594
 1798BOLB   C3A43135   4.333  31.512   8.738  0.2073  0.1800 -0.1125
 1798BOLB   C4A43136   4.693  31.231   8.869  0.1175 -0.1523 -0.3618
 1798BOLB   C1B43137   3.791  31.746   8.345  0.2443 -0.4053  0.0545
 1798BOLB   C2B43138   3.760  31.628   8.781 -0.2234  0.2339  0.3120
 1798BOLB   C3B43139   3.975  31.201   8.967  0.3809  0.1140 -0.3243
 1798BOLB   C4B43140   4.225  30.926   9.129 -0.1406 -0.0892  0.1965
 1798BOLB   NC243141   5.415  29.034   9.280 -0.1735 -0.1599  0.0374
 1798BOLB   PO243142   5.261  28.987   8.933  0.1289 -0.1955  0.1828
 1798BOLB   GL343143   4.963  29.270   8.988 -0.1024 -0.1844 -0.3733
 1798BOLB   GL443144   5.011  29.370   9.286 -0.2783  0.1766 -0.0684
 1798BOLB   C1C43145   4.875  29.656   8.762  0.0585 -0.2437 -0.1240
 1798BOLB   C2C43146   4.926  30.096   8.527  0.0920  0.4999  0.2350
 1798BOLB   C3C43147   4.874  30.495   8.614  0.4532  0.0063 -0.0797
 1798BOLB   C4C43148   4.750  30.866   8.844 -0.3135  0.4035  0.1356
 1798BOLB   C1D43149   5.355  29.665   9.320  0.3517  0.0415 -0.3104
 1798BOLB   C2D43150   5.446  30.140   9.272 -0.0624  0.1346 -0.1544
 1798BOLB   C3D43151   5.638  30.488   9.145  0.1525 -0.3440  0.0204
 1798BOLB   C4D43152   5.820  30.791   9.152 -0.0681  0.0120 -0.0445
 1799BOLB   NC143153   2.854  25.044   4.730  0.0747 -0.0994  0.1946
 1799BOLB   PO143154   2.975  25.440   4.863  0.1680 -0.1201 -0.0946
 1799BOLB   GL143155   2.634  25.800   4.655  0.2386  0.0254  0.1594
 1799BOLB   GL243156   2.698  26.112   4.503 -0.0287 -0.2155  0.6237
 1799BOLB   C1A43157   2.137  25.772   4.714  0.2427  0.0748  0.0340
 1799BOLB   C2A43158   1.702  26.009   4.771  0.0851 -0.2069 -0.1503
 1799BOLB   C3A43159   1.276  26.134   4.802  0.3375  0.2782 -0.1309
 1799BOLB   C4A43160   0.913  26.343   4.711 -0.0432 -0.3690  0.0200
 1799BOLB   C1B43161   2.849  26.538   4.498  0.2594 -0.2441  0.1394
 1799BOLB   C2B43162   2.680  26.977   4.399 -0.2876 -0.0365  0.2323
 1799BOLB   C3B43163   2.550  27.199   4.047 -0.0289 -0.1146  0.1493
 1799BOLB   C4B43164   2.156  27.479   4.044 -0.3115 -0.1838 -0.0837
 1799BOLB   NC243165   0.024  27.695   2.954 -0.1685  0.1488  0.1142
 1799BOLB   PO243166  -0.405  27.642   3.075  0.0475 -0.1955  0.4864
 1799BOLB   GL343167  -0.132  27.432   3.487  0.0951  0.1669  0.0622
 1799BOLB   GL443168  -0.261  27.429   3.782 -0.1057  0.0011 -0.0814
 1799BOLB   C1C43169   0.102  27.138   3.728  0.1646  0.0139 -0.1692
 1799BOLB   C2C43170   0.179  26.971   4.014 -0.0629  0.3398  0.0941
 1799BOLB   C3C43171   0.354  26.657   4.202  0.3504  0.3169  0.1339
 1799BOLB   C4C43172   0.687  26.519   4.339  0.0530 -0.1141  0.2629
 1799BOLB   C1D43173  -0.040  27.405   4.203 -0.1880  0.2773 -0.2563
 1799BOLB   C2D43174   0.109  27.014   4.542 -0.0235 -0.2822  0.1706
 1799BOLB   C3D43175   0.556  27.003   4.518 -0.2288 -0.2296 -0.0313
 1799BOLB   C4D43176   0.931  26.889   4.707 -0.3088 -0.3296 -0.0634
 1800BOLB   NC143177  16.228  14.727  13.181 -0.1193 -0.1312 -0.0993
 1800BOLB   PO143178  16.314  15.135  13.159  0.1973  0.0049 -0.0360
 1800BOLB   GL143179  16.233  15.493  13.151  0.1803  0.0531  0.0232
 1800BOLB   GL243180  16.303  15.858  13.281  0.1833 -0.2233 -0.1391
 1800BOLB   C1A43181  15.905  15.763  13.031 -0.1020  0.0103 -0.3182
 1800BOLB   C2A43182  15.714  16.118  12.925 -0.1399  0.0252 -0.0000
 1800BOLB   C3A43183  15.581  16.532  12.942 -0.0757 -0.1976 -0.1137
 1800BOLB   C4A43184  15.625  16.685  13.389 -0.1268 -0.3022  0.2816
 1800BOLB   C1B43185  16.035  16.271  13.426 -0.3136 -0.0987 -0.1177
 1800BOLB   C2B43186  15.707  16.379  13.782  0.0659  0.0897  0.3162
 1800BOLB   C3B43187  15.673  16.504  14.188  0.0593  0.1896  0.2236
 1800BOLB   C4B43188  15.357  16.885  14.240  0.0077  0.2171 -0.3214
 1800BOLB   NC243189  16.210  15.561  15.040  0.0702 -0.0733 -0.0532
 1800BOLB   PO243190  16.047  16.000  15.027 -0.3731 -0.1732 -0.0395
 1800BOLB   GL343191  15.687  16.119  14.923  0.0106 -0.0883 -0.1848
 1800BOLB   GL443192  15.461  15.961  15.222  0.1710 -0.1190  0.2532
 1800BOLB   C1C43193  15.616  16.505  14.651  0.2916  0.1028 -0.0775
 1800BOLB   C2C43194  15.789  16.873  14.518  0.0913 -0.4656  0.2451
 1800BOLB   C3C43195  15.846  16.922  14.052 -0.1883  0.0601 -0.1429
 1800BOLB   C4C43196  15.501  16.885  13.751 -0.1251 -0.0675  0.3738
 1800BOLB   C1D43197  15.084  16.121  15.450 -0.2060  0.0603  0.1703
 1800BOLB   C2D43198  14.803  16.461  15.470 -0.3219 -0.1082  0.1364
 1800BOLB   C3D43199  14.607  16.687  15.787  0.0296 -0.4433 -0.0400
 1800BOLB   C4D43200  14.246  16.875  15.970  0.1339  0.1533  0.2364
 1801BOLB   NC143201   5.155  28.281  13.661 -0.0989  0.1900  0.0217
 1801BOLB   PO143202   4.778  28.249  13.478  0.1477 -0.0128  0.0002
 1801BOLB   GL143203   4.735  28.602  13.758  0.2693  0.0116 -0.2763
 1801BOLB   GL243204   4.535  28.780  13.662  0.2517 -0.1345  0.2225
 1801BOLB   C1A43205   4.768  28.929  14.111  0.1108 -0.2087  0.1194
 1801BOLB   C2A43206   4.698  29.339  14.276 -0.0311  0.0323 -0.0526
 1801BOLB   C3A43207   4.673  29.807  14.309  0.2642 -0.1345  0.0984
 1801BOLB   C4A43208   4.511  30.308  14.301  0.1329  0.1930 -0.2863
 1801BOLB   C1B43209   4.915  29.098  13.665  0.0470  0.0115  0.2533
 1801BOLB   C2B43210   5.241  29.421  13.743 -0.1777 -0.0198 -0.0091
 1801BOLB   C3B43211   5.521  29.769  13.972 -0.1457  0.3535 -0.0711
 1801BOLB   C4B43212   5.541  30.240  13.866 -0.0257  0.2343 -0.0643
 1801BOLB   NC243213   4.437  32.207  14.336 -0.0723  0.4291  0.2221
 1801BOLB   PO243214   4.876  32.245  14.162  0.0640  0.3333  0.1715
 1801BOLB   GL343215   4.746  31.884  13.936 -0.1449 -0.1128  0.0758
 1801BOLB   GL443216   4.879  32.031  13.621 -0.3214 -0.1087  0.0556
 1801BOLB   C1C43217   4.404  31.639  13.982  0.1716  0.1214 -0.0194
 1801BOLB   C2C43218   4.156  31.279  14.089 -0.2148 -0.3350  0.1422
 1801BOLB   C3C43219   4.131  30.939  13.975 -0.1402  0.1462 -0.0208
 1801BOLB   C4C43220   4.203  30.592  14.202 -0.0815  0.1365 -0.0354
 1801BOLB   C1D43221   5.137  31.577  13.687  0.4668 -0.0845  0.0846
 1801BOLB   C2D43222   5.147  31.196  13.607  0.0261 -0.1956 -0.2396
 1801BOLB   C3D43223   5.088  30.732  13.420  0.0021  0.1174  0.1313
 1801BOLB   C4D43224   5.014  30.494  13.055  0.1054 -0.1458 -0.1905
 1802BOLB   NC143225   9.433  27.884  14.360  0.0279  0.0564  0.1719
 1802BOLB   PO143226   9.861  28.014  14.404 -0.0547  0.0599 -0.1408
 1802BOLB   GL143227   9.951  28.061  14.882 -0.1155 -0.0176  0.2781
 1802BOLB   GL243228  10.027  27.764  15.010 -0.1170  0.0285  0.0439
 1802BOLB   C1A43229  10.041  28.371  15.170  0.0720  0.1009  0.1631
 1802BOLB   C2A43230  10.270  28.443  15.515 -0.2937 -0.2723  0.3369
 1802BOLB   C3A43231  10.506  28.765  15.566 -0.3074  0.2149  0.0010
 1802BOLB   C4A43232  10.394  29.231  15.507  0.0720  0.0130 -0.2937
 1802BOLB   C1B43233  10.352  27.988  15.309 -0.0727  0.2557  0.1054
 1802BOLB   C2B43234  10.689  28.190  15.592 -0.2198 -0.5244 -0.1510
 1802BOLB   C3B43235  10.610  28.473  15.957 -0.1435  0.1353  0.0326
 1802BOLB   C4B43236  10.497  28.671  16.305 -0.1836 -0.2637 -0.1365
 1802BOLB   NC243237  10.598  31.375  16.500  0.3520  0.2437 -0.4783
 1802BOLB   PO243238  10.594  31.507  16.049  0.0165  0.2791  0.3180
 1802BOLB   GL343239  10.514  31.087  15.925 -0.1186 -0.3775  0.1058
 1802BOLB   GL443240  10.756  30.886  15.750 -0.0518  0.0770 -0.0736
 1802BOLB   C1C43241  10.409  30.643  16.043 -0.1068 -0.1747  0.0138
 1802BOLB   C2C43242  10.207  30.409  15.689  0.0103 -0.0876 -0.1591
 1802BOLB   C3C43243  10.194  30.062  15.472  0.0398  0.0667  0.3458
 1802BOLB   C4C43244  10.169  29.667  15.454 -0.2272 -0.3311 -0.1560
 1802BOLB   C1D43245  10.901  30.490  15.636  0.2306 -0.3777 -0.0594
 1802BOLB   C2D43246  10.654  30.055  15.612  0.1419  0.0663  0.2452
 1802BOLB   C3D43247  10.691  29.696  15.363  0.0170  0.0304  0.2548
 1802BOLB   C4D43248  10.511  29.430  15.072 -0.0056 -0.0685 -0.4018
 1803BOLB   NC143249   1.592  27.196   8.750 -0.1725  0.0453  0.1084
 1803BOLB   PO143250   1.807  27.230   9.217 -0.2775 -0.0499  0.3806
 1803BOLB   GL143251   1.795  27.631   8.928 -0.0727  0.0092 -0.1853
 1803BOLB   GL243252   1.616  27.808   9.068 -0.1386  0.0381 -0.0831
 1803BOLB   C1A43253   1.750  28.143   8.750 -0.0916 -0.1973  0.1950
 1803BOLB   C2A43254   1.776  28.565   8.822 -0.0772 -0.2548 -0.2281
 1803BOLB   C3A43255   1.787  29.019   8.924  0.0204 -0.1764 -0.2897
 1803BOLB   C4A43256   1.596  29.380   8.945  0.1477  0.1122 -0.0454
 1803BOLB   C1B43257   1.335  27.830   8.782 -0.1111 -0.0674  0.0581
 1803BOLB   C2B43258   1.245  27.693   8.448 -0.3604  0.1301  0.3265
 1803BOLB   C3B43259   0.871  27.499   8.281  0.0046 -0.0158  0.0889
 1803BOLB   C4B43260   0.550  27.567   8.326  0.2300 -0.1180  0.2374
 1803BOLB   NC243261   1.254  31.787   9.014  0.3346  0.1432 -0.3256
 1803BOLB   PO243262   1.640  31.935   8.876 -0.1580 -0.2394 -0.3574
 1803BOLB   GL343263   1.818  31.493   8.871 -0.0173  0.0146 -0.2049
 1803BOLB   GL443264   1.502  31.299   9.119  0.1150 -0.2487 -0.0627
 1803BOLB   C1C43265   1.794  31.010   8.828  0.2679 -0.1252  0.1656
 1803BOLB   C2C43266   1.491  30.676   8.971  0.0289 -0.3481  0.0560
 1803BOLB   C3C43267   1.507  30.214   9.138  0.1034 -0.2011  0.3215
 1803BOLB   C4C43268   1.481  29.753   8.979 -0.0408 -0.1548 -0.1418
 1803BOLB   C1D43269   1.975  31.345   9.309  0.0256  0.0911  0.2510
 1803BOLB   C2D43270   2.124  30.913   9.211 -0.1329 -0.3223  0.0670
 1803BOLB   C3D43271   2.170  30.702   8.908  0.2288  0.0167 -0.0319
 1803BOLB   C4D43272   1.938  30.416   8.922 -0.2931  0.2547 -0.2387
 1804BOLB   NC143273   9.793  14.662  13.306 -0.1361 -0.0330  0.5540
 1804BOLB   PO143274   9.503  14.499  13.506 -0.0139  0.3499  0.1479
 1804BOLB   GL143275   9.616  14.209  13.861 -0.2168  0.1709  0.3007
 1804BOLB   GL243276   9.625  14.274  14.108  0.1419  0.1532  0.0843
 1804BOLB   C1A43277   9.631  13.784  13.823  0.0398 -0.1513 -0.2763
 1804BOLB   C2A43278   9.505  13.419  13.689  0.0141  0.1227 -0.1412
 1804BOLB   C3A43279   9.602  12.937  13.627 -0.1955  0.3020  0.2404
 1804BOLB   C4A43280   9.814  12.593  13.545 -0.1697  0.1219  0.0069
 1804BOLB   C1B43281   9.700  13.961  14.420 -0.2228 -0.2337 -0.0874
 1804BOLB   C2B43282   9.631  13.559  14.242  0.0374 -0.1719  0.1147
 1804BOLB   C3B43283   9.457  13.192  14.220  0.0306  0.2102 -0.1134
 1804BOLB   C4B43284   9.299  12.780  14.425  0.0958  0.0845 -0.2541
 1804BOLB   NC243285  11.531  11.046  14.706  0.2222 -0.1821  0.2594
 1804BOLB   PO243286  11.256  10.934  14.366 -0.6344 -0.4590  0.0038
 1804BOLB   GL343287  11.165  11.378  14.384  0.1625 -0.0832 -0.2726
 1804BOLB   GL443288  11.438  11.515  14.464 -0.0697  0.0942  0.0645
 1804BOLB   C1C43289  10.866  11.727  14.496 -0.0161 -0.1465  0.2204
 1804BOLB   C2C43290  10.543  11.852  14.232 -0.3604 -0.2580 -0.2165
 1804BOLB   C3C43291  10.260  12.117  14.039 -0.1257 -0.0305 -0.0006
 1804BOLB   C4C43292  10.167  12.460  13.818  0.3861  0.4460 -0.1462
 1804BOLB   C1D43293  11.365  11.868  14.364 -0.0986 -0.1123 -0.1386
 1804BOLB   C2D43294  10.976  12.153  14.267  0.0130 -0.0113  0.2199
 1804BOLB   C3D43295  10.698  12.431  14.033 -0.1202 -0.0225  0.2797
 1804BOLB   C4D43296  10.703  12.707  13.648 -0.4069  0.2069 -0.0050
 1805BOLB   NC143297   5.204  27.743  14.315  0.0335  0.0029  0.0143
 1805BOLB   PO143298   5.406  27.994  14.056 -0.2171 -0.2593 -0.0483
 1805BOLB   GL143299   5.449  28.441  14.129  0.0865 -0.0633  0.1618
 1805BOLB   GL243300   5.177  28.655  14.336 -0.0981 -0.1703 -0.0090
 1805BOLB   C1A43301   5.641  28.815  14.217 -0.2478 -0.2640 -0.0956
 1805BOLB   C2A43302   5.761  29.276  14.173 -0.1136 -0.0113 -0.1291
 1805BOLB   C3A43303   5.622  29.614  14.431 -0.0970 -0.0004  0.0818
 1805BOLB   C4A43304   5.610  29.824  14.645 -0.0054 -0.0081 -0.2282
 1805BOLB   C1B43305   4.939  28.873  14.544 -0.1417  0.1163  0.1832
 1805BOLB   C2B43306   4.890  29.230  14.715  0.1247 -0.5755  0.0368
 1805BOLB   C3B43307   4.522  29.551  14.690  0.2564  0.0806 -0.0769
 1805BOLB   C4B43308   4.475  29.913  14.773 -0.1139  0.0492 -0.1523
 1805BOLB   NC243309   3.733  31.757  15.241 -0.1925  0.0965  0.4871
 1805BOLB   PO243310   3.916  31.447  15.559  0.2512 -0.2342  0.3233
 1805BOLB   GL343311   4.024  30.996  15.477 -0.1128  0.2971  0.1945
 1805BOLB   GL443312   3.751  30.816  15.605 -0.1499  0.2788 -0.0454
 1805BOLB   C1C43313   4.423  30.715  15.452 -0.2667 -0.0921  0.2305
 1805BOLB   C2C43314   4.777  30.467  15.227  0.0172  0.1547  0.1696
 1805BOLB   C3C43315   5.117  30.212  15.152 -0.0883 -0.2787 -0.2759
 1805BOLB   C4C43316   5.358  30.183  14.839  0.1721  0.2914 -0.1490
 1805BOLB   C1D43317   3.633  30.641  15.196  0.0315  0.1515  0.1912
 1805BOLB   C2D43318   3.215  30.564  15.073 -0.1869 -0.1656  0.1903
 1805BOLB   C3D43319   2.966  30.275  14.963  0.0180  0.1811  0.1174
 1805BOLB   C4D43320   2.596  30.234  14.708  0.2144  0.4187  0.0506
 1806BOLB   NC143321   4.978  15.773   4.145  0.0859  0.0793 -0.1459
 1806BOLB   PO143322   5.051  15.463   3.889  0.1748  0.1799  0.0008
 1806BOLB   GL143323   4.927  15.354   3.528 -0.0949  0.1335 -0.0464
 1806BOLB   GL243324   5.234  15.303   3.276 -0.0980  0.0926 -0.0039
 1806BOLB   C1A43325   4.795  14.954   3.442  0.0314  0.0058  0.2342
 1806BOLB   C2A43326   4.430  14.800   3.260 -0.5299 -0.0901  0.5187
 1806BOLB   C3A43327   4.198  14.518   2.909  0.0841  0.2440 -0.0643
 1806BOLB   C4A43328   4.106  14.208   2.627  0.0904 -0.1151  0.2460
 1806BOLB   C1B43329   5.285  15.192   2.884  0.2264 -0.2195 -0.0765
 1806BOLB   C2B43330   5.270  14.974   2.461 -0.2698 -0.2950 -0.1929
 1806BOLB   C3B43331   5.583  14.748   2.289 -0.1081 -0.0973  0.2357
 1806BOLB   C4B43332   5.506  14.309   2.022  0.2484 -0.0347 -0.1653
 1806BOLB   NC243333   4.316  13.085   0.656  0.1893  0.0343 -0.1711
 1806BOLB   PO243334   4.318  12.701   0.983  0.2269  0.1779  0.2085
 1806BOLB   GL343335   4.174  12.972   1.317 -0.3148 -0.0127 -0.0436
 1806BOLB   GL443336   3.845  13.114   1.425  0.0770 -0.2972  0.1550
 1806BOLB   C1C43337   4.135  12.884   1.782 -0.0699  0.1553  0.3809
 1806BOLB   C2C43338   3.900  13.110   2.022  0.2359  0.0071 -0.0877
 1806BOLB   C3C43339   3.929  13.431   2.227  0.1396 -0.2297 -0.3383
 1806BOLB   C4C43340   3.941  13.832   2.490 -0.0725  0.1191  0.2870
 1806BOLB   C1D43341   3.713  13.426   1.633 -0.0867  0.2110  0.2542
 1806BOLB   C2D43342   3.427  13.629   1.945 -0.0803 -0.3749  0.3736
 1806BOLB   C3D43343   2.957  13.692   2.059 -0.0658 -0.0525 -0.1511
 1806BOLB   C4D43344   2.734  13.277   2.141  0.2945  0.1427 -0.0071
 1807BOLB   NC143345   8.496  26.808   5.638 -0.2220 -0.2167 -0.3220
 1807BOLB   PO143346   8.253  27.192   5.677 -0.0163 -0.0480 -0.1440
 1807BOLB   GL143347   8.454  27.598   5.647 -0.3382  0.2897  0.0721
 1807BOLB   GL243348   8.218  27.854   5.529  0.1725 -0.4140 -0.1360
 1807BOLB   C1A43349   8.740  28.004   5.426  0.0693  0.0539 -0.1856
 1807BOLB   C2A43350   8.795  28.461   5.310  0.3257  0.1231 -0.0555
 1807BOLB   C3A43351   8.882  28.770   4.980  0.1799  0.1165  0.0623
 1807BOLB   C4A43352   8.998  28.880   4.563 -0.0026 -0.0679  0.0527
 1807BOLB   C1B43353   8.283  28.360   5.564 -0.0761  0.0709  0.0467
 1807BOLB   C2B43354   8.292  28.504   5.219  0.2622 -0.3051 -0.0742
 1807BOLB   C3B43355   8.383  28.777   4.940  0.2053  0.1728 -0.0066
 1807BOLB   C4B43356   8.453  28.861   4.527  0.1334 -0.0476  0.0336
 1807BOLB   NC243357  10.166  30.519   3.223  0.0318  0.0830 -0.2691
 1807BOLB   PO243358  10.093  30.072   3.128  0.0766  0.3655  0.1527
 1807BOLB   GL343359   9.810  29.779   3.345 -0.3139  0.0705  0.0471
 1807BOLB   GL443360  10.043  29.369   3.406  0.1021  0.0464 -0.0345
 1807BOLB   C1C43361   9.344  29.611   3.290  0.0260 -0.0042  0.2100
 1807BOLB   C2C43362   9.057  29.269   3.372 -0.0809 -0.1751 -0.0105
 1807BOLB   C3C43363   9.043  28.898   3.703 -0.2162 -0.0986  0.0927
 1807BOLB   C4C43364   8.910  28.775   4.163  0.0831  0.2260 -0.1428
 1807BOLB   C1D43365  10.075  29.471   3.804  0.2661 -0.1571  0.0606
 1807BOLB   C2D43366  10.037  29.586   4.268  0.1097 -0.3570  0.0058
 1807BOLB   C3D43367   9.689  29.619   4.595 -0.0904  0.0860  0.0400
 1807BOLB   C4D43368   9.487  29.328   4.786 -0.4385  0.2204  0.3084
 1808BOLB   NC143369  11.211  22.375  16.894 -0.1705 -0.0073 -0.1272
 1808BOLB   PO143370  11.424  22.806  16.691 -0.1885  0.1209 -0.0024
 1808BOLB   GL143371  11.631  22.756  17.179  0.0232  0.0328 -0.1685
 1808BOLB   GL243372  11.768  22.627  17.452  0.1714 -0.1179  0.1332
 1808BOLB   C1A43373  12.072  22.985  17.286  0.1411  0.0327  0.1226
 1808BOLB   C2A43374  12.357  23.283  17.590 -0.0673 -0.3752  0.1002
 1808BOLB   C3A43375  12.700  23.565  17.676 -0.0410  0.2007  0.0981
 1808BOLB   C4A43376  12.872  23.602  18.067 -0.1075  0.4983 -0.1584
 1808BOLB   C1B43377  12.050  22.702  17.707  0.1036  0.1980 -0.0421
 1808BOLB   C2B43378  12.230  22.416  17.942 -0.2458  0.0478 -0.1058
 1808BOLB   C3B43379  12.470  22.067  18.130 -0.4240 -0.0776 -0.0154
 1808BOLB   C4B43380  12.815  22.169  18.437  0.1893  0.2103 -0.1023
 1808BOLB   NC243381  13.951  23.455  20.452  0.2074  0.1447 -0.2491
 1808BOLB   PO243382  13.831  23.873  20.309  0.0462  0.0891 -0.2248
 1808BOLB   GL343383  13.547  23.754  19.987  0.0890  0.1966  0.0872
 1808BOLB   GL443384  13.536  23.421  20.091  0.2161 -0.1913  0.3708
 1808BOLB   C1C43385  13.309  23.892  19.637  0.1582 -0.0213  0.0443
 1808BOLB   C2C43386  13.226  23.934  19.274  0.3844  0.1927  0.0910
 1808BOLB   C3C43387  13.351  23.847  18.856 -0.2181  0.0350 -0.1458
 1808BOLB   C4C43388  13.116  23.784  18.487 -0.1256 -0.1122 -0.2821
 1808BOLB   C1D43389  13.245  23.188  19.873  0.0489 -0.2207 -0.1144
 1808BOLB   C2D43390  12.982  23.030  19.511  0.1769  0.2010  0.2192
 1808BOLB   C3D43391  12.728  23.065  19.064 -0.0420 -0.1048  0.2253
 1808BOLB   C4D43392  12.512  22.893  18.682  0.0569  0.1314 -0.1340
 1809BOLB   NC143393  35.817   8.257   7.356  0.0865 -0.0829  0.0833
 1809BOLB   PO143394  35.606   8.510   7.597  0.2187 -0.1394 -0.2414
 1809BOLB   GL143395  36.007   8.710   7.565 -0.2498  0.0064 -0.3055
 1809BOLB   GL243396  36.021   8.734   7.891 -0.2427 -0.0542 -0.0128
 1809BOLB   C1A43397  36.210   9.154   7.543 -0.0537  0.0096 -0.1872
 1809BOLB   C2A43398  36.580   9.208   7.367 -0.0166 -0.2328  0.3520
 1809BOLB   C3A43399  36.878   9.349   7.528  0.2545 -0.0101 -0.0028
 1809BOLB   C4A43400  37.305   9.316   7.556  0.0868  0.1416 -0.0758
 1809BOLB   C1B43401  36.372   8.937   7.955 -0.0052 -0.0281  0.0716
 1809BOLB   C2B43402  36.519   9.342   7.903  0.0066 -0.0046  0.0332
 1809BOLB   C3B43403  36.748   9.715   7.972  0.1876 -0.0043 -0.1332
 1809BOLB   C4B43404  36.842  10.194   7.971  0.0048 -0.0327  0.0654
 1809BOLB   NC243405  36.435   8.370   5.686 -0.0622  0.2271  0.0593
 1809BOLB   PO243406  36.653   8.295   6.028  0.0627 -0.0298 -0.1526
 1809BOLB   GL343407  37.008   8.488   6.261  0.1191 -0.0573 -0.0630
 1809BOLB   GL443408  37.017   8.846   6.326 -0.0822 -0.1170  0.3029
 1809BOLB   C1C43409  37.382   8.451   6.353  0.1293  0.0611  0.1199
 1809BOLB   C2C43410  37.604   8.747   6.542  0.1487 -0.2323 -0.0296
 1809BOLB   C3C43411  37.743   9.038   6.745 -0.0527 -0.0341 -0.0689
 1809BOLB   C4C43412  37.563   9.214   7.113  0.1992 -0.1196 -0.1545
 1809BOLB   C1D43413  36.813   9.247   6.419 -0.4331  0.1941 -0.1408
 1809BOLB   C2D43414  36.927   9.642   6.502 -0.2065  0.0189  0.2584
 1809BOLB   C3D43415  37.204   9.940   6.540  0.1099  0.0476  0.1528
 1809BOLB   C4D43416  37.361  10.151   6.982 -0.4718 -0.0773  0.2258
 1810BOLB   NC143417  11.485  17.560  15.359 -0.2089  0.2265  0.0817
 1810BOLB   PO143418  11.452  17.348  14.946 -0.1770 -0.0590  0.3734
 1810BOLB   GL143419  11.678  17.040  15.147 -0.0839  0.3715  0.1627
 1810BOLB   GL243420  11.510  16.737  15.213 -0.0815 -0.2727 -0.0677
 1810BOLB   C1A43421  11.953  16.786  15.465 -0.0153 -0.0118 -0.1182
 1810BOLB   C2A43422  12.400  16.583  15.554 -0.0362 -0.1764  0.2946
 1810BOLB   C3A43423  12.848  16.457  15.315 -0.1744  0.0955  0.0848
 1810BOLB   C4A43424  13.092  16.149  15.453 -0.1258  0.3095 -0.3924
 1810BOLB   C1B43425  11.811  16.625  14.847  0.1009  0.1737 -0.0111
 1810BOLB   C2B43426  12.303  16.553  14.973  0.0241 -0.2608  0.1317
 1810BOLB   C3B43427  12.765  16.511  14.839  0.0439 -0.1562 -0.0766
 1810BOLB   C4B43428  13.129  16.356  14.921 -0.2023  0.2807 -0.0163
 1810BOLB   NC243429  14.722  14.331  16.215 -0.1997 -0.1143  0.0142
 1810BOLB   PO243430  14.423  14.382  15.905  0.1222  0.1414  0.1291
 1810BOLB   GL343431  13.983  14.420  15.788  0.0775 -0.0654 -0.0336
 1810BOLB   GL443432  13.858  14.247  15.553 -0.0488 -0.0994  0.0693
 1810BOLB   C1C43433  13.760  14.774  15.710 -0.1359  0.0512 -0.0259
 1810BOLB   C2C43434  13.604  15.081  15.442 -0.0214 -0.3475 -0.2411
 1810BOLB   C3C43435  13.582  15.512  15.445  0.1954 -0.0529 -0.2940
 1810BOLB   C4C43436  13.333  15.852  15.261 -0.0264  0.1128 -0.1470
 1810BOLB   C1D43437  13.569  14.494  15.215  0.2713 -0.3178  0.0489
 1810BOLB   C2D43438  13.435  14.727  15.073  0.0808 -0.0438 -0.3575
 1810BOLB   C3D43439  13.263  14.874  14.808  0.1191 -0.0455  0.2472
 1810BOLB   C4D43440  13.284  15.315  14.505  0.0590  0.0071 -0.2342
 1811BOLB   NC143441   8.083  27.884   6.480 -0.2506  0.3991  0.2315
 1811BOLB   PO143442   7.689  27.939   6.277 -0.0719  0.2451 -0.3897
 1811BOLB   GL143443   7.837  28.376   6.211  0.2459 -0.1132  0.2781
 1811BOLB   GL243444   7.696  28.560   5.946 -0.2060 -0.2890 -0.0188
 1811BOLB   C1A43445   7.982  28.813   6.310 -0.1100 -0.0242 -0.0890
 1811BOLB   C2A43446   8.005  29.285   6.402 -0.4325  0.0513 -0.2718
 1811BOLB   C3A43447   8.039  29.621   6.262 -0.2701 -0.1045  0.1326
 1811BOLB   C4A43448   8.083  30.097   6.302 -0.1816 -0.1299 -0.1574
 1811BOLB   C1B43449   7.838  28.526   5.497 -0.1526  0.3014  0.1230
 1811BOLB   C2B43450   7.867  28.384   4.973 -0.0802 -0.0356 -0.0411
 1811BOLB   C3B43451   8.087  28.470   4.577 -0.2293  0.4659 -0.1200
 1811BOLB   C4B43452   8.302  28.205   4.429  0.0359  0.1068 -0.1018
 1811BOLB   NC243453   8.239  32.981   6.598  0.0580  0.1271  0.1846
 1811BOLB   PO243454   8.127  32.795   7.002 -0.2273  0.3241  0.0688
 1811BOLB   GL343455   8.111  32.313   6.783 -0.1602 -0.1690 -0.0879
 1811BOLB   GL443456   8.404  32.262   6.602 -0.3181  0.2318  0.1430
 1811BOLB   C1C43457   8.027  31.833   6.741 -0.2126 -0.0589 -0.2158
 1811BOLB   C2C43458   7.999  31.394   6.783 -0.2269  0.0717  0.0230
 1811BOLB   C3C43459   7.939  30.942   6.613  0.3003  0.0598  0.1374
 1811BOLB   C4C43460   8.092  30.546   6.457 -0.2574  0.4484 -0.0841
 1811BOLB   C1D43461   8.002  32.097   6.349  0.1277 -0.1388 -0.0855
 1811BOLB   C2D43462   7.794  31.655   6.220 -0.3240 -0.0070 -0.2588
 1811BOLB   C3D43463   7.858  31.242   6.260 -0.1216  0.0724 -0.1363
 1811BOLB   C4D43464   7.827  30.849   6.100 -0.0144  0.1246 -0.0515
 1812BOLB   NC143465  15.142  20.015   7.735  0.1891 -0.1052  0.1501
 1812BOLB   PO143466  15.237  20.375   8.049 -0.0391 -0.0474 -0.0366
 1812BOLB   GL143467  15.649  20.289   8.179 -0.4379  0.4720 -0.0729
 1812BOLB   GL243468  15.767  20.104   8.518  0.1629  0.4555  0.0336
 1812BOLB   C1A43469  16.151  20.277   8.205  0.1695 -0.0044 -0.3265
 1812BOLB   C2A43470  16.515  20.199   7.851 -0.0020  0.2536 -0.2663
 1812BOLB   C3A43471  16.815  20.514   7.678 -0.0330  0.2477 -0.1458
 1812BOLB   C4A43472  17.221  20.538   7.549 -0.0775 -0.3309  0.0864
 1812BOLB   C1B43473  16.136  20.217   8.752  0.0145  0.4150 -0.3978
 1812BOLB   C2B43474  16.471  20.481   8.665 -0.0962 -0.0024  0.2382
 1812BOLB   C3B43475  16.889  20.768   8.629  0.2653  0.1869 -0.0475
 1812BOLB   C4B43476  17.039  21.128   8.496 -0.1133 -0.0478  0.1016
 1812BOLB   NC243477  19.318  20.772   8.173  0.0890 -0.1134 -0.0556
 1812BOLB   PO243478  19.501  20.906   7.833  0.1408 -0.2888 -0.1395
 1812BOLB   GL343479  18.979  21.078   7.939  0.0959  0.4034  0.3177
 1812BOLB   GL443480  18.929  20.982   8.302 -0.2778  0.4398 -0.1703
 1812BOLB   C1C43481  18.740  20.795   7.867 -0.2143  0.1218 -0.1860
 1812BOLB   C2C43482  18.358  20.836   7.893 -0.1544 -0.0856  0.0463
 1812BOLB   C3C43483  17.917  20.901   7.661 -0.0105  0.0236  0.1351
 1812BOLB   C4C43484  17.559  20.897   7.439 -0.3254 -0.3189 -0.2567
 1812BOLB   C1D43485  18.555  20.987   8.388 -0.1093 -0.2444 -0.1109
 1812BOLB   C2D43486  18.123  21.043   8.551 -0.1097  0.1412 -0.0195
 1812BOLB   C3D43487  17.648  21.251   8.532  0.1087 -0.1759 -0.0073
 1812BOLB   C4D43488  17.242  21.665   8.616 -0.0972  0.0971 -0.1688
 1813BOLB   NC143489   0.624  24.933   5.942 -0.3638 -0.1701  0.0164
 1813BOLB   PO143490   1.019  25.184   5.865  0.1709  0.1060  0.0805
 1813BOLB   GL143491   0.786  25.451   5.713  0.2410  0.0193  0.0494
 1813BOLB   GL243492   0.532  25.437   5.819  0.0159  0.0825  0.0041
 1813BOLB   C1A43493   0.638  25.808   5.494  0.1921  0.1828 -0.0762
 1813BOLB   C2A43494   0.650  26.189   5.211  0.0069  0.2884 -0.5511
 1813BOLB   C3A43495   0.803  26.629   5.130  0.4225 -0.0534 -0.0044
 1813BOLB   C4A43496   0.884  27.047   5.195  0.1633 -0.0513 -0.0120
 1813BOLB   C1B43497   0.205  25.673   5.739 -0.1321  0.1095  0.2112
 1813BOLB   C2B43498  -0.064  25.955   5.722  0.0528 -0.0556 -0.2736
 1813BOLB   C3B43499  -0.499  26.214   5.783 -0.1924  0.0261  0.0548
 1813BOLB   C4B43500  -0.531  26.598   5.738 -0.2141 -0.2286 -0.0950
 1813BOLB   NC243501   0.167  28.901   4.151  0.0321 -0.1809  0.2204
 1813BOLB   PO243502  -0.086  28.602   4.011  0.0520 -0.3886  0.1445
 1813BOLB   GL343503  -0.158  28.683   4.488  0.0365  0.4168  0.3428
 1813BOLB   GL443504   0.083  28.857   4.723  0.1316 -0.3721 -0.1501
 1813BOLB   C1C43505  -0.179  28.424   4.913 -0.0553  0.3396  0.2629
 1813BOLB   C2C43506  -0.024  27.958   5.032 -0.2579 -0.0481  0.0870
 1813BOLB   C3C43507   0.130  27.581   5.333 -0.0376  0.3495  0.1187
 1813BOLB   C4C43508   0.540  27.305   5.366  0.1113 -0.0510  0.2513
 1813BOLB   C1D43509   0.248  28.419   4.628 -0.2769 -0.0879 -0.4533
 1813BOLB   C2D43510   0.437  28.122   4.788 -0.0817  0.0404  0.0050
 1813BOLB   C3D43511   0.491  27.716   4.922 -0.1007 -0.2510  0.4452
 1813BOLB   C4D43512   0.484  27.341   4.881 -0.1635  0.1273 -0.1647
 1814BOLB   NC143513   4.284  26.516   5.891  0.2930 -0.1009 -0.1496
 1814BOLB   PO143514   4.616  26.522   5.738 -0.0935 -0.4062 -0.0698
 1814BOLB   GL143515   4.354  26.945   5.569  0.1145 -0.3517  0.0801
 1814BOLB   GL243516   3.989  26.973   5.476  0.0483  0.1057 -0.1203
 1814BOLB   C1A43517   4.347  27.368   5.360 -0.1889 -0.1114 -0.3222
 1814BOLB   C2A43518   4.244  27.762   5.124  0.1306 -0.1654 -0.3851
 1814BOLB   C3A43519   3.956  27.955   4.830 -0.1248  0.3025 -0.0306
 1814BOLB   C4A43520   3.740  27.971   4.494 -0.3682 -0.2165 -0.0126
 1814BOLB   C1B43521   3.814  27.322   5.312  0.0180 -0.2488 -0.0011
 1814BOLB   C2B43522   3.467  27.540   5.473 -0.1761  0.0200 -0.1823
 1814BOLB   C3B43523   3.179  27.844   5.287  0.0786 -0.0879  0.1354
 1814BOLB   C4B43524   2.972  28.233   5.143 -0.0060 -0.0622 -0.1909
 1814BOLB   NC243525   3.294  29.543   2.847 -0.1706  0.2447  0.0603
 1814BOLB   PO243526   3.258  29.802   3.251 -0.2798 -0.1346 -0.1632
 1814BOLB   GL343527   2.964  29.563   3.457 -0.1899 -0.3293  0.0456
 1814BOLB   GL443528   2.914  29.600   3.771 -0.0287 -0.0022 -0.0381
 1814BOLB   C1C43529   3.038  29.132   3.620  0.0455 -0.2387  0.2511
 1814BOLB   C2C43530   3.245  28.776   3.763 -0.3031 -0.0935 -0.3395
 1814BOLB   C3C43531   3.367  28.341   3.953 -0.0268  0.0158  0.1671
 1814BOLB   C4C43532   3.508  28.065   4.190 -0.0062  0.3638 -0.1231
 1814BOLB   C1D43533   3.090  29.280   4.151  0.0027 -0.1394  0.1174
 1814BOLB   C2D43534   3.408  29.236   4.476 -0.3131 -0.2588 -0.2438
 1814BOLB   C3D43535   3.685  28.962   4.651 -0.0753 -0.0342  0.0173
 1814BOLB   C4D43536   3.627  28.576   4.925  0.1501 -0.1723 -0.0910
 1815BOLB   NC143537  20.098  21.269   8.811  0.1396  0.2001  0.0605
 1815BOLB   PO143538  19.686  21.392   9.088 -0.2601  0.2979 -0.1357
 1815BOLB   GL143539  19.223  21.378   9.153 -0.0995 -0.0949  0.0261
 1815BOLB   GL243540  19.083  21.424   9.404  0.1816 -0.1543 -0.1074
 1815BOLB   C1A43541  18.834  21.350   8.995 -0.0889  0.1143 -0.2986
 1815BOLB   C2A43542  18.428  21.267   8.832  0.1280  0.0571  0.3056
 1815BOLB   C3A43543  17.997  21.422   8.929 -0.4498 -0.0810  0.1536
 1815BOLB   C4A43544  17.735  21.403   9.255  0.0923  0.0144  0.0908
 1815BOLB   C1B43545  18.855  21.782   9.574  0.3896  0.1724 -0.0212
 1815BOLB   C2B43546  18.446  21.905   9.555 -0.1144  0.0687 -0.0539
 1815BOLB   C3B43547  18.148  21.707   9.644 -0.2052  0.3921 -0.1460
 1815BOLB   C4B43548  17.842  21.398   9.772 -0.0729 -0.5077 -0.1633
 1815BOLB   NC243549  19.246  20.462  10.705 -0.1195 -0.0258 -0.0251
 1815BOLB   PO243550  18.933  20.252  10.513 -0.1292  0.1499  0.2295
 1815BOLB   GL343551  18.554  20.408  10.537  0.0275  0.0016  0.0499
 1815BOLB   GL443552  18.606  20.760  10.656 -0.2251 -0.3348 -0.0472
 1815BOLB   C1C43553  18.144  20.630  10.422  0.1727  0.2037  0.3155
 1815BOLB   C2C43554  17.632  20.737  10.184  0.1272  0.1200 -0.0068
 1815BOLB   C3C43555  17.369  20.907   9.860  0.2123  0.0739  0.2801
 1815BOLB   C4C43556  17.363  21.196   9.544 -0.2776 -0.1045 -0.2986
 1815BOLB   C1D43557  18.254  20.537  10.971 -0.1050 -0.1502 -0.1060
 1815BOLB   C2D43558  17.878  20.377  11.205  0.0320  0.1120  0.2247
 1815BOLB   C3D43559  17.567  20.440  11.023 -0.2404 -0.0447 -0.0031
 1815BOLB   C4D43560  17.419  20.465  10.569  0.0012  0.2223 -0.4384
 1816BOLB   NC143561   7.875  21.863   2.301 -0.0022 -0.1326 -0.1393
 1816BOLB   PO143562   7.402  21.963   2.401  0.0242 -0.1003  0.0296
 1816BOLB   GL143563   7.455  22.033   1.992 -0.1743 -0.0192 -0.2332
 1816BOLB   GL243564   7.270  22.299   2.059 -0.0196 -0.0313 -0.0933
 1816BOLB   C1A43565   7.590  21.995   1.527 -0.1554 -0.0825 -0.0641
 1816BOLB   C2A43566   7.519  22.232   1.109  0.1434 -0.0469 -0.2049
 1816BOLB   C3A43567   7.502  22.545   0.843  0.0396 -0.4631  0.2720
 1816BOLB   C4A43568   7.459  22.904   0.756  0.3644  0.1488 -0.0778
 1816BOLB   C1B43569   7.335  22.420   1.603  0.1907 -0.1748 -0.1575
 1816BOLB   C2B43570   7.203  22.671   1.279  0.1170 -0.0079 -0.1021
 1816BOLB   C3B43571   6.749  22.946   1.004 -0.0252 -0.0953  0.3700
 1816BOLB   C4B43572   6.531  22.659   0.646  0.0165  0.1446  0.0098
 1816BOLB   NC243573   7.401  23.611  -1.485 -0.2221 -0.1455  0.0207
 1816BOLB   PO243574   7.527  24.013  -1.286 -0.1726  0.0127  0.1928
 1816BOLB   GL343575   7.426  23.679  -0.873  0.0980  0.0574 -0.1587
 1816BOLB   GL443576   7.127  23.766  -0.889 -0.0236  0.0310 -0.3263
 1816BOLB   C1C43577   7.398  23.459  -0.501  0.0810  0.1440 -0.2278
 1816BOLB   C2C43578   7.202  23.438  -0.086  0.1429 -0.1445  0.2606
 1816BOLB   C3C43579   7.289  23.381   0.278 -0.0463 -0.2452 -0.1427
 1816BOLB   C4C43580   7.586  23.241   0.434  0.4560  0.1935  0.2979
 1816BOLB   C1D43581   6.940  23.682  -0.428  0.1170  0.1985  0.2838
 1816BOLB   C2D43582   6.766  23.653   0.022  0.3470 -0.1559  0.1953
 1816BOLB   C3D43583   6.824  23.839   0.332 -0.1821  0.1877  0.1448
 1816BOLB   C4D43584   7.106  24.145   0.556  0.3058  0.2037 -0.1131
 1817BOLB   NC143585   8.499  14.030  12.099  0.0252 -0.1533  0.1569
 1817BOLB   PO143586   8.813  13.914  12.492 -0.4557 -0.4330 -0.1494
 1817BOLB   GL143587   9.211  13.704  12.596 -0.1119  0.0892 -0.2129
 1817BOLB   GL243588   9.457  13.838  12.821  0.0836 -0.0922  0.1195
 1817BOLB   C1A43589   9.416  13.311  12.672 -0.0217  0.1106  0.1120
 1817BOLB   C2A43590   9.349  12.914  12.523  0.0134  0.1019  0.1776
 1817BOLB   C3A43591   9.184  12.526  12.613 -0.0014  0.1858 -0.2496
 1817BOLB   C4A43592   8.985  12.049  12.670  0.0318 -0.2405 -0.0638
 1817BOLB   C1B43593   9.506  13.635  13.224 -0.1523  0.1728 -0.2688
 1817BOLB   C2B43594   9.467  13.206  13.186  0.2438 -0.2218  0.1549
 1817BOLB   C3B43595   9.727  12.899  12.921  0.2225 -0.2038  0.0666
 1817BOLB   C4B43596  10.028  12.803  12.612 -0.4059  0.1396 -0.0217
 1817BOLB   NC243597   8.588   9.914  13.474 -0.0484  0.1948 -0.2671
 1817BOLB   PO243598   8.919   9.777  13.708  0.0401 -0.0670  0.3357
 1817BOLB   GL343599   8.840  10.233  13.758  0.0842  0.1647 -0.0832
 1817BOLB   GL443600   8.579  10.374  13.581 -0.3696 -0.0431  0.0799
 1817BOLB   C1C43601   9.049  10.614  13.553  0.0167 -0.0752  0.0305
 1817BOLB   C2C43602   9.257  10.954  13.311 -0.1936  0.1845 -0.3241
 1817BOLB   C3C43603   9.354  11.332  13.203 -0.1930 -0.2052 -0.1197
 1817BOLB   C4C43604   9.092  11.710  12.957  0.0284  0.2709  0.0936
 1817BOLB   C1D43605   8.576  10.715  13.177  0.1085  0.0090  0.1577
 1817BOLB   C2D43606   8.530  11.134  12.933 -0.0901  0.0593  0.0193
 1817BOLB   C3D43607   8.630  11.526  12.804  0.4156 -0.0066 -0.0994
 1817BOLB   C4D43608   8.543  11.754  12.466  0.2486  0.0850  0.1886
 1818BOLB   NC143609   7.084  13.375  12.684 -0.4002 -0.3404  0.1437
 1818BOLB   PO143610   6.924  13.023  12.593 -0.0310  0.1229 -0.2594
 1818BOLB   GL143611   6.527  12.799  12.639  0.0073 -0.0379  0.0102
 1818BOLB   GL243612   6.166  12.799  12.622  0.3685  0.0963  0.1056
 1818BOLB   C1A43613   6.495  12.451  12.381  0.0445 -0.0246  0.1927
 1818BOLB   C2A43614   6.315  12.123  12.222  0.1624  0.1010 -0.4330
 1818BOLB   C3A43615   6.429  11.646  12.116 -0.0457  0.0920 -0.1523
 1818BOLB   C4A43616   6.347  11.273  11.929 -0.0871  0.1969  0.0915
 1818BOLB   C1B43617   5.884  12.408  12.798 -0.1785 -0.1508 -0.1305
 1818BOLB   C2B43618   5.635  12.173  13.093 -0.1720 -0.0725 -0.0264
 1818BOLB   C3B43619   5.316  12.015  13.365 -0.0493  0.2058 -0.0367
 1818BOLB   C4B43620   5.200  11.567  13.576  0.1782  0.2802  0.2610
 1818BOLB   NC243621   7.060   9.166  12.412  0.0148  0.1639 -0.4103
 1818BOLB   PO243622   6.986   9.146  12.016 -0.4295 -0.0215  0.0614
 1818BOLB   GL343623   6.738   9.397  11.756  0.2573  0.0512  0.1180
 1818BOLB   GL443624   6.590   9.527  11.935  0.1313  0.1377 -0.1203
 1818BOLB   C1C43625   6.886   9.760  11.547 -0.3189  0.1354  0.1660
 1818BOLB   C2C43626   6.726  10.147  11.487 -0.0269 -0.2406  0.0634
 1818BOLB   C3C43627   6.583  10.600  11.423 -0.0156  0.0336 -0.4237
 1818BOLB   C4C43628   6.284  10.845  11.754 -0.1260  0.1975  0.3054
 1818BOLB   C1D43629   6.407  10.025  12.056  0.1468 -0.0457 -0.0734
 1818BOLB   C2D43630   6.487  10.225  12.437 -0.0692  0.0661  0.1483
 1818BOLB   C3D43631   6.659  10.637  12.443  0.1635  0.0775 -0.0582
 1818BOLB   C4D43632   6.755  11.059  12.487 -0.2116 -0.1566 -0.1823
 1819BOLB   NC143633  14.573  21.637   6.818 -0.4098 -0.0988 -0.2905
 1819BOLB   PO143634  14.757  21.590   6.486 -0.2266  0.2054  0.2418
 1819BOLB   GL143635  15.288  21.759   6.452 -0.2795 -0.1808  0.1041
 1819BOLB   GL243636  15.407  22.142   6.450 -0.2878 -0.0563  0.0200
 1819BOLB   C1A43637  15.660  21.644   6.737  0.2431 -0.0300 -0.3407
 1819BOLB   C2A43638  16.190  21.647   6.641  0.5997 -0.0182  0.2264
 1819BOLB   C3A43639  16.557  21.351   6.432  0.0616  0.0372  0.0788
 1819BOLB   C4A43640  16.636  21.237   6.021 -0.2974  0.0597  0.0664
 1819BOLB   C1B43641  15.829  22.055   6.399  0.0882  0.1666 -0.0263
 1819BOLB   C2B43642  16.256  22.112   6.542 -0.0462  0.0687  0.0674
 1819BOLB   C3B43643  16.584  21.886   6.425 -0.3850  0.0957  0.1437
 1819BOLB   C4B43644  17.000  21.979   6.395 -0.0056 -0.2048 -0.0504
 1819BOLB   NC243645  18.564  21.607   4.210 -0.1365 -0.2054 -0.2459
 1819BOLB   PO243646  18.664  21.360   4.558 -0.0282  0.2005 -0.2196
 1819BOLB   GL343647  18.518  21.356   4.960 -0.2729 -0.1838  0.5106
 1819BOLB   GL443648  18.707  21.347   5.177 -0.1912  0.1083 -0.0344
 1819BOLB   C1C43649  18.194  21.535   5.100  0.2886  0.1759  0.0965
 1819BOLB   C2C43650  17.730  21.588   5.221 -0.3384  0.1212 -0.0346
 1819BOLB   C3C43651  17.381  21.511   5.536  0.3034 -0.1565  0.0465
 1819BOLB   C4C43652  17.088  21.328   5.723  0.0480  0.2694 -0.1071
 1819BOLB   C1D43653  18.373  21.436   5.540 -0.0700  0.0496  0.0250
 1819BOLB   C2D43654  17.920  21.442   5.742  0.0727  0.1520  0.0056
 1819BOLB   C3D43655  17.626  21.105   5.773  0.2037 -0.0405 -0.1830
 1819BOLB   C4D43656  17.426  20.794   5.629 -0.0251  0.2237 -0.1343
 1820BOLB   NC143657   2.921  27.987  11.529  0.1647  0.0483  0.0977
 1820BOLB   PO143658   2.561  28.087  11.382  0.2515 -0.2225  0.1066
 1820BOLB   GL143659   2.283  28.340  11.183  0.3730 -0.2554 -0.0836
 1820BOLB   GL243660   2.489  28.659  11.232 -0.0610  0.1269  0.1115
 1820BOLB   C1A43661   1.969  28.688  11.113  0.1963 -0.0509 -0.4393
 1820BOLB   C2A43662   1.661  29.001  11.292  0.1147  0.2711  0.0168
 1820BOLB   C3A43663   1.494  29.467  11.402 -0.0651 -0.1372  0.2886
 1820BOLB   C4A43664   1.304  29.684  11.109  0.2961  0.2114  0.1668
 1820BOLB   C1B43665   2.619  29.030  11.321  0.1449 -0.3466 -0.2769
 1820BOLB   C2B43666   2.535  29.398  11.155 -0.0689 -0.0472 -0.0055
 1820BOLB   C3B43667   2.248  29.769  11.215 -0.1616 -0.0939  0.2343
 1820BOLB   C4B43668   2.244  30.102  10.894  0.3374 -0.1897 -0.1963
 1820BOLB   NC243669   0.455  31.664   9.555  0.0739 -0.1147 -0.2558
 1820BOLB   PO243670   0.182  31.313   9.805  0.2914  0.1067 -0.1237
 1820BOLB   GL343671   0.342  31.011   9.678  0.2020 -0.0608 -0.1567
 1820BOLB   GL443672   0.630  31.174   9.729 -0.0363  0.2096 -0.0405
 1820BOLB   C1C43673   0.581  30.570   9.833 -0.2876 -0.0370  0.1441
 1820BOLB   C2C43674   0.625  30.439  10.263 -0.1879 -0.1669  0.0207
 1820BOLB   C3C43675   1.045  30.224  10.386  0.0300 -0.1894  0.1461
 1820BOLB   C4C43676   1.280  30.070  10.701  0.0770 -0.1896 -0.0208
 1820BOLB   C1D43677   0.843  30.917   9.522 -0.1693  0.2322 -0.3183
 1820BOLB   C2D43678   1.078  30.844   9.137 -0.0937 -0.3284 -0.0505
 1820BOLB   C3D43679   1.208  31.095   8.777  0.2709  0.3696 -0.2218
 1820BOLB   C4D43680   1.505  31.124   8.443  0.0663  0.1276  0.1559
 1821BOLB   NC143681  11.926  25.635   6.257 -0.2004 -0.0570 -0.0339
 1821BOLB   PO143682  11.758  26.001   6.427  0.0724 -0.1589  0.0516
 1821BOLB   GL143683  12.086  26.138   6.109  0.1919 -0.1839 -0.1156
 1821BOLB   GL243684  12.134  25.921   5.838  0.0760 -0.0314 -0.5288
 1821BOLB   C1A43685  12.317  26.514   5.955 -0.1064  0.1867 -0.0907
 1821BOLB   C2A43686  12.588  26.856   5.757  0.1633 -0.0712 -0.1977
 1821BOLB   C3A43687  12.799  27.141   5.436  0.0736 -0.1721  0.0365
 1821BOLB   C4A43688  13.007  27.050   4.983  0.1311  0.2554 -0.1605
 1821BOLB   C1B43689  12.492  25.887   5.527  0.0349 -0.0533  0.4460
 1821BOLB   C2B43690  12.362  25.613   5.100  0.1608 -0.0010 -0.4474
 1821BOLB   C3B43691  12.616  25.832   4.741 -0.0552  0.0233 -0.0007
 1821BOLB   C4B43692  12.826  26.147   4.475 -0.1201 -0.0986 -0.1418
 1821BOLB   NC243693  15.480  27.489   3.994 -0.3678  0.0572  0.0812
 1821BOLB   PO243694  15.022  27.596   3.902 -0.3759  0.0826 -0.2390
 1821BOLB   GL343695  14.530  27.661   4.015  0.1076  0.2381  0.1194
 1821BOLB   GL443696  14.448  27.417   3.794 -0.0138 -0.1973 -0.0154
 1821BOLB   C1C43697  14.050  27.489   4.085  0.3546 -0.0865 -0.3492
 1821BOLB   C2C43698  13.716  27.278   4.250  0.2000 -0.0979  0.1434
 1821BOLB   C3C43699  13.503  27.111   4.494  0.1206  0.0381 -0.1135
 1821BOLB   C4C43700  13.241  26.854   4.732 -0.5158  0.0711  0.0820
 1821BOLB   C1D43701  14.493  27.169   4.161 -0.1480  0.5821 -0.3104
 1821BOLB   C2D43702  14.158  27.187   4.541  0.1783  0.1575  0.0845
 1821BOLB   C3D43703  13.893  27.448   4.711 -0.3255 -0.4327 -0.0285
 1821BOLB   C4D43704  13.649  27.834   4.889  0.1354  0.1665  0.1054
 1822BOLB   NC143705   4.721  26.223   4.828  0.0484 -0.2892  0.3119
 1822BOLB   PO143706   4.982  26.370   5.078  0.2937  0.1009  0.2911
 1822BOLB   GL143707   5.097  26.589   4.685  0.1250  0.1175  0.0949
 1822BOLB   GL243708   5.303  26.407   4.436 -0.0128  0.3640 -0.0252
 1822BOLB   C1A43709   5.017  26.810   4.344 -0.1751  0.4255  0.1939
 1822BOLB   C2A43710   4.749  26.998   3.984 -0.0817  0.2881 -0.1103
 1822BOLB   C3A43711   4.631  26.996   3.597 -0.3130 -0.1151  0.0442
 1822BOLB   C4A43712   4.263  27.117   3.437 -0.1079  0.0680  0.3555
 1822BOLB   C1B43713   5.361  26.573   4.060 -0.2696  0.0193  0.0788
 1822BOLB   C2B43714   5.170  26.818   3.724  0.2658  0.0730 -0.0586
 1822BOLB   C3B43715   5.102  27.219   3.548 -0.1490  0.0518  0.0463
 1822BOLB   C4B43716   4.990  27.576   3.194  0.1921  0.0692 -0.0123
 1822BOLB   NC243717   3.875  29.151   1.969 -0.0965  0.3211  0.1745
 1822BOLB   PO243718   3.543  28.944   2.249  0.1309  0.0069 -0.1528
 1822BOLB   GL343719   3.375  28.767   2.608 -0.1430  0.3245 -0.2050
 1822BOLB   GL443720   3.428  29.025   2.798 -0.0021 -0.1217  0.1656
 1822BOLB   C1C43721   3.428  28.486   2.966 -0.0589  0.1085 -0.2703
 1822BOLB   C2C43722   3.599  28.059   3.148 -0.3017 -0.2334 -0.3007
 1822BOLB   C3C43723   3.667  27.660   3.039  0.1158  0.1409  0.4388
 1822BOLB   C4C43724   3.830  27.356   3.315  0.1328  0.1949  0.1215
 1822BOLB   C1D43725   3.131  28.880   3.128  0.1357  0.2469  0.2013
 1822BOLB   C2D43726   2.904  28.630   3.522  0.2970 -0.0007 -0.1616
 1822BOLB   C3D43727   2.837  28.492   3.893  0.2867  0.1220  0.2816
 1822BOLB   C4D43728   2.383  28.353   4.184 -0.0003  0.2261  0.1646
 1823DPPE   NH343729  30.392  19.308   3.541  0.0254  0.1619 -0.0837
 1823DPPE   PO443730  30.726  19.462   3.763 -0.0626 -0.1799  0.0682
 1823DPPE   GL143731  31.199  19.520   3.730 -0.2227  0.1819  0.1293
 1823DPPE   GL243732  31.290  19.755   3.712  0.0951  0.0299 -0.0169
 1823DPPE   C1A43733  31.649  19.412   3.806 -0.2029  0.0168 -0.0427
 1823DPPE   C2A43734  32.002  19.112   3.929  0.3267 -0.0648  0.2913
 1823DPPE   C3A43735  32.380  19.286   4.075 -0.1259 -0.3529  0.0097
 1823DPPE   C4A43736  32.794  19.505   4.237 -0.3986 -0.0561 -0.0601
 1823DPPE   C1B43737  31.691  19.872   3.659  0.0633  0.0952  0.2789
 1823DPPE   C2B43738  32.094  19.642   3.808 -0.3968  0.0063  0.1145
 1823DPPE   C3B43739  32.315  19.776   4.201  0.0662  0.2598  0.2478
 1823DPPE   C4B43740  32.055  19.924   4.613  0.1226  0.1457  0.0231
 1824DPPE   NH343741   0.393  20.209  12.792  0.2313 -0.0510 -0.1335
 1824DPPE   PO443742   0.495  19.845  12.804 -0.1988  0.0938 -0.1452
 1824DPPE   GL143743   0.111  19.699  12.967 -0.4970  0.2725  0.0969
 1824DPPE   GL243744  -0.046  20.001  13.033  0.0044  0.5731 -0.3042
 1824DPPE   C1A43745  -0.262  19.500  13.179  0.0185 -0.3296 -0.2478
 1824DPPE   C2A43746  -0.584  19.486  13.486 -0.0910 -0.3110 -0.0222
 1824DPPE   C3A43747  -0.811  19.930  13.679  0.1356  0.1823 -0.3072
 1824DPPE   C4A43748  -0.868  20.226  13.886  0.0498 -0.3416  0.0004
 1824DPPE   C1B43749  -0.391  20.044  12.824 -0.0177 -0.1087  0.0892
 1824DPPE   C2B43750  -0.782  20.164  12.834 -0.2928 -0.0537  0.2989
 1824DPPE   C3B43751  -1.271  20.106  12.928  0.2056 -0.1425  0.0561
 1824DPPE   C4B43752  -1.655  20.120  12.777  0.0279 -0.1223 -0.2031
 1825DPPE   NH343753  32.225  24.197  16.488 -0.1061  0.1543 -0.1047
 1825DPPE   PO443754  32.220  23.711  16.641 -0.1002 -0.1973  0.0084
 1825DPPE   GL143755  32.471  23.467  16.482 -0.0822 -0.1342 -0.2285
 1825DPPE   GL243756  32.453  23.192  16.766  0.1620  0.3349  0.1670
 1825DPPE   C1A43757  32.813  23.178  16.331  0.0520  0.2865  0.2094
 1825DPPE   C2A43758  33.100  22.986  15.978 -0.0374 -0.0456 -0.1130
 1825DPPE   C3A43759  33.238  22.884  15.582  0.0544 -0.0624  0.0770
 1825DPPE   C4A43760  33.547  22.874  15.313 -0.0619 -0.1043  0.3280
 1825DPPE   C1B43761  32.293  22.802  16.697 -0.0375  0.0706 -0.4251
 1825DPPE   C2B43762  31.835  22.768  16.678  0.0380  0.2391 -0.0638
 1825DPPE   C3B43763  31.372  22.515  16.468 -0.3281 -0.1123  0.0377
 1825DPPE   C4B43764  31.451  22.480  15.983  0.1192  0.0834  0.0389
 1826DPPE   NH343765  13.278  16.374   8.382  0.0407  0.1447  0.1913
 1826DPPE   PO443766  13.341  16.564   8.809  0.0680 -0.2929  0.1080
 1826DPPE   GL143767  13.541  16.223   8.762 -0.0703 -0.0598  0.2972
 1826DPPE   GL243768  13.747  16.135   8.932  0.2279  0.1225 -0.0997
 1826DPPE   C1A43769  13.977  16.040   8.529  0.1357 -0.0290 -0.0832
 1826DPPE   C2A43770  14.362  15.969   8.551 -0.2254 -0.0839  0.1766
 1826DPPE   C3A43771  14.364  15.581   8.561  0.1222 -0.0328  0.1638
 1826DPPE   C4A43772  14.506  15.087   8.570  0.3679  0.5059  0.0832
 1826DPPE   C1B43773  13.976  15.818   8.989  0.1596 -0.2085 -0.3140
 1826DPPE   C2B43774  14.112  15.468   8.933 -0.0538 -0.0748  0.2434
 1826DPPE   C3B43775  14.323  15.061   9.030 -0.1283  0.0816  0.3417
 1826DPPE   C4B43776  14.512  14.753   8.961  0.2031  0.0944 -0.1535
 1827DPPE   NH343777  35.571   8.073  12.433 -0.2569  0.0085  0.0725
 1827DPPE   PO443778  35.586   7.941  12.010  0.2085 -0.0299 -0.2812
 1827DPPE   GL143779  35.742   8.450  12.056 -0.0948  0.0127 -0.4005
 1827DPPE   GL243780  35.668   8.716  12.180  0.0993  0.0731  0.1003
 1827DPPE   C1A43781  36.112   8.777  11.975 -0.0319  0.1831 -0.3503
 1827DPPE   C2A43782  36.458   9.129  11.963 -0.0196 -0.3348  0.0785
 1827DPPE   C3A43783  36.433   9.553  12.002  0.1803 -0.0929 -0.1266
 1827DPPE   C4A43784  36.185   9.843  11.941 -0.3453 -0.1575 -0.0578
 1827DPPE   C1B43785  35.760   9.116  12.003  0.2856 -0.2299  0.1651
 1827DPPE   C2B43786  36.019   9.375  11.738  0.0234  0.2907  0.2563
 1827DPPE   C3B43787  36.283   9.626  11.486  0.0094 -0.1497  0.0561
 1827DPPE   C4B43788  36.220  10.008  11.251  0.1823 -0.0193  0.2918
 1828DPPE   NH343789   1.150  28.293  18.673  0.1669  0.1543  0.2398
 1828DPPE   PO443790   0.715  28.363  18.427 -0.0314  0.5316 -0.1295
 1828DPPE   GL143791   0.833  28.013  18.307  0.1373 -0.0280 -0.4116
 1828DPPE   GL243792   1.060  27.762  18.478  0.2607 -0.2155 -0.0652
 1828DPPE   C1A43793   0.972  27.920  17.865  0.0821 -0.0226  0.3786
 1828DPPE   C2A43794   1.017  27.621  17.614 -0.2134  0.0404  0.0250
 1828DPPE   C3A43795   0.678  27.323  17.295 -0.0362 -0.1916 -0.1702
 1828DPPE   C4A43796   0.691  26.880  17.106  0.3488  0.0474 -0.1921
 1828DPPE   C1B43797   1.229  27.503  18.044 -0.2241  0.1347 -0.0045
 1828DPPE   C2B43798   1.458  27.386  17.576 -0.0218  0.0617 -0.2739
 1828DPPE   C3B43799   1.319  27.196  17.293  0.1418 -0.1230  0.0292
 1828DPPE   C4B43800   1.177  26.899  17.000  0.1127  0.2192 -0.0280
 1829DPPE   NH343801  14.574  30.146   9.205 -0.2093 -0.0712 -0.0344
 1829DPPE   PO443802  14.586  30.414   9.528  0.0583 -0.0239  0.0238
 1829DPPE   GL143803  14.285  29.936   9.641  0.1948  0.0902 -0.0560
 1829DPPE   GL243804  14.027  29.935   9.422  0.3200  0.0383  0.1235
 1829DPPE   C1A43805  13.933  29.794   9.946  0.0258  0.0622 -0.0723
 1829DPPE   C2A43806  13.437  29.775  10.144  0.3451 -0.0287 -0.1585
 1829DPPE   C3A43807  13.182  29.857  10.463 -0.0316 -0.0019 -0.1326
 1829DPPE   C4A43808  12.761  29.739  10.712 -0.3136 -0.1927 -0.0062
 1829DPPE   C1B43809  13.719  29.732   9.165 -0.2320  0.0872  0.0168
 1829DPPE   C2B43810  13.302  29.430   9.202  0.0176  0.1129  0.3934
 1829DPPE   C3B43811  13.063  29.316   9.485 -0.2868 -0.0000 -0.1861
 1829DPPE   C4B43812  12.635  29.218   9.726  0.0360  0.2162  0.1259
 1830DPPE   NH343813   8.962  10.996  15.787 -0.2387  0.3406  0.1343
 1830DPPE   PO443814   8.662  10.778  15.517 -0.0831 -0.4177 -0.0091
 1830DPPE   GL143815   8.604  11.219  15.383  0.1624  0.0419 -0.0425
 1830DPPE   GL243816   8.309  11.426  15.552 -0.3325  0.0999  0.0779
 1830DPPE   C1A43817   8.793  11.596  15.276  0.1007  0.2148 -0.0176
 1830DPPE   C2A43818   8.772  11.807  14.992  0.0913 -0.1383 -0.2266
 1830DPPE   C3A43819   8.417  12.128  14.770 -0.0756  0.1452 -0.2706
 1830DPPE   C4A43820   8.467  12.410  14.520  0.1162 -0.0591  0.1416
 1830DPPE   C1B43821   7.979  11.755  15.553 -0.1641 -0.1220  0.0139
 1830DPPE   C2B43822   8.055  12.132  15.448 -0.1565  0.4099 -0.1214
 1830DPPE   C3B43823   7.990  12.321  15.045  0.1748 -0.1364  0.0853
 1830DPPE   C4B43824   7.798  12.734  14.928 -0.0086 -0.0483 -0.3579
 1831DPPE   NH343825  18.339  18.097  11.871  0.0375  0.1458  0.2155
 1831DPPE   PO443826  18.423  18.614  11.681  0.1121 -0.1689  0.2738
 1831DPPE   GL143827  18.012  18.510  11.468  0.2850  0.1078 -0.2299
 1831DPPE   GL243828  17.904  18.203  11.644 -0.0111 -0.2279 -0.0141
 1831DPPE   C1A43829  17.687  18.596  11.228  0.0108  0.0041 -0.0500
 1831DPPE   C2A43830  17.570  18.629  10.881 -0.0394  0.2035 -0.3407
 1831DPPE   C3A43831  17.225  18.612  10.579  0.1553 -0.0383 -0.1082
 1831DPPE   C4A43832  16.978  18.734  10.270  0.2332 -0.0555  0.0147
 1831DPPE   C1B43833  17.492  18.216  11.578  0.0924  0.1279  0.0542
 1831DPPE   C2B43834  17.306  17.863  11.520  0.3635  0.1849  0.1215
 1831DPPE   C3B43835  17.506  17.498  11.366 -0.0292 -0.1406  0.0227
 1831DPPE   C4B43836  17.477  17.036  11.208  0.0402 -0.0255 -0.1728
 1832DPPE   NH343837  15.464  27.360  16.554  0.2730  0.2016 -0.0955
 1832DPPE   PO443838  15.127  27.587  16.474 -0.2898  0.2521 -0.0539
 1832DPPE   GL143839  14.809  27.565  16.176 -0.1854  0.1274  0.1148
 1832DPPE   GL243840  15.001  27.496  15.880 -0.1759  0.0062  0.1225
 1832DPPE   C1A43841  14.381  27.621  16.069  0.1736  0.0452 -0.2023
 1832DPPE   C2A43842  14.075  27.359  15.969 -0.4276  0.1830  0.1140
 1832DPPE   C3A43843  13.902  27.000  16.162 -0.0913 -0.0079 -0.0558
 1832DPPE   C4A43844  13.905  26.532  16.100  0.4791  0.4093 -0.1033
 1832DPPE   C1B43845  15.045  27.257  15.561 -0.2840 -0.1150  0.1344
 1832DPPE   C2B43846  14.845  26.880  15.519 -0.2585 -0.0410  0.0648
 1832DPPE   C3B43847  14.609  26.581  15.339 -0.1952 -0.0201 -0.0107
 1832DPPE   C4B43848  14.552  26.146  15.336 -0.0347 -0.1620  0.2620
 1833DPPE   NH343849   6.268  32.934  13.670  0.0549  0.0310 -0.3341
 1833DPPE   PO443850   5.973  32.660  13.872 -0.2259  0.0862  0.2815
 1833DPPE   GL143851   5.988  32.250  13.773  0.0286  0.0944  0.2022
 1833DPPE   GL243852   6.259  32.170  14.016  0.1774 -0.3002  0.0698
 1833DPPE   C1A43853   5.860  31.811  13.859  0.0265  0.0089  0.0175
 1833DPPE   C2A43854   5.852  31.691  13.404  0.0217  0.0642  0.1513
 1833DPPE   C3A43855   5.902  31.323  13.468 -0.2792  0.1994  0.0215
 1833DPPE   C4A43856   6.238  31.311  13.705 -0.2810 -0.1237 -0.0400
 1833DPPE   C1B43857   6.328  31.678  14.002 -0.1984  0.3839 -0.2210
 1833DPPE   C2B43858   6.396  31.206  14.316 -0.2452 -0.1039 -0.2431
 1833DPPE   C3B43859   6.366  30.788  14.357 -0.3609  0.1176  0.0367
 1833DPPE   C4B43860   6.410  30.275  14.383  0.2410 -0.6257 -0.3270
 1834DPPE   NH343861  29.146  21.151   8.016 -0.5687 -0.2189  0.1464
 1834DPPE   PO443862  29.218  20.820   8.213 -0.3646 -0.0328 -0.0203
 1834DPPE   GL143863  29.649  20.564   8.166 -0.1185  0.1306  0.0358
 1834DPPE   GL243864  29.547  20.150   8.012  0.1309  0.1314 -0.3701
 1834DPPE   C1A43865  29.912  20.282   8.444 -0.3184  0.3650 -0.4573
 1834DPPE   C2A43866  30.153  20.253   8.780 -0.1964  0.1188  0.2178
 1834DPPE   C3A43867  30.472  19.979   8.911 -0.0721 -0.0221 -0.0310
 1834DPPE   C4A43868  30.890  19.778   8.968 -0.0350 -0.2369  0.1971
 1834DPPE   C1B43869  29.885  19.919   8.085  0.0385 -0.2784  0.0865
 1834DPPE   C2B43870  30.118  19.762   8.500 -0.4138 -0.0820 -0.2033
 1834DPPE   C3B43871  30.619  19.684   8.507 -0.4320  0.2783  0.3636
 1834DPPE   C4B43872  31.041  19.530   8.364  0.1525  0.0052 -0.1074
 1835DPPE   NH343873   4.013  15.925   6.962  0.0196  0.0733  0.0060
 1835DPPE   PO443874   3.869  15.571   6.866 -0.3205 -0.0994  0.1855
 1835DPPE   GL143875   3.629  15.153   6.888 -0.1095 -0.3201 -0.3984
 1835DPPE   GL243876   3.624  14.847   7.097 -0.0305 -0.2254 -0.1198
 1835DPPE   C1A43877   3.213  14.914   7.234  0.2209 -0.0603 -0.1622
 1835DPPE   C2A43878   2.830  14.752   7.528  0.1558  0.1076  0.1287
 1835DPPE   C3A43879   2.362  14.790   7.519 -0.1595  0.0000  0.1223
 1835DPPE   C4A43880   2.021  15.071   7.528 -0.1759 -0.0017  0.0119
 1835DPPE   C1B43881   3.325  14.645   6.884  0.1685  0.0847  0.3474
 1835DPPE   C2B43882   2.906  14.431   7.128 -0.1910 -0.1603  0.0279
 1835DPPE   C3B43883   2.479  14.634   7.046 -0.0333 -0.0174 -0.2861
 1835DPPE   C4B43884   2.445  14.892   6.600  0.1505 -0.1093  0.0149
 1836DPPE   NH343885  30.479  22.405   5.242  0.0538  0.2428  0.1393
 1836DPPE   PO443886  30.438  22.036   5.476  0.2292  0.0831  0.1150
 1836DPPE   GL143887  30.897  22.191   5.454  0.0641  0.3253  0.2342
 1836DPPE   GL243888  31.141  22.031   5.339  0.1014  0.0669  0.3089
 1836DPPE   C1A43889  31.385  22.286   5.638  0.1025  0.1912 -0.3189
 1836DPPE   C2A43890  31.680  22.291   5.950 -0.1259 -0.0831  0.0950
 1836DPPE   C3A43891  32.124  22.426   6.102  0.0011 -0.1230 -0.1475
 1836DPPE   C4A43892  32.471  22.413   6.445  0.1057  0.2943  0.0194
 1836DPPE   C1B43893  31.077  21.669   5.702 -0.3336  0.0971 -0.3150
 1836DPPE   C2B43894  31.195  21.456   6.041  0.3338  0.0679 -0.0791
 1836DPPE   C3B43895  31.512  21.527   6.344 -0.0626 -0.2629  0.3303
 1836DPPE   C4B43896  31.989  21.542   6.305  0.1050 -0.0373  0.0134
 1837DPPE   NH343897  38.078  16.489  25.678 -0.1607 -0.2633  0.5429
 1837DPPE   PO443898  38.242  16.882  25.635  0.1555 -0.0818  0.2853
 1837DPPE   GL143899  38.230  16.798  26.048  0.1060 -0.3985 -0.2335
 1837DPPE   GL243900  38.034  17.089  26.122 -0.0496  0.1585  0.0822
 1837DPPE   C1A43901  38.387  16.574  26.431  0.0577 -0.1638  0.0175
 1837DPPE   C2A43902  38.714  16.538  26.834  0.0482  0.0511 -0.1394
 1837DPPE   C3A43903  39.037  16.548  27.159 -0.4356  0.1587 -0.0224
 1837DPPE   C4A43904  39.067  16.404  27.578  0.1973  0.0667 -0.1178
 1837DPPE   C1B43905  38.087  16.921  26.530  0.3177 -0.0893 -0.1664
 1837DPPE   C2B43906  38.396  16.950  26.813 -0.1488  0.1128  0.0581
 1837DPPE   C3B43907  38.492  16.996  27.137  0.1591 -0.0392  0.2532
 1837DPPE   C4B43908  38.659  16.802  27.338  0.1404 -0.0337 -0.0196
 1838DPPE   NH343909  33.895  22.999  17.472 -0.1475  0.0516 -0.0068
 1838DPPE   PO443910  33.482  22.805  17.309  0.0276  0.2419  0.3215
 1838DPPE   GL143911  33.439  22.353  17.228 -0.1176  0.0245  0.0117
 1838DPPE   GL243912  33.080  22.170  17.269  0.0123 -0.0841 -0.1797
 1838DPPE   C1A43913  33.650  22.045  16.914  0.1018 -0.2866 -0.1229
 1838DPPE   C2A43914  33.881  21.717  16.869 -0.0461  0.0760  0.0207
 1838DPPE   C3A43915  34.149  21.534  16.524 -0.0967  0.1048  0.0694
 1838DPPE   C4A43916  34.397  21.342  16.293 -0.1371  0.1535 -0.3914
 1838DPPE   C1B43917  33.293  21.698  17.103 -0.1426  0.1661 -0.3826
 1838DPPE   C2B43918  33.388  21.193  16.927 -0.0786 -0.3650  0.0400
 1838DPPE   C3B43919  33.499  20.818  16.885 -0.4118 -0.4274  0.0098
 1838DPPE   C4B43920  33.536  20.401  16.981 -0.3029 -0.3411  0.0782
 1839DPPE   NH343921   0.852  24.026   5.613 -0.0666  0.0470  0.0345
 1839DPPE   PO443922   1.049  24.362   5.376  0.1495  0.1047  0.4443
 1839DPPE   GL143923   0.769  24.602   5.073  0.2405 -0.0310  0.0379
 1839DPPE   GL243924   0.961  24.832   5.036  0.0069  0.2586 -0.0481
 1839DPPE   C1A43925   0.463  24.476   4.809  0.1088  0.2945  0.1581
 1839DPPE   C2A43926   0.210  24.443   4.337 -0.1500  0.0482 -0.2183
 1839DPPE   C3A43927  -0.179  24.344   4.199 -0.2301 -0.1723  0.4213
 1839DPPE   C4A43928  -0.111  24.083   3.830  0.1544  0.1250 -0.1089
 1839DPPE   C1B43929   0.640  25.006   4.890 -0.3397  0.0386 -0.1814
 1839DPPE   C2B43930   0.290  24.916   4.605 -0.1412  0.1051  0.3090
 1839DPPE   C3B43931   0.139  24.910   4.203  0.1978 -0.1774  0.2098
 1839DPPE   C4B43932  -0.050  25.207   4.000 -0.3329 -0.1795 -0.2455
 1840DPPE   NH343933  16.564  24.964   4.027 -0.0658 -0.1321 -0.0539
 1840DPPE   PO443934  16.580  24.632   3.711 -0.2142  0.0669 -0.1832
 1840DPPE   GL143935  16.316  24.499   4.021 -0.3563 -0.3104  0.0071
 1840DPPE   GL243936  16.095  24.790   3.988 -0.1079  0.2295  0.3746
 1840DPPE   C1A43937  16.015  24.225   4.341 -0.0739 -0.3777 -0.0999
 1840DPPE   C2A43938  15.693  24.098   4.607  0.1558 -0.1281 -0.1162
 1840DPPE   C3A43939  15.654  23.825   4.909  0.1388  0.0803  0.2340
 1840DPPE   C4A43940  15.839  23.835   5.366  0.2272 -0.2273  0.1361
 1840DPPE   C1B43941  16.011  24.786   4.416 -0.1005 -0.2338  0.2031
 1840DPPE   C2B43942  15.967  24.501   4.819  0.0397  0.2142 -0.1068
 1840DPPE   C3B43943  15.893  24.317   5.214  0.1467  0.1428  0.5059
 1840DPPE   C4B43944  15.533  24.203   5.363  0.4547  0.0333  0.1828
 1841DPPE   NH343945   7.047  12.769   8.345 -0.0725  0.1303 -0.2531
 1841DPPE   PO443946   6.962  12.697   8.800 -0.0739  0.4710  0.0972
 1841DPPE   GL143947   6.745  12.382   9.121  0.0034 -0.2936 -0.2862
 1841DPPE   GL243948   6.843  12.078   9.325  0.3889 -0.1297  0.2845
 1841DPPE   C1A43949   6.481  12.023   8.910  0.5557 -0.2602  0.1817
 1841DPPE   C2A43950   6.593  11.672   9.111 -0.2133  0.2552 -0.2182
 1841DPPE   C3A43951   6.517  11.462   9.453  0.2313  0.2208  0.0644
 1841DPPE   C4A43952   6.533  11.429   9.884 -0.0314  0.0197 -0.1729
 1841DPPE   C1B43953   7.044  12.076   9.687 -0.1687  0.0524 -0.1103
 1841DPPE   C2B43954   7.359  11.981   9.927 -0.0682  0.1670  0.0951
 1841DPPE   C3B43955   7.616  11.705  10.101 -0.2141 -0.0087  0.3400
 1841DPPE   C4B43956   7.774  11.383  10.327  0.2640 -0.1318  0.1956
 1842DPPE   NH343957  37.942  11.919  14.290  0.0486  0.0328 -0.0981
 1842DPPE   PO443958  37.836  11.884  13.981 -0.0264  0.1119  0.1154
 1842DPPE   GL143959  37.476  11.757  14.153 -0.1742 -0.0072  0.0177
 1842DPPE   GL243960  37.516  11.458  14.118 -0.2384 -0.1132  0.1538
 1842DPPE   C1A43961  37.153  11.595  14.443 -0.2067 -0.0141 -0.4243
 1842DPPE   C2A43962  36.858  11.192  14.246 -0.1518 -0.2522 -0.0398
 1842DPPE   C3A43963  36.681  10.885  14.057  0.0116  0.0015  0.0550
 1842DPPE   C4A43964  36.484  10.659  14.008  0.4295 -0.1258  0.0692
 1842DPPE   C1B43965  37.754  11.102  14.268 -0.3309 -0.0933 -0.1180
 1842DPPE   C2B43966  37.542  10.718  14.480 -0.2287  0.3074  0.0753
 1842DPPE   C3B43967  37.440  10.304  14.661  0.1511  0.0114  0.2846
 1842DPPE   C4B43968  37.036  10.096  14.522 -0.0029  0.3113  0.0214
 1843DPPE   NH343969  34.962  21.255   4.467  0.0894 -0.0884 -0.0003
 1843DPPE   PO443970  34.602  21.412   4.678  0.0319  0.0777  0.0518
 1843DPPE   GL143971  34.373  21.384   4.283 -0.0144  0.0430 -0.2007
 1843DPPE   GL243972  34.541  21.336   4.012 -0.3984  0.0883  0.0559
 1843DPPE   C1A43973  34.054  21.361   3.964 -0.0404  0.3476  0.2054
 1843DPPE   C2A43974  33.845  21.230   3.704  0.0925 -0.0525  0.0078
 1843DPPE   C3A43975  33.450  21.000   3.540 -0.0576 -0.1626  0.2327
 1843DPPE   C4A43976  33.268  20.853   3.075  0.3775 -0.2181  0.0194
 1843DPPE   C1B43977  34.746  21.590   3.684 -0.2140  0.1374 -0.2273
 1843DPPE   C2B43978  35.160  21.764   3.591 -0.0805  0.1512 -0.2467
 1843DPPE   C3B43979  35.420  22.011   3.382  0.0846  0.2186 -0.1966
 1843DPPE   C4B43980  35.644  22.261   3.422  0.0062 -0.0228 -0.3203
 1844DPPE   NH343981  34.226  18.836   6.595  0.1843 -0.0493 -0.0441
 1844DPPE   PO443982  34.117  18.665   6.246 -0.2821  0.0190  0.0073
 1844DPPE   GL143983  33.594  18.607   6.097 -0.2525 -0.3125  0.0818
 1844DPPE   GL243984  33.584  18.790   5.813  0.1515 -0.1163 -0.1076
 1844DPPE   C1A43985  33.096  18.555   6.040  0.3892  0.4081  0.1427
 1844DPPE   C2A43986  32.699  18.394   5.972 -0.4447  0.1381  0.0578
 1844DPPE   C3A43987  32.255  18.480   5.935  0.0620  0.2852  0.1390
 1844DPPE   C4A43988  31.866  18.536   6.135  0.2718  0.2264 -0.1051
 1844DPPE   C1B43989  33.409  18.523   5.563  0.0392 -0.2706 -0.0244
 1844DPPE   C2B43990  32.979  18.371   5.538  0.0092 -0.0411  0.0247
 1844DPPE   C3B43991  32.468  18.217   5.582 -0.0763 -0.0674  0.1939
 1844DPPE   C4B43992  32.085  17.940   5.417 -0.3282  0.0375 -0.0993
 1845DPPE   NH343993  34.290  16.929  10.356 -0.0022 -0.1547  0.0297
 1845DPPE   PO443994  34.754  16.985  10.260 -0.0013 -0.3444  0.0091
 1845DPPE   GL143995  35.034  17.273  10.192 -0.3880  0.2175  0.0648
 1845DPPE   GL243996  35.031  17.596  10.331 -0.1829 -0.0349  0.0503
 1845DPPE   C1A43997  35.416  17.325  10.317 -0.0756  0.2449  0.2254
 1845DPPE   C2A43998  35.795  17.571  10.325 -0.2330 -0.1861  0.2404
 1845DPPE   C3A43999  36.160  17.723  10.579  0.2497 -0.4288 -0.1614
 1845DPPE   C4A44000  36.398  18.099  10.727 -0.1883  0.1476  0.0974
 1845DPPE   C1B44001  35.328  17.673  10.660  0.0655 -0.3135 -0.2961
 1845DPPE   C2B44002  35.683  17.757  10.774  0.2104  0.1028 -0.1314
 1845DPPE   C3B44003  35.847  18.144  10.849 -0.0868  0.0097  0.1446
 1845DPPE   C4B44004  36.019  18.287  11.241  0.1287  0.0332 -0.4714
 1846DPPE   NH344005  36.024  17.166   7.167 -0.2068  0.1747  0.0540
 1846DPPE   PO444006  35.854  16.871   7.422  0.2437  0.1718  0.0622
 1846DPPE   GL144007  36.318  16.973   7.635  0.2000  0.2507  0.1026
 1846DPPE   GL244008  36.605  16.878   7.487  0.1667  0.5179  0.1796
 1846DPPE   C1A44009  36.661  17.201   7.880  0.1209  0.1482 -0.0549
 1846DPPE   C2A44010  36.899  17.405   8.150  0.3657 -0.0934 -0.0428
 1846DPPE   C3A44011  37.278  17.476   8.201  0.3400  0.0282  0.0500
 1846DPPE   C4A44012  37.389  17.862   8.182 -0.1645  0.0146 -0.3998
 1846DPPE   C1B44013  37.002  16.903   7.698  0.2456 -0.1281 -0.2432
 1846DPPE   C2B44014  37.441  17.077   7.927  0.0598 -0.1376 -0.1528
 1846DPPE   C3B44015  37.658  17.178   8.317 -0.3417  0.0992  0.1459
 1846DPPE   C4B44016  38.136  17.339   8.363 -0.1972 -0.3400 -0.4641
 1847DPPE   NH344017  36.070  19.784  16.940 -0.5610  0.2231 -0.0255
 1847DPPE   PO444018  35.667  20.001  16.946  0.2367 -0.0454 -0.4312
 1847DPPE   GL144019  35.842  20.276  17.141  0.0476 -0.0454  0.0929
 1847DPPE   GL244020  36.136  20.199  17.269  0.0286 -0.2619  0.0281
 1847DPPE   C1A44021  35.661  20.569  17.372  0.0218  0.2525  0.1340
 1847DPPE   C2A44022  35.648  20.796  17.720 -0.4199 -0.2617 -0.4006
 1847DPPE   C3A44023  35.793  21.051  18.087 -0.0375  0.1887 -0.3446
 1847DPPE   C4A44024  35.888  21.488  18.072  0.0594  0.0535  0.0516
 1847DPPE   C1B44025  36.131  20.623  17.521  0.0737  0.1393  0.0017
 1847DPPE   C2B44026  36.452  20.836  17.516  0.0026 -0.0600  0.0433
 1847DPPE   C3B44027  36.491  21.079  17.830  0.0037 -0.0747  0.1654
 1847DPPE   C4B44028  36.870  21.292  18.102 -0.2709  0.0822  0.0068
 1848DPPE   NH344029  37.882  14.652   7.354  0.1183 -0.0299  0.0063
 1848DPPE   PO444030  38.148  14.515   7.031 -0.2757 -0.4126  0.2409
 1848DPPE   GL144031  38.327  14.882   7.022  0.0317 -0.0454  0.3028
 1848DPPE   GL244032  38.004  15.071   6.943 -0.2227 -0.0575  0.1948
 1848DPPE   C1A44033  38.658  15.049   7.408  0.1796  0.3819  0.1885
 1848DPPE   C2A44034  38.509  15.309   7.836  0.0140  0.1988  0.1394
 1848DPPE   C3A44035  38.795  15.419   8.121 -0.2300 -0.1896 -0.1937
 1848DPPE   C4A44036  39.196  15.718   8.253  0.1103  0.0835  0.6213
 1848DPPE   C1B44037  37.977  15.503   7.035 -0.0703  0.0520 -0.1793
 1848DPPE   C2B44038  38.305  15.749   7.258  0.4791 -0.0411  0.3420
 1848DPPE   C3B44039  38.588  16.049   7.125 -0.0838  0.1448 -0.0950
 1848DPPE   C4B44040  38.916  16.358   7.018  0.1205  0.1499  0.2635
 1849DPPE   NH344041  34.387  20.977  13.006 -0.1920  0.0870  0.2619
 1849DPPE   PO444042  34.006  20.691  13.036 -0.1575 -0.1895  0.2727
 1849DPPE   GL144043  34.283  20.698  12.604 -0.2478  0.1717  0.2266
 1849DPPE   GL244044  34.153  20.731  12.221  0.1347  0.0421 -0.1471
 1849DPPE   C1A44045  34.623  20.590  12.337 -0.0794 -0.0558 -0.0772
 1849DPPE   C2A44046  35.180  20.532  12.393  0.0337  0.1555  0.1258
 1849DPPE   C3A44047  35.544  20.688  12.646  0.0073  0.0022  0.0225
 1849DPPE   C4A44048  35.879  20.456  12.897 -0.0061  0.2250  0.2369
 1849DPPE   C1B44049  34.523  20.840  11.843 -0.1499  0.0949 -0.1275
 1849DPPE   C2B44050  34.868  20.525  11.906 -0.1528 -0.1537 -0.0533
 1849DPPE   C3B44051  35.027  20.238  11.634 -0.0114  0.3565 -0.2460
 1849DPPE   C4B44052  35.409  20.134  11.533  0.3552 -0.1188  0.1933
 1850DPPE   NH344053  34.638  21.607  13.905 -0.1798 -0.1161  0.0588
 1850DPPE   PO444054  34.525  21.773  14.261  0.2697 -0.1731 -0.2419
 1850DPPE   GL144055  34.911  22.083  14.372  0.2550 -0.1008  0.1761
 1850DPPE   GL244056  35.188  21.841  14.501 -0.0939 -0.2807 -0.3708
 1850DPPE   C1A44057  35.392  22.190  14.195  0.0512 -0.1018 -0.5003
 1850DPPE   C2A44058  35.559  22.507  13.979 -0.0902 -0.0216 -0.3853
 1850DPPE   C3A44059  35.884  22.799  14.072 -0.3246 -0.1553 -0.0632
 1850DPPE   C4A44060  36.111  22.972  13.748  0.3405  0.0292  0.1067
 1850DPPE   C1B44061  35.559  22.063  14.697 -0.1441  0.1957  0.0990
 1850DPPE   C2B44062  35.901  22.294  14.923 -0.1841  0.2762  0.1466
 1850DPPE   C3B44063  36.322  22.185  14.670 -0.0247 -0.0617 -0.2373
 1850DPPE   C4B44064  36.519  21.818  14.534  0.0918  0.1546 -0.2793
 1851DPPE   NH344065  33.499  20.241  10.125 -0.2638  0.2938 -0.2417
 1851DPPE   PO444066  33.372  20.088   9.720 -0.0487 -0.1797 -0.0025
 1851DPPE   GL144067  33.076  20.271   9.815 -0.3558 -0.1073 -0.0642
 1851DPPE   GL244068  32.984  20.271   9.995  0.1437  0.0629 -0.3288
 1851DPPE   C1A44069  32.611  20.352   9.666  0.1934 -0.1925 -0.1568
 1851DPPE   C2A44070  32.256  20.306   9.662 -0.0242 -0.0357  0.3054
 1851DPPE   C3A44071  31.865  20.301   9.715  0.0482  0.1121 -0.0409
 1851DPPE   C4A44072  31.460  20.118   9.992 -0.0584 -0.0402 -0.4336
 1851DPPE   C1B44073  32.569  20.194  10.129 -0.2107 -0.3851 -0.2649
 1851DPPE   C2B44074  32.164  20.242  10.145 -0.0321 -0.1779  0.0798
 1851DPPE   C3B44075  31.841  20.387  10.212  0.2185 -0.1361  0.2722
 1851DPPE   C4B44076  31.307  20.409  10.388  0.1558  0.0547  0.0103
 1852DPPE   NH344077  37.139  16.179  16.006 -0.2643 -0.1043 -0.1101
 1852DPPE   PO444078  36.698  16.065  15.755 -0.3615 -0.0882 -0.0113
 1852DPPE   GL144079  37.021  16.364  15.519  0.2306  0.1429 -0.0937
 1852DPPE   GL244080  36.773  16.617  15.424 -0.0239  0.1887  0.0819
 1852DPPE   C1A44081  37.276  16.628  15.528  0.1259  0.1381  0.2784
 1852DPPE   C2A44082  37.391  16.997  15.546 -0.0320  0.1615 -0.0041
 1852DPPE   C3A44083  37.457  17.237  15.320 -0.3148 -0.2833  0.4306
 1852DPPE   C4A44084  37.424  17.207  14.838 -0.0595  0.1690  0.1686
 1852DPPE   C1B44085  36.920  17.052  15.543  0.1376 -0.1564 -0.0720
 1852DPPE   C2B44086  37.054  17.376  15.812  0.0568 -0.2570 -0.2372
 1852DPPE   C3B44087  37.499  17.419  15.921 -0.0256 -0.1567 -0.0104
 1852DPPE   C4B44088  37.686  17.265  16.291 -0.1278 -0.0234  0.0627
 1853DPPE   NH344089  34.567  19.972  16.128  0.0274  0.2279  0.1507
 1853DPPE   PO444090  34.663  19.890  16.494  0.1694 -0.2330  0.0036
 1853DPPE   GL144091  34.297  19.831  16.593  0.1225  0.1907 -0.0253
 1853DPPE   GL244092  34.428  19.573  16.779  0.2086 -0.1608 -0.1603
 1853DPPE   C1A44093  34.117  20.017  16.978  0.3541  0.2499 -0.2342
 1853DPPE   C2A44094  34.005  19.764  17.390  0.0999 -0.0427 -0.1743
 1853DPPE   C3A44095  33.970  19.885  17.765  0.2201  0.0049 -0.2042
 1853DPPE   C4A44096  34.183  20.221  18.006  0.1803 -0.0228  0.1600
 1853DPPE   C1B44097  34.174  19.354  17.036 -0.1708 -0.3554  0.0942
 1853DPPE   C2B44098  33.727  19.249  17.177 -0.1954 -0.2665  0.2192
 1853DPPE   C3B44099  33.314  19.111  17.167 -0.1580  0.2277  0.0885
 1853DPPE   C4B44100  32.923  19.206  17.251  0.3675 -0.2760  0.0719
 1854DPPE   NH344101   0.497  10.996  14.358  0.3007 -0.1326 -0.1421
 1854DPPE   PO444102   0.824  10.867  14.003  0.1682  0.1829  0.1281
 1854DPPE   GL144103   0.613  10.446  14.063 -0.0795  0.1969 -0.1479
 1854DPPE   GL244104   0.736  10.484  14.410 -0.2521 -0.2025 -0.0661
 1854DPPE   C1A44105   0.323  10.049  14.079  0.0105  0.2591 -0.1398
 1854DPPE   C2A44106  -0.064   9.864  14.394  0.3996  0.3104 -0.0598
 1854DPPE   C3A44107  -0.071   9.638  14.787 -0.1355  0.2226  0.0692
 1854DPPE   C4A44108   0.263   9.463  14.951 -0.0661 -0.1436  0.0895
 1854DPPE   C1B44109   0.537  10.063  14.591  0.1983  0.0166  0.2859
 1854DPPE   C2B44110   0.759   9.672  14.893  0.2518 -0.1083  0.1793
 1854DPPE   C3B44111   0.760   9.243  15.018  0.1746  0.2021 -0.3179
 1854DPPE   C4B44112   0.913   9.107  15.506  0.0497 -0.2799  0.0202
 1855DPPE   NH344113  34.879  21.328  14.347 -0.0899 -0.4284  0.1009
 1855DPPE   PO444114  34.786  21.594  14.751  0.0099  0.0817 -0.1340
 1855DPPE   GL144115  34.895  21.899  15.057  0.1238  0.0308  0.5271
 1855DPPE   GL244116  34.926  22.172  14.866  0.2584  0.0889 -0.1596
 1855DPPE   C1A44117  35.007  22.265  15.370 -0.3075  0.5374  0.0454
 1855DPPE   C2A44118  35.033  22.503  15.801  0.3522 -0.3310  0.0978
 1855DPPE   C3A44119  34.856  22.880  16.008 -0.2534  0.1612  0.1048
 1855DPPE   C4A44120  34.476  23.006  15.992 -0.2380  0.1387 -0.1157
 1855DPPE   C1B44121  35.350  22.450  14.909  0.2918 -0.0358 -0.4113
 1855DPPE   C2B44122  35.525  22.794  14.563  0.2687  0.0448 -0.3000
 1855DPPE   C3B44123  35.430  23.065  14.189 -0.1347  0.0446 -0.2579
 1855DPPE   C4B44124  35.131  23.287  13.831  0.0104 -0.0982 -0.2233
 1856DPPE   NH344125  34.219  20.711   7.567 -0.0005  0.0397  0.0246
 1856DPPE   PO444126  33.995  20.597   7.162 -0.1512 -0.2015 -0.4030
 1856DPPE   GL144127  33.727  20.441   6.898  0.2487 -0.1382  0.1462
 1856DPPE   GL244128  33.592  20.650   6.661  0.0075  0.1789 -0.0329
 1856DPPE   C1A44129  33.290  20.322   6.712  0.1289  0.0520  0.1479
 1856DPPE   C2A44130  32.898  20.194   6.787 -0.0198  0.3543  0.2176
 1856DPPE   C3A44131  32.542  19.911   6.962  0.1438 -0.0529 -0.2887
 1856DPPE   C4A44132  32.146  19.758   6.755  0.2245  0.2689  0.2555
 1856DPPE   C1B44133  33.191  20.821   6.554  0.1475  0.0767 -0.1313
 1856DPPE   C2B44134  32.863  20.694   6.459 -0.0081 -0.0799 -0.2092
 1856DPPE   C3B44135  32.518  20.536   6.387  0.0076  0.0540 -0.0284
 1856DPPE   C4B44136  32.220  20.248   6.477 -0.0979 -0.0924 -0.1872
 1857DPPE   NH344137  36.972  18.594   2.776 -0.0462  0.0357 -0.1700
 1857DPPE   PO444138  37.062  18.367   3.196 -0.1269 -0.0127 -0.0329
 1857DPPE   GL144139  37.234  18.743   3.169 -0.2149 -0.0039 -0.1101
 1857DPPE   GL244140  37.080  18.951   3.125  0.0167 -0.2310  0.2308
 1857DPPE   C1A44141  37.618  18.936   2.907 -0.3681  0.2758  0.0240
 1857DPPE   C2A44142  37.905  19.264   2.659  0.3637 -0.0653  0.5126
 1857DPPE   C3A44143  38.269  19.383   2.409  0.0059  0.0817 -0.0307
 1857DPPE   C4A44144  38.320  19.594   2.035 -0.1060 -0.0424  0.3642
 1857DPPE   C1B44145  37.386  19.257   3.138 -0.1161  0.1458  0.1104
 1857DPPE   C2B44146  37.642  19.666   3.373 -0.0699  0.2461  0.3045
 1857DPPE   C3B44147  38.087  20.027   3.503  0.2113 -0.0798 -0.1460
 1857DPPE   C4B44148  38.129  20.511   3.444 -0.3360  0.3903  0.0480
 1858DPPE   NH344149  36.784  18.590   4.039 -0.0606  0.0166  0.2936
 1858DPPE   PO444150  36.676  18.910   3.983 -0.1262 -0.1066  0.0122
 1858DPPE   GL144151  36.956  19.256   3.938 -0.1466  0.1543  0.0851
 1858DPPE   GL244152  36.834  19.500   4.076  0.1294  0.0851  0.0581
 1858DPPE   C1A44153  37.348  19.274   3.689  0.1519  0.0983 -0.0112
 1858DPPE   C2A44154  37.771  19.427   3.832  0.2474 -0.0426  0.2412
 1858DPPE   C3A44155  38.147  19.533   3.738 -0.2199  0.2444 -0.0777
 1858DPPE   C4A44156  38.518  19.736   3.490  0.1283 -0.0378 -0.2031
 1858DPPE   C1B44157  37.182  19.777   3.834 -0.1441 -0.0261 -0.2060
 1858DPPE   C2B44158  37.633  19.936   3.790 -0.1213 -0.0052  0.2691
 1858DPPE   C3B44159  38.044  19.915   4.058 -0.1097 -0.2388 -0.2156
 1858DPPE   C4B44160  38.427  19.988   3.933  0.3698  0.1042 -0.1160
 1859DPPE   NH344161  33.641  20.711  14.219 -0.1841  0.1964  0.2586
 1859DPPE   PO444162  33.784  20.713  14.640  0.0388 -0.2209  0.0106
 1859DPPE   GL144163  33.568  20.770  14.968 -0.0476 -0.0876 -0.1154
 1859DPPE   GL244164  33.660  21.058  15.028 -0.1680  0.1914 -0.1597
 1859DPPE   C1A44165  33.246  20.978  15.203  0.4751 -0.2413 -0.3138
 1859DPPE   C2A44166  32.804  21.103  15.070  0.3964 -0.0542 -0.0184
 1859DPPE   C3A44167  32.549  21.245  15.303  0.0683  0.1062  0.3412
 1859DPPE   C4A44168  32.158  21.309  15.127 -0.1384  0.0166  0.0699
 1859DPPE   C1B44169  33.625  21.316  15.294 -0.2938  0.0127  0.1072
 1859DPPE   C2B44170  33.836  21.215  15.659  0.0968  0.2256  0.1711
 1859DPPE   C3B44171  33.489  21.296  16.037 -0.0821 -0.2953 -0.1316
 1859DPPE   C4B44172  33.096  21.458  16.174  0.0416  0.0162 -0.3112
 1860DPPE   NH344173  37.509  13.177  11.999  0.2455  0.2282 -0.0780
 1860DPPE   PO444174  37.942  13.067  12.033 -0.1184 -0.1655 -0.0130
 1860DPPE   GL144175  38.315  13.240  11.855  0.1665 -0.2711 -0.2252
 1860DPPE   GL244176  38.533  13.432  12.072  0.4372  0.0632  0.1749
 1860DPPE   C1A44177  38.595  13.329  11.503  0.0272  0.0529  0.1000
 1860DPPE   C2A44178  38.604  13.618  11.142 -0.1440  0.2951  0.2061
 1860DPPE   C3A44179  38.975  13.954  11.218  0.2292 -0.0161  0.0835
 1860DPPE   C4A44180  39.439  13.957  11.241  0.1608  0.1206  0.0734
 1860DPPE   C1B44181  38.675  13.748  11.940  0.1166 -0.1682  0.0759
 1860DPPE   C2B44182  38.869  14.053  11.720  0.2214 -0.2755 -0.3002
 1860DPPE   C3B44183  39.194  14.320  11.530 -0.0458  0.0011  0.2004
 1860DPPE   C4B44184  39.533  14.542  11.404  0.1563 -0.0466  0.1216
 1861DPPE   NH344185  36.681  17.759  18.034  0.0205 -0.0014  0.1920
 1861DPPE   PO444186  36.267  17.502  17.894 -0.0317 -0.4052  0.1503
 1861DPPE   GL144187  36.293  17.761  18.351  0.1174 -0.0179  0.2134
 1861DPPE   GL244188  36.014  17.992  18.431 -0.1952  0.1184  0.0269
 1861DPPE   C1A44189  36.483  17.915  18.746  0.1263 -0.1118  0.3213
 1861DPPE   C2A44190  36.909  17.751  18.925 -0.1188 -0.3056 -0.1968
 1861DPPE   C3A44191  37.333  17.443  18.937 -0.1794  0.1535  0.1594
 1861DPPE   C4A44192  37.618  17.528  18.638  0.0566  0.3723  0.0966
 1861DPPE   C1B44193  35.589  18.141  18.663  0.1378 -0.3630 -0.3406
 1861DPPE   C2B44194  35.158  18.164  18.588 -0.2792  0.2040 -0.2074
 1861DPPE   C3B44195  34.695  18.187  18.795 -0.1349  0.1541 -0.1705
 1861DPPE   C4B44196  34.284  18.215  18.770 -0.2034 -0.0733 -0.2571
 1862DPPE   NH344197  37.305  23.343  11.472 -0.1052  0.0713  0.0270
 1862DPPE   PO444198  37.642  23.150  11.114  0.0538 -0.1246  0.1760
 1862DPPE   GL144199  37.302  22.929  11.196 -0.1821 -0.0106 -0.1271
 1862DPPE   GL244200  37.061  23.213  11.020 -0.1507 -0.0596  0.0991
 1862DPPE   C1A44201  36.963  22.585  11.259 -0.0229 -0.3291 -0.0883
 1862DPPE   C2A44202  36.640  22.309  11.510  0.1389  0.4452 -0.1937
 1862DPPE   C3A44203  36.204  22.331  11.706  0.0768  0.0301 -0.2907
 1862DPPE   C4A44204  35.969  22.214  11.978 -0.0427  0.2077  0.0245
 1862DPPE   C1B44205  36.878  22.842  10.835 -0.1395 -0.0225  0.2633
 1862DPPE   C2B44206  36.613  22.655  10.548  0.2302 -0.0657  0.2123
 1862DPPE   C3B44207  36.263  22.636  10.225 -0.0226 -0.0090 -0.0371
 1862DPPE   C4B44208  35.945  22.870  10.118  0.0082 -0.1665 -0.0752
 1863DPPE   NH344209  16.442  17.843   2.326 -0.3046 -0.0121 -0.0482
 1863DPPE   PO444210  16.132  17.605   2.085 -0.3770 -0.0175 -0.0528
 1863DPPE   GL144211  16.039  17.654   2.550 -0.0230  0.2164  0.1131
 1863DPPE   GL244212  15.802  17.446   2.595 -0.1845 -0.1560  0.3330
 1863DPPE   C1A44213  15.807  17.785   2.980 -0.1990 -0.0667 -0.0200
 1863DPPE   C2A44214  15.372  17.781   3.180  0.0798  0.1937 -0.1824
 1863DPPE   C3A44215  14.955  17.700   3.049 -0.2933  0.0490 -0.3020
 1863DPPE   C4A44216  14.479  17.743   3.215  0.0870 -0.1844 -0.0886
 1863DPPE   C1B44217  15.402  17.496   2.655  0.1715 -0.0349 -0.1843
 1863DPPE   C2B44218  14.974  17.297   2.720 -0.1952  0.2096  0.0836
 1863DPPE   C3B44219  14.549  17.537   2.652 -0.1020  0.0743 -0.2648
 1863DPPE   C4B44220  14.268  17.850   2.482  0.0396 -0.2416  0.2367
 1864DPPE   NH344221   7.593  10.564  15.472  0.2750 -0.2682 -0.0508
 1864DPPE   PO444222   7.345  10.827  15.802 -0.1159  0.0778 -0.0612
 1864DPPE   GL144223   7.460  11.131  15.366 -0.3150  0.2328  0.0096
 1864DPPE   GL244224   7.517  10.914  15.108  0.2148  0.1281  0.0132
 1864DPPE   C1A44225   7.269  11.592  15.210 -0.1489  0.5350  0.0827
 1864DPPE   C2A44226   6.973  11.963  15.309  0.2263  0.1376  0.3944
 1864DPPE   C3A44227   6.673  12.258  15.098 -0.1654 -0.1785 -0.0595
 1864DPPE   C4A44228   6.271  12.380  15.350  0.1688 -0.0383 -0.0625
 1864DPPE   C1B44229   7.215  11.195  14.901  0.0525  0.2977 -0.0095
 1864DPPE   C2B44230   7.302  11.546  14.665 -0.0587  0.0452 -0.1859
 1864DPPE   C3B44231   7.369  11.818  14.341  0.2548 -0.1495  0.1650
 1864DPPE   C4B44232   7.086  12.221  14.287 -0.0880  0.1771  0.1170
 1865DPPE   NH344233  29.720  22.859   6.864 -0.0863  0.2993 -0.2061
 1865DPPE   PO444234  29.655  23.011   7.209 -0.1414  0.1069 -0.0948
 1865DPPE   GL144235  30.047  22.863   7.320  0.1104  0.1230  0.0039
 1865DPPE   GL244236  29.939  22.647   7.521 -0.3127  0.0755  0.2662
 1865DPPE   C1A44237  30.415  22.534   7.273  0.3140 -0.3930 -0.0082
 1865DPPE   C2A44238  30.727  22.612   7.397  0.0516 -0.1515  0.2244
 1865DPPE   C3A44239  31.134  22.676   7.519 -0.0922 -0.0539  0.0583
 1865DPPE   C4A44240  31.328  22.936   7.699 -0.0130 -0.0455 -0.0973
 1865DPPE   C1B44241  30.289  22.594   7.827 -0.2867 -0.1662 -0.1362
 1865DPPE   C2B44242  30.604  22.369   7.803  0.2493  0.2159 -0.0335
 1865DPPE   C3B44243  31.035  22.243   7.809  0.1175  0.0118 -0.2132
 1865DPPE   C4B44244  31.437  22.271   7.923  0.1096 -0.0407  0.4736
 1866DPPE   NH344245  35.796  28.687   8.808 -0.2991 -0.3385 -0.2365
 1866DPPE   PO444246  35.524  28.402   8.646  0.0202  0.3187 -0.3793
 1866DPPE   GL144247  35.671  28.055   8.747  0.1725 -0.2232  0.1161
 1866DPPE   GL244248  35.499  27.872   8.491  0.2718  0.2246  0.1171
 1866DPPE   C1A44249  35.972  27.771   8.747 -0.2371 -0.1104  0.2749
 1866DPPE   C2A44250  36.109  27.433   8.701  0.1857 -0.0702  0.1148
 1866DPPE   C3A44251  36.033  26.991   8.536 -0.0517  0.0708  0.0742
 1866DPPE   C4A44252  36.121  26.598   8.626 -0.0685 -0.2787 -0.0536
 1866DPPE   C1B44253  35.555  27.451   8.480  0.0923 -0.2277  0.2339
 1866DPPE   C2B44254  35.548  27.019   8.400 -0.1157  0.1586  0.0120
 1866DPPE   C3B44255  35.661  26.535   8.285  0.0743  0.1646  0.1019
 1866DPPE   C4B44256  35.884  26.162   8.269 -0.0408 -0.0245  0.1689
 1867DPPE   NH344257   1.502  19.485   5.584 -0.1818 -0.0205  0.0024
 1867DPPE   PO444258   1.853  19.437   5.337 -0.4127 -0.0511 -0.3099
 1867DPPE   GL144259   1.744  19.187   5.197  0.3424  0.2821  0.1702
 1867DPPE   GL244260   1.391  19.111   5.235 -0.0967 -0.1173  0.0965
 1867DPPE   C1A44261   1.733  18.827   4.872  0.0306  0.3671 -0.0903
 1867DPPE   C2A44262   1.664  18.363   4.964 -0.1586 -0.0824 -0.0069
 1867DPPE   C3A44263   1.679  17.996   5.105 -0.0704 -0.1005  0.2786
 1867DPPE   C4A44264   1.477  17.590   4.932 -0.0969  0.1301 -0.0575
 1867DPPE   C1B44265   1.066  19.128   4.924  0.2413 -0.2839  0.2061
 1867DPPE   C2B44266   0.723  19.188   4.629  0.0344  0.1547 -0.0562
 1867DPPE   C3B44267   0.427  19.629   4.701 -0.0134  0.3066 -0.3669
 1867DPPE   C4B44268   0.377  20.058   4.535 -0.3222  0.0077 -0.2121
 1868DPPE   NH344269   1.813  10.551   0.856 -0.0637 -0.0096  0.1352
 1868DPPE   PO444270   1.524  10.646   1.146  0.3092 -0.0793  0.3343
 1868DPPE   GL144271   1.391  11.071   1.350 -0.2348  0.1170 -0.2198
 1868DPPE   GL244272   1.109  10.982   1.165  0.1203 -0.3543  0.0261
 1868DPPE   C1A44273   1.399  11.492   1.285 -0.1119 -0.1540 -0.0315
 1868DPPE   C2A44274   1.303  11.936   1.514  0.1206 -0.1431  0.1461
 1868DPPE   C3A44275   1.247  12.308   1.189 -0.1944 -0.1756  0.1828
 1868DPPE   C4A44276   1.275  12.396   0.714  0.0047 -0.0104  0.0564
 1868DPPE   C1B44277   0.923  11.141   1.538  0.1028 -0.1544  0.0179
 1868DPPE   C2B44278   0.629  11.444   1.721  0.0503 -0.0411  0.0276
 1868DPPE   C3B44279   0.443  11.871   1.742  0.1367  0.2909 -0.0376
 1868DPPE   C4B44280   0.291  12.430   1.655  0.1678 -0.1169 -0.0430
 1869DPPE   NH344281   8.831  13.231  10.106 -0.3009 -0.1318 -0.0031
 1869DPPE   PO444282   9.091  13.587  10.118  0.0559  0.2154 -0.0959
 1869DPPE   GL144283   9.352  13.267  10.307 -0.0818  0.0902 -0.1397
 1869DPPE   GL244284   9.191  12.946  10.288  0.4184 -0.0390 -0.0749
 1869DPPE   C1A44285   9.749  13.105  10.413 -0.0424  0.3149  0.3078
 1869DPPE   C2A44286  10.095  12.784  10.323 -0.0991 -0.2410  0.0320
 1869DPPE   C3A44287  10.130  12.420  10.534 -0.2980  0.1935  0.0070
 1869DPPE   C4A44288   9.962  11.933  10.450 -0.0104  0.1294  0.0746
 1869DPPE   C1B44289   9.440  12.693  10.417  0.3197 -0.0332 -0.3865
 1869DPPE   C2B44290   9.652  12.355  10.600  0.0287  0.0401 -0.2304
 1869DPPE   C3B44291   9.794  12.174  10.962  0.0002  0.2398 -0.0400
 1869DPPE   C4B44292   9.879  11.794  11.064 -0.0782  0.1079  0.0158
 1870DPPE   NH344293  34.667  10.025  14.998  0.0309  0.2371 -0.0421
 1870DPPE   PO444294  35.002   9.722  15.015  0.0251  0.1339  0.1540
 1870DPPE   GL144295  35.336   9.935  14.985  0.3472  0.2942  0.0108
 1870DPPE   GL244296  35.556   9.680  15.169 -0.0455 -0.0465  0.1592
 1870DPPE   C1A44297  35.610  10.275  14.736  0.0667 -0.3990 -0.4726
 1870DPPE   C2A44298  35.699  10.665  14.440 -0.1575  0.0285 -0.0323
 1870DPPE   C3A44299  36.047  10.905  14.125  0.4219  0.1888  0.0917
 1870DPPE   C4A44300  36.331  11.220  14.328 -0.3187 -0.1430  0.0704
 1870DPPE   C1B44301  35.943   9.814  15.002 -0.3355 -0.2459  0.0350
 1870DPPE   C2B44302  36.271  10.007  14.739  0.0500 -0.2506  0.1983
 1870DPPE   C3B44303  36.633  10.281  14.813 -0.3712 -0.0631 -0.1380
 1870DPPE   C4B44304  37.044  10.233  15.037  0.1315 -0.2824 -0.1236
 1871DPPE   NH344305  35.215  20.223  20.605 -0.0244  0.2097  0.1708
 1871DPPE   PO444306  35.134  19.809  20.531 -0.3231  0.1499 -0.0003
 1871DPPE   GL144307  35.188  19.489  20.328 -0.0432  0.2146  0.2633
 1871DPPE   GL244308  34.849  19.449  20.204 -0.0065  0.0574  0.0944
 1871DPPE   C1A44309  35.304  19.366  19.966 -0.0283 -0.0601  0.0559
 1871DPPE   C2A44310  35.177  19.402  19.483  0.2199 -0.1126  0.3470
 1871DPPE   C3A44311  35.091  19.436  19.069  0.1306  0.1962 -0.2136
 1871DPPE   C4A44312  34.907  19.596  18.743  0.3514  0.1222 -0.2139
 1871DPPE   C1B44313  34.759  19.570  19.729 -0.2407  0.1536  0.2205
 1871DPPE   C2B44314  34.624  19.426  19.298  0.0829  0.0432  0.2660
 1871DPPE   C3B44315  34.684  19.084  19.022 -0.2484  0.0382 -0.0469
 1871DPPE   C4B44316  34.757  19.095  18.573  0.0868  0.3456  0.0701
 1872DPPE   NH344317  29.748  24.027  12.308  0.1401  0.0490  0.1047
 1872DPPE   PO444318  29.409  23.799  11.948 -0.1311  0.2833 -0.0390
 1872DPPE   GL144319  29.644  23.401  11.990  0.1111  0.0786  0.2038
 1872DPPE   GL244320  29.936  23.568  12.282  0.4232  0.0829 -0.0080
 1872DPPE   C1A44321  29.702  22.990  11.857 -0.2008  0.0225  0.0305
 1872DPPE   C2A44322  30.090  22.752  11.746 -0.0137 -0.1168  0.1490
 1872DPPE   C3A44323  30.392  22.633  11.403  0.0354 -0.2425 -0.0853
 1872DPPE   C4A44324  30.441  22.579  11.059 -0.1123  0.1002 -0.2463
 1872DPPE   C1B44325  30.472  23.433  12.349  0.4854  0.0164  0.1108
 1872DPPE   C2B44326  30.837  23.164  12.302  0.0571  0.1391  0.0078
 1872DPPE   C3B44327  31.171  23.259  12.088 -0.1981 -0.0004  0.0194
 1872DPPE   C4B44328  31.250  23.583  11.730 -0.2088  0.1744 -0.2737
 1873DPPE   NH344329   5.790  12.031  17.837  0.5002 -0.1515 -0.0182
 1873DPPE   PO444330   5.451  11.697  17.701 -0.0027  0.0561  0.0666
 1873DPPE   GL144331   5.135  11.992  17.731  0.4369 -0.2899  0.2473
 1873DPPE   GL244332   4.889  11.999  17.430 -0.2758 -0.0580 -0.1788
 1873DPPE   C1A44333   4.962  12.388  17.667  0.1312 -0.5991  0.0712
 1873DPPE   C2A44334   4.829  12.651  17.375 -0.1776  0.3356  0.1420
 1873DPPE   C3A44335   4.795  12.858  16.999 -0.2312  0.2187  0.1077
 1873DPPE   C4A44336   4.428  12.890  16.781  0.1701 -0.5462 -0.4685
 1873DPPE   C1B44337   4.601  12.257  17.254 -0.1167 -0.0141 -0.0954
 1873DPPE   C2B44338   4.426  12.442  16.958  0.4202 -0.2015 -0.2036
 1873DPPE   C3B44339   4.249  12.513  16.532  0.0236  0.2142  0.2425
 1873DPPE   C4B44340   4.148  12.359  16.230 -0.3375 -0.1438 -0.2912
 1874DPPE   NH344341  12.044  24.298   4.564  0.1580  0.0851 -0.1091
 1874DPPE   PO444342  11.942  24.016   4.217  0.3661 -0.5229  0.1375
 1874DPPE   GL144343  12.123  24.321   3.910  0.0092 -0.0663 -0.1091
 1874DPPE   GL244344  12.057  24.544   4.114 -0.3285 -0.0289 -0.2236
 1874DPPE   C1A44345  12.533  24.589   3.805  0.0973  0.2878 -0.2203
 1874DPPE   C2A44346  12.525  24.718   3.467 -0.0859 -0.1489  0.0945
 1874DPPE   C3A44347  12.832  25.034   3.253 -0.0868 -0.1253  0.0187
 1874DPPE   C4A44348  13.282  24.869   3.186  0.2150 -0.4129 -0.3849
 1874DPPE   C1B44349  12.111  24.950   3.945  0.0216 -0.0790  0.1676
 1874DPPE   C2B44350  12.166  25.299   4.043 -0.0649  0.2310  0.4213
 1874DPPE   C3B44351  12.609  25.453   4.296 -0.3719 -0.0772  0.2844
 1874DPPE   C4B44352  13.001  25.272   4.370 -0.1242  0.0328  0.1010
 1875DPPE   NH344353  32.025  11.940  10.273 -0.1365  0.3630  0.1164
 1875DPPE   PO444354  32.011  12.228  10.711 -0.1124 -0.0706  0.0911
 1875DPPE   GL144355  32.282  12.480  10.956 -0.0113  0.1397 -0.2261
 1875DPPE   GL244356  32.312  12.759  10.704  0.1386 -0.0700 -0.0228
 1875DPPE   C1A44357  32.711  12.349  11.312  0.0117 -0.0800 -0.0730
 1875DPPE   C2A44358  32.986  12.603  11.648 -0.0209 -0.1371  0.1072
 1875DPPE   C3A44359  33.203  12.776  12.078  0.0848  0.1052  0.1092
 1875DPPE   C4A44360  33.089  12.759  12.504  0.1023  0.2159 -0.1264
 1875DPPE   C1B44361  32.412  13.104  10.890 -0.0682 -0.1109 -0.1484
 1875DPPE   C2B44362  32.571  13.315  10.969  0.0234  0.0727  0.4279
 1875DPPE   C3B44363  32.857  13.539  11.171 -0.1519 -0.2741  0.0721
 1875DPPE   C4B44364  33.166  13.776  11.283  0.0940  0.2717 -0.1118
 1876DPPE   NH344365  11.016  29.396  19.092  0.0386 -0.1378 -0.0893
 1876DPPE   PO444366  11.021  29.084  19.414  0.0574 -0.0120  0.2643
 1876DPPE   GL144367  10.786  28.737  19.355 -0.2175  0.0484 -0.1738
 1876DPPE   GL244368  10.964  28.409  19.223  0.2625  0.0944  0.2504
 1876DPPE   C1A44369  10.496  28.473  19.342 -0.2976 -0.0574 -0.0586
 1876DPPE   C2A44370  10.309  28.409  18.914  0.0100 -0.1853  0.1109
 1876DPPE   C3A44371  10.233  28.096  18.635 -0.0923  0.2286  0.1539
 1876DPPE   C4A44372  10.405  28.094  18.148 -0.1594  0.0485  0.0797
 1876DPPE   C1B44373  10.927  28.163  18.873  0.0476  0.0685 -0.0035
 1876DPPE   C2B44374  10.781  27.836  18.619 -0.3050  0.2525  0.3536
 1876DPPE   C3B44375  10.411  27.574  18.371 -0.2161 -0.0618  0.0068
 1876DPPE   C4B44376  10.437  27.224  18.027 -0.3025 -0.1949  0.2459
 1877DPPE   NH344377  19.149  20.960   6.550 -0.4410 -0.0928  0.1037
 1877DPPE   PO444378  19.027  20.469   6.480  0.2488 -0.0929  0.2370
 1877DPPE   GL144379  18.714  20.763   6.614 -0.3611 -0.1333  0.1662
 1877DPPE   GL244380  18.769  20.847   6.943 -0.1722 -0.0438  0.0136
 1877DPPE   C1A44381  18.338  21.016   6.699  0.0965 -0.1174  0.1012
 1877DPPE   C2A44382  17.856  21.215   6.725  0.2161 -0.2281 -0.0535
 1877DPPE   C3A44383  17.524  21.200   7.016 -0.2612  0.0316 -0.0579
 1877DPPE   C4A44384  17.195  20.894   7.076  0.0524 -0.0266 -0.1191
 1877DPPE   C1B44385  18.626  21.306   7.092 -0.0348 -0.1463 -0.1071
 1877DPPE   C2B44386  18.477  21.703   7.201  0.0958  0.1048 -0.0278
 1877DPPE   C3B44387  18.399  22.175   7.183 -0.2105  0.1227  0.1368
 1877DPPE   C4B44388  18.507  22.597   6.863  0.2049 -0.1920  0.0425
 1878DPPE   NH344389   4.032  16.077  14.342  0.1588 -0.0620 -0.2757
 1878DPPE   PO444390   3.654  15.852  14.368  0.4498  0.1855 -0.2916
 1878DPPE   GL144391   3.400  15.775  14.704  0.1151  0.1349  0.1083
 1878DPPE   GL244392   3.423  15.405  14.662 -0.0941 -0.2459 -0.0654
 1878DPPE   C1A44393   3.057  15.672  14.881  0.0051  0.2807  0.2818
 1878DPPE   C2A44394   3.160  15.401  15.126  0.1343 -0.1277  0.0100
 1878DPPE   C3A44395   3.158  15.485  15.569  0.0409 -0.5798  0.2508
 1878DPPE   C4A44396   3.273  15.225  15.960  0.3213 -0.1292  0.0234
 1878DPPE   C1B44397   3.108  15.120  14.632  0.3485  0.0112 -0.0809
 1878DPPE   C2B44398   2.807  14.739  14.657  0.2715  0.0273  0.0594
 1878DPPE   C3B44399   2.381  14.741  14.850  0.0324  0.3604 -0.1907
 1878DPPE   C4B44400   2.128  14.636  15.225 -0.0162 -0.1079 -0.1071
 1879DPPE   NH344401   8.917  32.882   8.919 -0.0672 -0.1049  0.1168
 1879DPPE   PO444402   8.471  32.806   9.098  0.1899 -0.0120  0.1484
 1879DPPE   GL144403   8.461  32.360   9.104 -0.1499  0.0723 -0.1705
 1879DPPE   GL244404   8.392  32.316   8.773 -0.1368 -0.0995  0.0457
 1879DPPE   C1A44405   8.539  31.889   9.159  0.1113  0.1855 -0.3313
 1879DPPE   C2A44406   8.756  31.495   9.228  0.0323 -0.1337  0.0210
 1879DPPE   C3A44407   9.069  31.155   9.309  0.2888  0.0505  0.3860
 1879DPPE   C4A44408   9.365  30.715   9.433 -0.1646  0.0865 -0.1151
 1879DPPE   C1B44409   8.638  31.992   8.567 -0.0971  0.0346 -0.1137
 1879DPPE   C2B44410   8.531  31.680   8.264 -0.2311 -0.0776 -0.1419
 1879DPPE   C3B44411   8.427  31.509   7.875  0.0498 -0.1126 -0.1504
 1879DPPE   C4B44412   7.966  31.643   7.718  0.2807 -0.1504 -0.2040
 1880DPPE   NH344413  13.105  12.319   4.150  0.2887  0.1169  0.3246
 1880DPPE   PO444414  12.952  12.601   3.719  0.3614 -0.0358 -0.0381
 1880DPPE   GL144415  13.118  12.924   3.861 -0.2970 -0.1706  0.1634
 1880DPPE   GL244416  13.082  12.825   4.184  0.0310  0.2197 -0.3426
 1880DPPE   C1A44417  13.397  13.230   4.037  0.2024  0.4390  0.2471
 1880DPPE   C2A44418  13.504  13.530   4.090 -0.3375 -0.2576 -0.4979
 1880DPPE   C3A44419  13.603  13.955   3.949  0.1582  0.0193 -0.1325
 1880DPPE   C4A44420  13.355  14.271   3.928 -0.2112  0.0183 -0.1821
 1880DPPE   C1B44421  13.009  12.925   4.619 -0.0601  0.2376 -0.2310
 1880DPPE   C2B44422  12.648  12.881   4.853  0.0941  0.1366 -0.1377
 1880DPPE   C3B44423  12.252  13.036   4.895 -0.1007 -0.0799  0.4443
 1880DPPE   C4B44424  11.891  12.825   4.841  0.1015  0.1852 -0.1380
 1881DPPE   NH344425   2.952  19.969  22.473  0.0289  0.0341  0.2501
 1881DPPE   PO444426   3.032  20.404  22.467 -0.2955 -0.2174  0.2097
 1881DPPE   GL144427   3.380  20.299  22.198 -0.3878  0.0192  0.2999
 1881DPPE   GL244428   3.391  20.011  22.201 -0.1984  0.3204  0.1026
 1881DPPE   C1A44429   3.394  20.415  21.736  0.0364  0.1106 -0.1862
 1881DPPE   C2A44430   3.272  20.613  21.228 -0.2672 -0.0017 -0.1262
 1881DPPE   C3A44431   3.466  20.834  20.794 -0.1014  0.0907  0.2609
 1881DPPE   C4A44432   3.719  20.658  20.445  0.0537 -0.1419  0.0492
 1881DPPE   C1B44433   3.154  19.909  21.864 -0.1662 -0.0660  0.1559
 1881DPPE   C2B44434   3.321  19.838  21.437  0.1508 -0.0551  0.0143
 1881DPPE   C3B44435   3.306  19.857  21.005  0.1359 -0.1174 -0.0092
 1881DPPE   C4B44436   3.461  19.959  20.585 -0.0635 -0.0768  0.0149
 1882DPPE   NH344437  31.166  13.718  10.106 -0.2434 -0.0226  0.0556
 1882DPPE   PO444438  30.917  13.832  10.403  0.1226  0.0663  0.1562
 1882DPPE   GL144439  31.285  13.962  10.612 -0.0902 -0.0121 -0.4154
 1882DPPE   GL244440  31.224  14.339  10.748 -0.3395  0.2642 -0.0371
 1882DPPE   C1A44441  31.546  14.103  10.409 -0.2154  0.1058  0.2116
 1882DPPE   C2A44442  31.881  14.368  10.427  0.1523 -0.0190 -0.0366
 1882DPPE   C3A44443  32.030  14.693  10.431  0.0792 -0.3210 -0.0924
 1882DPPE   C4A44444  32.441  14.919  10.455 -0.0956 -0.1026  0.0573
 1882DPPE   C1B44445  31.322  14.597  10.455 -0.1836 -0.0350 -0.1610
 1882DPPE   C2B44446  31.635  14.981  10.447 -0.0323 -0.3137  0.1152
 1882DPPE   C3B44447  31.776  15.418  10.425 -0.0207 -0.2248 -0.3262
 1882DPPE   C4B44448  31.889  15.616  10.793 -0.0697  0.2835  0.1223
 1883DPPE   NH344449  12.102  16.135  26.350  0.2293 -0.1416  0.1264
 1883DPPE   PO444450  11.872  16.507  26.316 -0.3622  0.0943  0.5252
 1883DPPE   GL144451  11.867  16.742  26.692  0.0511 -0.3827  0.1399
 1883DPPE   GL244452  11.531  16.826  26.734 -0.1346  0.0685  0.0220
 1883DPPE   C1A44453  11.887  17.085  27.056 -0.0964  0.0141 -0.1846
 1883DPPE   C2A44454  11.611  17.129  27.410 -0.3169 -0.0667  0.1030
 1883DPPE   C3A44455  11.728  17.312  27.779 -0.1809  0.0781 -0.3946
 1883DPPE   C4A44456  11.935  17.262  28.267 -0.1642  0.1026  0.2234
 1883DPPE   C1B44457  11.238  16.918  27.120  0.1516 -0.0696 -0.1427
 1883DPPE   C2B44458  10.874  16.724  27.274 -0.1100 -0.0218 -0.3032
 1883DPPE   C3B44459  10.403  16.648  27.383  0.0865 -0.0243  0.0913
 1883DPPE   C4B44460   9.930  16.608  27.440  0.0282 -0.2180  0.1996
 1884DPPE   NH344461   0.878  19.179  14.085 -0.0782  0.2484 -0.2724
 1884DPPE   PO444462   0.883  18.780  13.874  0.0675 -0.2011 -0.1083
 1884DPPE   GL144463   0.614  18.417  13.882 -0.0464  0.1752  0.0356
 1884DPPE   GL244464   0.349  18.399  13.762  0.1815  0.1346 -0.3229
 1884DPPE   C1A44465   0.666  17.992  14.086  0.1267 -0.0162  0.0739
 1884DPPE   C2A44466   0.461  17.634  14.129  0.2040 -0.0730  0.3183
 1884DPPE   C3A44467   0.154  17.367  13.968  0.0903 -0.1510 -0.2825
 1884DPPE   C4A44468  -0.068  17.054  14.118  0.1015 -0.2925  0.3263
 1884DPPE   C1B44469   0.077  18.036  13.906  0.3640 -0.1929 -0.0724
 1884DPPE   C2B44470  -0.248  17.765  13.810  0.0806  0.1056 -0.0873
 1884DPPE   C3B44471  -0.587  17.781  13.657 -0.3578 -0.1343 -0.5523
 1884DPPE   C4B44472  -0.883  18.165  13.554  0.0611  0.1293  0.0041
 1885DPPE   NH344473   4.785  18.278   2.528 -0.4709  0.0288 -0.1241
 1885DPPE   PO444474   4.558  17.978   2.847 -0.1419  0.1960  0.1729
 1885DPPE   GL144475   4.449  17.755   2.442  0.1073  0.2154  0.1859
 1885DPPE   GL244476   4.054  17.821   2.217  0.1456 -0.1723  0.1740
 1885DPPE   C1A44477   4.586  17.953   2.001 -0.1768  0.1041 -0.0819
 1885DPPE   C2A44478   4.731  17.776   1.744 -0.0493 -0.0654 -0.2740
 1885DPPE   C3A44479   4.772  18.128   1.414 -0.3850  0.4032 -0.1967
 1885DPPE   C4A44480   4.528  18.120   0.945 -0.2586  0.2200 -0.1876
 1885DPPE   C1B44481   4.161  17.918   1.880  0.2295  0.0707 -0.0830
 1885DPPE   C2B44482   4.393  17.814   1.405 -0.4182  0.0134 -0.2843
 1885DPPE   C3B44483   4.421  17.622   1.065 -0.0446  0.2468 -0.2147
 1885DPPE   C4B44484   4.445  17.232   0.881 -0.0788 -0.0445 -0.0450
 1886DPPE   NH344485  12.891  27.403   2.132 -0.0131  0.0336  0.0466
 1886DPPE   PO444486  13.089  27.132   2.247  0.0337  0.2493 -0.0545
 1886DPPE   GL144487  12.720  26.903   2.418 -0.0284 -0.0537  0.1662
 1886DPPE   GL244488  12.680  26.657   2.179 -0.0862  0.0867  0.0357
 1886DPPE   C1A44489  12.593  26.732   2.843 -0.0404  0.0623  0.2270
 1886DPPE   C2A44490  12.159  26.566   2.818  0.2341 -0.2022  0.1510
 1886DPPE   C3A44491  11.787  26.502   2.509 -0.3965  0.1176 -0.0764
 1886DPPE   C4A44492  11.648  26.423   2.106  0.0470  0.0325 -0.0910
 1886DPPE   C1B44493  12.385  26.314   2.290  0.0003 -0.3029 -0.0488
 1886DPPE   C2B44494  12.348  26.173   2.677  0.1679 -0.0330  0.1810
 1886DPPE   C3B44495  12.141  25.805   2.806  0.0147  0.0658 -0.0109
 1886DPPE   C4B44496  12.079  25.373   2.946 -0.0297 -0.2391  0.1404
 1887DPPE   NH344497   5.918  27.347  16.271  0.0041  0.1122 -0.3251
 1887DPPE   PO444498   6.349  27.305  16.334 -0.1201  0.1164 -0.0452
 1887DPPE   GL144499   6.131  27.623  16.657 -0.0372 -0.1084  0.0619
 1887DPPE   GL244500   6.135  27.797  16.440  0.2570  0.2375 -0.3272
 1887DPPE   C1A44501   6.410  27.783  16.960 -0.3512 -0.1538  0.0121
 1887DPPE   C2A44502   6.493  28.057  17.201  0.3237  0.2721  0.0590
 1887DPPE   C3A44503   6.310  28.176  17.557 -0.0391 -0.1966  0.2678
 1887DPPE   C4A44504   6.081  28.090  17.892 -0.1028  0.3583 -0.2585
 1887DPPE   C1B44505   6.083  28.110  16.796  0.0412  0.2961  0.1416
 1887DPPE   C2B44506   5.933  28.131  17.122 -0.2073 -0.0899  0.0725
 1887DPPE   C3B44507   5.764  28.008  17.464  0.5570  0.0829  0.0716
 1887DPPE   C4B44508   5.575  28.272  17.780  0.2011 -0.0116 -0.4445
 1888DPPE   NH344509   1.829  19.040   7.179 -0.0500  0.2181 -0.1464
 1888DPPE   PO444510   2.168  18.655   7.067 -0.0227  0.1186 -0.2076
 1888DPPE   GL144511   1.889  18.480   6.993  0.1788  0.1888 -0.0100
 1888DPPE   GL244512   1.813  18.435   6.742 -0.2703 -0.0353 -0.0158
 1888DPPE   C1A44513   1.508  18.301   7.115  0.0319  0.2214 -0.1795
 1888DPPE   C2A44514   1.074  18.144   6.911 -0.1559  0.0153  0.2971
 1888DPPE   C3A44515   0.609  18.241   6.702 -0.0987  0.1954 -0.2619
 1888DPPE   C4A44516   0.204  18.169   6.627  0.0498  0.2473 -0.5037
 1888DPPE   C1B44517   1.556  18.335   6.339  0.0261 -0.4660 -0.0200
 1888DPPE   C2B44518   1.326  18.244   5.965  0.3901 -0.0455 -0.2226
 1888DPPE   C3B44519   1.392  17.807   5.837 -0.0462  0.3038 -0.3537
 1888DPPE   C4B44520   1.255  17.652   5.412 -0.1083 -0.4742  0.4149
 1889DPPE   NH344521   5.817  25.140  25.611  0.1085  0.0336 -0.2881
 1889DPPE   PO444522   5.313  25.380  25.531 -0.2213  0.1421  0.2881
 1889DPPE   GL144523   5.359  25.197  25.959 -0.0250 -0.1149  0.3435
 1889DPPE   GL244524   5.326  24.914  25.763  0.1874  0.1674  0.1161
 1889DPPE   C1A44525   5.575  25.156  26.421  0.2040 -0.2973 -0.0141
 1889DPPE   C2A44526   5.571  24.887  26.789 -0.2999  0.1272  0.0579
 1889DPPE   C3A44527   5.738  24.697  27.063 -0.0710 -0.0724 -0.0869
 1889DPPE   C4A44528   5.789  24.403  27.278  0.1061  0.1316 -0.2777
 1889DPPE   C1B44529   5.428  24.661  26.114  0.1201 -0.3174  0.0942
 1889DPPE   C2B44530   5.322  24.523  26.537 -0.3064 -0.0975  0.0097
 1889DPPE   C3B44531   5.353  24.238  26.937  0.0370 -0.1558 -0.4294
 1889DPPE   C4B44532   4.975  23.857  26.876  0.1918 -0.1017  0.0755
 1890DPPE   NH344533   1.428  18.402   9.014  0.0102  0.2889  0.0657
 1890DPPE   PO444534   1.645  18.085   8.750 -0.0209  0.1497  0.2783
 1890DPPE   GL144535   1.586  17.653   8.582  0.1184  0.1307 -0.0482
 1890DPPE   GL244536   1.228  17.782   8.559  0.2879  0.0535 -0.1486
 1890DPPE   C1A44537   1.328  17.373   8.372  0.0576  0.1555  0.0532
 1890DPPE   C2A44538   1.070  17.160   8.076 -0.0900 -0.0237  0.0077
 1890DPPE   C3A44539   0.656  17.045   7.960 -0.1888  0.0297 -0.2263
 1890DPPE   C4A44540   0.257  17.274   7.746 -0.0999  0.2817 -0.4624
 1890DPPE   C1B44541   0.921  17.589   8.323 -0.2089 -0.4822  0.0527
 1890DPPE   C2B44542   0.554  17.512   8.170 -0.1228 -0.0762  0.0435
 1890DPPE   C3B44543   0.194  17.652   8.132 -0.0239  0.0735 -0.2109
 1890DPPE   C4B44544  -0.163  17.711   8.000  0.0683 -0.1057 -0.0217
 1891DPPE   NH344545  10.323  11.581  15.853 -0.0062 -0.4075  0.1553
 1891DPPE   PO444546  10.461  11.197  15.672  0.2611  0.2986 -0.1987
 1891DPPE   GL144547  10.336  11.533  15.333  0.0972 -0.2881  0.1397
 1891DPPE   GL244548  10.173  11.494  15.026 -0.0912 -0.2170 -0.3526
 1891DPPE   C1A44549  10.171  11.975  15.194  0.0897  0.0518  0.1086
 1891DPPE   C2A44550   9.787  12.302  15.056  0.2102 -0.3850  0.0222
 1891DPPE   C3A44551   9.285  12.307  14.947 -0.0851  0.1741  0.0335
 1891DPPE   C4A44552   8.945  12.359  14.676  0.1356  0.1914 -0.0364
 1891DPPE   C1B44553   9.892  11.721  14.795  0.2339  0.1998  0.3267
 1891DPPE   C2B44554   9.706  12.087  14.640 -0.2281 -0.0561  0.2331
 1891DPPE   C3B44555   9.765  12.400  14.303 -0.2144 -0.0128  0.1064
 1891DPPE   C4B44556   9.841  12.736  14.076  0.2719  0.3014  0.0488
 1892DPPE   NH344557   0.539  20.482   7.714 -0.3332 -0.1569  0.2596
 1892DPPE   PO444558   0.732  20.103   7.915 -0.1691 -0.1010  0.2026
 1892DPPE   GL144559   0.558  19.768   7.599  0.3070 -0.2357  0.2325
 1892DPPE   GL244560   0.786  19.686   7.426 -0.0690 -0.2792 -0.2215
 1892DPPE   C1A44561   0.260  19.482   7.495 -0.0461 -0.0119 -0.1924
 1892DPPE   C2A44562   0.006  19.066   7.572 -0.0784  0.4204 -0.3090
 1892DPPE   C3A44563  -0.385  18.854   7.801 -0.1442 -0.2058  0.0328
 1892DPPE   C4A44564  -0.316  18.577   8.120  0.0218 -0.2568  0.1017
 1892DPPE   C1B44565   0.611  19.576   7.051 -0.1162 -0.3269 -0.3043
 1892DPPE   C2B44566   0.204  19.657   6.877 -0.1373  0.0471  0.3306
 1892DPPE   C3B44567  -0.140  19.608   7.154 -0.1017 -0.1337  0.2279
 1892DPPE   C4B44568  -0.536  19.525   7.314 -0.0009 -0.0670  0.1539
 1893DPPE   NH344569   1.071  17.588  11.029 -0.0660  0.0867  0.0883
 1893DPPE   PO444570   0.911  18.002  11.165 -0.2015 -0.1050  0.3200
 1893DPPE   GL144571   0.470  18.073  11.181 -0.0548 -0.0563  0.0987
 1893DPPE   GL244572   0.266  18.422  11.117  0.2109  0.1210 -0.0936
 1893DPPE   C1A44573   0.160  17.848  11.109 -0.1677 -0.0185  0.0070
 1893DPPE   C2A44574  -0.074  17.457  11.268 -0.0154  0.0099  0.0140
 1893DPPE   C3A44575  -0.372  17.340  11.475 -0.2920 -0.0928 -0.0790
 1893DPPE   C4A44576  -0.696  16.975  11.605 -0.2901  0.4695  0.1813
 1893DPPE   C1B44577  -0.163  18.293  11.194 -0.0225  0.1723  0.0115
 1893DPPE   C2B44578  -0.601  18.230  11.157  0.1789 -0.1660  0.0465
 1893DPPE   C3B44579  -1.083  18.142  11.046  0.1740 -0.0172 -0.0279
 1893DPPE   C4B44580  -1.479  18.014  10.871  0.2421  0.2911 -0.0585
 1894DPPE   NH344581   1.595  21.818   4.215 -0.2460 -0.0718  0.2145
 1894DPPE   PO444582   1.922  21.998   3.973  0.2700  0.1924  0.1197
 1894DPPE   GL144583   1.769  22.278   3.700  0.4058 -0.3465  0.2537
 1894DPPE   GL244584   1.658  22.130   3.551  0.2682 -0.2121  0.0423
 1894DPPE   C1A44585   1.428  22.682   3.446 -0.2212 -0.3376 -0.0741
 1894DPPE   C2A44586   1.098  22.979   3.368 -0.0235  0.2030 -0.0370
 1894DPPE   C3A44587   0.694  23.103   3.370  0.4395 -0.2056  0.2271
 1894DPPE   C4A44588   0.325  23.293   3.413 -0.3379  0.0306  0.2803
 1894DPPE   C1B44589   1.394  22.194   3.204  0.0233  0.2714  0.2875
 1894DPPE   C2B44590   1.274  21.893   2.961  0.0134 -0.0019  0.0505
 1894DPPE   C3B44591   1.186  21.782   2.538  0.0828 -0.2074 -0.1373
 1894DPPE   C4B44592   0.856  21.731   2.244 -0.1247  0.0779 -0.1249
 1895DPPE   NH344593   4.004  15.261   7.200 -0.0366 -0.1854 -0.1289
 1895DPPE   PO444594   4.227  15.069   7.563 -0.0645 -0.1699  0.2013
 1895DPPE   GL144595   3.880  15.060   7.679 -0.0136 -0.1173  0.3044
 1895DPPE   GL244596   3.764  15.282   7.945 -0.0459 -0.0234 -0.1930
 1895DPPE   C1A44597   3.525  14.797   7.650  0.0796  0.1559  0.1373
 1895DPPE   C2A44598   3.175  14.521   7.799 -0.2095  0.1485  0.1122
 1895DPPE   C3A44599   2.825  14.498   8.179 -0.1429  0.0476 -0.0491
 1895DPPE   C4A44600   2.484  14.325   8.364 -0.0240 -0.0082  0.1638
 1895DPPE   C1B44601   3.333  15.180   7.954 -0.1927  0.1207 -0.0830
 1895DPPE   C2B44602   2.910  14.995   7.940  0.1949  0.1469 -0.0438
 1895DPPE   C3B44603   2.458  14.806   8.011  0.0974  0.0039  0.1320
 1895DPPE   C4B44604   1.942  14.789   7.901 -0.0033  0.0529  0.2046
 1896DPPE   NH344605  34.054  10.855  16.626 -0.0257  0.0824 -0.1461
 1896DPPE   PO444606  34.268  10.744  16.320 -0.2007 -0.3449  0.3551
 1896DPPE   GL144607  34.633  11.002  16.336  0.0126  0.0765  0.2398
 1896DPPE   GL244608  34.734  11.068  15.989 -0.1101 -0.0183 -0.2739
 1896DPPE   C1A44609  35.102  11.050  16.300  0.0043 -0.1518 -0.2400
 1896DPPE   C2A44610  35.385  11.402  16.311 -0.1095  0.1736 -0.1562
 1896DPPE   C3A44611  35.373  11.875  16.275  0.0166  0.0684 -0.1195
 1896DPPE   C4A44612  35.239  12.222  16.440  0.0110  0.0161  0.0051
 1896DPPE   C1B44613  34.718  11.273  15.757  0.0845 -0.3817  0.2310
 1896DPPE   C2B44614  34.729  11.758  15.736 -0.0161 -0.0183  0.2053
 1896DPPE   C3B44615  34.968  12.095  15.933  0.3621  0.2354  0.1178
 1896DPPE   C4B44616  35.348  12.271  15.942  0.2245  0.2078  0.6312
 1897DPPE   NH344617   0.122  19.411   9.343  0.3024  0.0155 -0.2755
 1897DPPE   PO444618  -0.084  19.715   9.088 -0.0067  0.1741 -0.1522
 1897DPPE   GL144619  -0.130  19.292   8.862 -0.2939 -0.1167 -0.4708
 1897DPPE   GL244620   0.104  19.037   8.796  0.0952 -0.1092  0.1434
 1897DPPE   C1A44621  -0.526  19.111   8.775  0.2330  0.0214 -0.2779
 1897DPPE   C2A44622  -0.824  19.194   8.679  0.3858 -0.2120  0.1434
 1897DPPE   C3A44623  -1.322  19.316   8.423  0.3087  0.1936  0.0542
 1897DPPE   C4A44624  -1.666  19.404   8.255 -0.1042 -0.0186  0.3776
 1897DPPE   C1B44625  -0.262  18.720   8.913 -0.2856  0.1912 -0.1420
 1897DPPE   C2B44626  -0.577  18.630   8.594 -0.1158  0.0197  0.2746
 1897DPPE   C3B44627  -0.774  18.799   8.196  0.0764 -0.1656  0.1495
 1897DPPE   C4B44628  -1.129  18.998   8.142 -0.1997 -0.0883  0.2829
 1898DPPE   NH344629   5.732   8.774   7.607  0.0780  0.1906 -0.1450
 1898DPPE   PO444630   5.334   8.904   7.590  0.0807 -0.1312 -0.0264
 1898DPPE   GL144631   5.083   9.296   7.472 -0.2272 -0.1404 -0.1353
 1898DPPE   GL244632   4.952   9.423   7.707 -0.0792  0.1995  0.0566
 1898DPPE   C1A44633   4.819   9.417   7.176  0.1204 -0.0465 -0.1280
 1898DPPE   C2A44634   4.843   9.903   7.086 -0.0051 -0.0368 -0.1492
 1898DPPE   C3A44635   4.744  10.295   7.202 -0.0609  0.3716  0.3033
 1898DPPE   C4A44636   4.601  10.712   7.203 -0.0575 -0.2153  0.0544
 1898DPPE   C1B44637   4.596   9.682   7.488  0.1528 -0.1911  0.2009
 1898DPPE   C2B44638   4.382  10.038   7.443  0.1972 -0.0653  0.1537
 1898DPPE   C3B44639   4.426  10.488   7.610 -0.0723 -0.0143  0.0468
 1898DPPE   C4B44640   4.635  10.869   7.728 -0.0977 -0.2429 -0.0838
 1899DPPE   NH344641   3.025  21.012   2.841  0.1399 -0.0479 -0.2292
 1899DPPE   PO444642   3.282  21.317   2.956 -0.4548 -0.2021 -0.0175
 1899DPPE   GL144643   3.203  21.457   2.536  0.4705  0.1148 -0.0070
 1899DPPE   GL244644   3.388  21.386   2.275 -0.0590  0.1612 -0.1403
 1899DPPE   C1A44645   2.851  21.432   2.268  0.1313 -0.0936 -0.1486
 1899DPPE   C2A44646   2.540  21.202   2.005 -0.1901  0.3169  0.1453
 1899DPPE   C3A44647   2.067  21.190   1.831 -0.2385  0.0524 -0.2304
 1899DPPE   C4A44648   1.899  20.888   1.519  0.0517 -0.1665 -0.0570
 1899DPPE   C1B44649   3.314  21.314   1.894  0.1026 -0.0549 -0.1267
 1899DPPE   C2B44650   3.156  21.526   1.563 -0.0714 -0.1810 -0.2253
 1899DPPE   C3B44651   3.128  21.517   1.005  0.1204 -0.0603  0.0646
 1899DPPE   C4B44652   2.978  21.361   0.744  0.0608 -0.4769 -0.3123
 1900DPPE   NH344653  38.030  22.740  12.376  0.0922 -0.0573 -0.1487
 1900DPPE   PO444654  37.608  22.694  12.419 -0.0515 -0.1828  0.2049
 1900DPPE   GL144655  37.222  22.752  12.264  0.0221  0.1802  0.1657
 1900DPPE   GL244656  37.229  22.721  11.950  0.2510  0.0022 -0.1429
 1900DPPE   C1A44657  36.758  22.753  12.156  0.0871 -0.0957 -0.3908
 1900DPPE   C2A44658  36.348  22.764  11.829 -0.2586 -0.1409  0.0478
 1900DPPE   C3A44659  36.228  22.760  11.436 -0.2508 -0.2123  0.3158
 1900DPPE   C4A44660  36.268  22.859  10.938 -0.0368  0.1421  0.0246
 1900DPPE   C1B44661  36.932  22.372  11.887  0.2413  0.1195 -0.0959
 1900DPPE   C2B44662  36.669  22.162  12.182  0.2846 -0.0173  0.2524
 1900DPPE   C3B44663  36.713  22.020  12.554  0.0731 -0.4045  0.0212
 1900DPPE   C4B44664  36.948  22.196  12.898 -0.0113 -0.0864  0.3645
 1901DPPE   NH344665   0.944  27.378  10.337 -0.1367 -0.0218  0.0571
 1901DPPE   PO444666   0.975  26.951  10.139  0.1094  0.2017 -0.2351
 1901DPPE   GL144667   0.636  27.107  10.070 -0.0747 -0.0468  0.0326
 1901DPPE   GL244668   0.660  27.313   9.888  0.1614  0.0604  0.2569
 1901DPPE   C1A44669   0.272  27.171  10.111  0.2356  0.2108  0.0409
 1901DPPE   C2A44670  -0.099  27.135  10.349  0.1842  0.1272  0.2808
 1901DPPE   C3A44671  -0.314  27.348  10.593 -0.0009 -0.2131  0.2482
 1901DPPE   C4A44672  -0.224  27.765  10.679 -0.1815  0.1935 -0.2631
 1901DPPE   C1B44673   0.376  27.719  10.058 -0.1273  0.0145 -0.0321
 1901DPPE   C2B44674   0.252  28.155  10.033 -0.0310  0.0808 -0.3472
 1901DPPE   C3B44675   0.167  28.588  10.111 -0.1177  0.2950  0.1537
 1901DPPE   C4B44676   0.159  29.041   9.975  0.0982  0.1631 -0.1981
 1902DPPE   NH344677   2.574  18.438   5.758 -0.0394  0.0491 -0.2362
 1902DPPE   PO444678   2.266  18.740   5.860  0.3501  0.1458 -0.2441
 1902DPPE   GL144679   1.925  18.447   6.078 -0.0688 -0.0496 -0.3725
 1902DPPE   GL244680   1.696  18.545   5.908 -0.0235 -0.1208  0.0499
 1902DPPE   C1A44681   1.882  17.947   6.163  0.1533  0.1869 -0.0476
 1902DPPE   C2A44682   1.981  17.575   6.010  0.1577  0.1762  0.3708
 1902DPPE   C3A44683   2.114  17.155   6.105  0.0273  0.1614  0.1016
 1902DPPE   C4A44684   2.023  17.051   6.529  0.0787 -0.1569  0.0812
 1902DPPE   C1B44685   1.807  18.266   5.609  0.2334  0.1438  0.0358
 1902DPPE   C2B44686   1.413  18.119   5.507  0.1915  0.3888 -0.1721
 1902DPPE   C3B44687   1.198  18.062   5.073  0.1163 -0.1309 -0.0730
 1902DPPE   C4B44688   1.099  17.853   4.775  0.2477  0.1717  0.0532
 1903DPPE   NH344689  11.363  15.568  11.937  0.2910 -0.1286 -0.1604
 1903DPPE   PO444690  11.072  15.240  11.724 -0.0978 -0.3576 -0.0227
 1903DPPE   GL144691  11.276  15.033  11.898  0.2902  0.1395 -0.0670
 1903DPPE   GL244692  11.611  15.150  12.055 -0.1645 -0.0960  0.0344
 1903DPPE   C1A44693  11.546  14.700  11.644  0.0426  0.0396 -0.1313
 1903DPPE   C2A44694  11.909  14.460  11.526 -0.0241  0.0973  0.2811
 1903DPPE   C3A44695  12.173  14.076  11.640  0.0318 -0.1288 -0.1095
 1903DPPE   C4A44696  12.464  13.768  11.687  0.0250 -0.1599 -0.1839
 1903DPPE   C1B44697  11.865  14.854  12.046 -0.2952 -0.3337 -0.1436
 1903DPPE   C2B44698  11.964  14.475  12.319 -0.3541 -0.0582 -0.1568
 1903DPPE   C3B44699  11.857  14.093  12.374  0.2239  0.0319  0.0358
 1903DPPE   C4B44700  11.408  14.062  12.425  0.0482 -0.0564  0.2576
 1904DPPE   NH344701  15.756  14.098  12.219 -0.3038  0.2815 -0.0788
 1904DPPE   PO444702  15.958  14.370  12.442 -0.3340 -0.1169  0.0524
 1904DPPE   GL144703  15.652  14.633  12.318  0.0293 -0.1598  0.0414
 1904DPPE   GL244704  15.460  14.421  12.520  0.3088  0.4695 -0.3643
 1904DPPE   C1A44705  15.355  14.899  12.391  0.0964  0.2352 -0.0685
 1904DPPE   C2A44706  15.372  15.294  12.324 -0.4799 -0.1794 -0.2648
 1904DPPE   C3A44707  15.209  15.620  12.177  0.0107 -0.2082  0.1534
 1904DPPE   C4A44708  14.837  15.677  11.939 -0.1311  0.2574 -0.1901
 1904DPPE   C1B44709  15.150  14.644  12.753  0.0799  0.2548 -0.2276
 1904DPPE   C2B44710  14.923  14.920  12.603 -0.0423 -0.0213 -0.0031
 1904DPPE   C3B44711  14.782  15.244  12.334 -0.3048  0.3482 -0.1354
 1904DPPE   C4B44712  14.495  15.558  12.357 -0.1510 -0.0659  0.2822
 1905DPPE   NH344713   4.801   9.056   4.751 -0.1687  0.2144  0.0675
 1905DPPE   PO444714   4.277   8.989   4.664 -0.1827 -0.0756  0.4213
 1905DPPE   GL144715   4.372   9.427   4.843  0.3394 -0.1135  0.0749
 1905DPPE   GL244716   4.234   9.680   4.628  0.0540 -0.0345  0.1394
 1905DPPE   C1A44717   4.330   9.711   5.150  0.1442  0.1133  0.2327
 1905DPPE   C2A44718   4.025  10.069   5.274  0.0873 -0.3345 -0.3523
 1905DPPE   C3A44719   3.690  10.100   5.451  0.0253 -0.1821  0.0785
 1905DPPE   C4A44720   3.531   9.922   5.793 -0.3228 -0.0163 -0.0714
 1905DPPE   C1B44721   3.902   9.902   4.752 -0.3940 -0.0001  0.3078
 1905DPPE   C2B44722   3.529   9.847   5.018 -0.0301 -0.0018 -0.1705
 1905DPPE   C3B44723   3.209   9.716   4.975  0.0865  0.0536  0.1301
 1905DPPE   C4B44724   2.780   9.873   4.893  0.1414 -0.1818 -0.1025
 1906DPPE   NH344725  36.863  20.229  26.163 -0.1910 -0.1034  0.0328
 1906DPPE   PO444726  36.543  20.182  26.462 -0.1381  0.0067 -0.2097
 1906DPPE   GL144727  36.686  20.263  26.842 -0.0659  0.1962 -0.0674
 1906DPPE   GL244728  37.010  20.150  26.872 -0.2663  0.1152  0.2387
 1906DPPE   C1A44729  36.791  20.345  27.283 -0.1664  0.1351 -0.0339
 1906DPPE   C2A44730  36.740  20.298  27.722 -0.0132  0.0920 -0.2250
 1906DPPE   C3A44731  36.753  19.880  28.018  0.0535  0.1849  0.0356
 1906DPPE   C4A44732  36.458  19.656  28.307  0.0864 -0.2289 -0.0465
 1906DPPE   C1B44733  37.441  20.002  27.124  0.0182  0.6234 -0.2041
 1906DPPE   C2B44734  37.662  19.667  27.116 -0.1043  0.0101  0.0248
 1906DPPE   C3B44735  37.973  19.437  27.009  0.1546 -0.0304  0.1080
 1906DPPE   C4B44736  38.049  19.328  26.699  0.2305 -0.2660 -0.2379
 1907DPPE   NH344737   6.484  16.804  24.848 -0.2122  0.0236 -0.0940
 1907DPPE   PO444738   6.282  16.694  25.229  0.1156  0.0713  0.1646
 1907DPPE   GL144739   6.636  16.585  25.436  0.1858  0.0424  0.2673
 1907DPPE   GL244740   6.666  16.478  25.744 -0.2792 -0.2275  0.3639
 1907DPPE   C1A44741   7.024  16.792  25.680 -0.0567 -0.6068 -0.0767
 1907DPPE   C2A44742   7.280  16.710  26.048 -0.0265 -0.0758 -0.1503
 1907DPPE   C3A44743   7.376  16.393  26.325 -0.5914 -0.1500  0.0808
 1907DPPE   C4A44744   7.420  15.983  26.325  0.3696  0.0764 -0.1597
 1907DPPE   C1B44745   6.893  16.462  26.242  0.1205 -0.1810 -0.0724
 1907DPPE   C2B44746   6.995  16.473  26.704 -0.1554 -0.0072 -0.1306
 1907DPPE   C3B44747   6.805  16.698  27.032 -0.2519  0.2386  0.1343
 1907DPPE   C4B44748   6.664  16.987  27.406  0.2894  0.1412  0.0370
 1908DPPE   NH344749   0.524  18.702   9.575 -0.1027  0.4154  0.3660
 1908DPPE   PO444750   0.573  18.825   9.161 -0.2204  0.0313  0.0823
 1908DPPE   GL144751   0.311  18.601   9.008  0.2165  0.1496 -0.2623
 1908DPPE   GL244752   0.374  18.352   8.867 -0.1899  0.1624  0.0486
 1908DPPE   C1A44753   0.039  18.549   8.571 -0.3183 -0.1202 -0.0132
 1908DPPE   C2A44754  -0.103  18.960   8.351 -0.0551 -0.5054  0.2838
 1908DPPE   C3A44755  -0.470  19.185   8.221  0.1157 -0.1009 -0.0313
 1908DPPE   C4A44756  -0.838  19.422   8.174 -0.2128  0.1571  0.1796
 1908DPPE   C1B44757  -0.143  18.231   8.861  0.1453  0.0037 -0.1169
 1908DPPE   C2B44758  -0.621  18.181   8.800  0.1688  0.2761 -0.4289
 1908DPPE   C3B44759  -1.035  18.360   8.665  0.1241  0.0008 -0.1566
 1908DPPE   C4B44760  -1.317  18.713   8.518 -0.1537 -0.2897  0.0312
 1909DPPE   NH344761  34.250  25.707  15.236  0.4762 -0.0918  0.2073
 1909DPPE   PO444762  34.154  25.324  15.536  0.1045 -0.0052  0.0736
 1909DPPE   GL144763  34.360  25.117  15.190  0.0344 -0.3988 -0.1525
 1909DPPE   GL244764  34.680  25.254  15.010  0.1202 -0.0622 -0.2174
 1909DPPE   C1A44765  34.199  24.760  15.060  0.5437 -0.1978  0.2438
 1909DPPE   C2A44766  34.318  24.548  14.685  0.1803  0.3439  0.0211
 1909DPPE   C3A44767  34.369  24.217  14.362 -0.0711  0.0664 -0.2768
 1909DPPE   C4A44768  34.300  23.905  14.348  0.2564  0.3216 -0.4369
 1909DPPE   C1B44769  34.543  24.981  14.716  0.0853  0.3687 -0.0985
 1909DPPE   C2B44770  34.793  24.875  14.505  0.2004 -0.0398  0.1120
 1909DPPE   C3B44771  35.305  24.852  14.429  0.1638 -0.2216  0.2729
 1909DPPE   C4B44772  35.756  24.840  14.512  0.0286 -0.1333 -0.0199
 1910DPPE   NH344773   3.395  13.159   0.632  0.0029  0.0469  0.1307
 1910DPPE   PO444774   3.018  12.945   0.705  0.2979 -0.3850 -0.0710
 1910DPPE   GL144775   2.603  12.946   0.905  0.2390 -0.1161  0.1146
 1910DPPE   GL244776   2.644  12.720   1.167 -0.0308  0.3497 -0.0964
 1910DPPE   C1A44777   2.485  13.331   1.175  0.1977 -0.2583  0.0711
 1910DPPE   C2A44778   2.361  13.531   1.409 -0.0168  0.0505  0.3172
 1910DPPE   C3A44779   2.463  13.865   1.805 -0.0478  0.1246  0.1389
 1910DPPE   C4A44780   2.542  13.965   2.186 -0.0025  0.0493  0.0965
 1910DPPE   C1B44781   2.725  13.055   1.546  0.2152  0.0452 -0.2246
 1910DPPE   C2B44782   3.105  13.158   1.779 -0.1474  0.2708  0.1540
 1910DPPE   C3B44783   3.402  12.896   1.956  0.5448 -0.2335  0.0126
 1910DPPE   C4B44784   3.659  12.612   2.047 -0.1059  0.0842 -0.2000
 1911DPPE   NH344785  37.992  21.251  12.294  0.2936 -0.0431  0.1505
 1911DPPE   PO444786  38.108  21.443  11.853 -0.1246  0.3296  0.0920
 1911DPPE   GL144787  37.809  21.665  11.561  0.1752 -0.1085 -0.2111
 1911DPPE   GL244788  37.666  21.950  11.525 -0.0971  0.0175 -0.1491
 1911DPPE   C1A44789  37.364  21.598  11.332  0.1352  0.1593  0.0062
 1911DPPE   C2A44790  37.081  21.396  11.068  0.1723 -0.1657  0.1406
 1911DPPE   C3A44791  36.837  21.055  10.987  0.2648 -0.1519 -0.2621
 1911DPPE   C4A44792  37.076  20.722  11.074 -0.2809  0.0661 -0.0669
 1911DPPE   C1B44793  37.431  22.096  11.878  0.4661  0.0287 -0.0971
 1911DPPE   C2B44794  37.149  22.196  12.280  0.2180 -0.0791  0.1297
 1911DPPE   C3B44795  36.909  22.513  12.543 -0.1004  0.2400 -0.0274
 1911DPPE   C4B44796  36.682  22.571  13.028  0.0632 -0.0664  0.0116
 1912DPPE   NH344797   0.472  19.878  13.819 -0.0165  0.1863 -0.0482
 1912DPPE   PO444798   0.712  19.556  13.782  0.1227 -0.2805 -0.1489
 1912DPPE   GL144799   0.389  19.310  13.854  0.2826 -0.0226  0.4451
 1912DPPE   GL244800   0.418  19.008  13.948  0.2796  0.0463  0.3957
 1912DPPE   C1A44801   0.069  19.274  14.204 -0.2233  0.1635  0.3359
 1912DPPE   C2A44802  -0.360  19.228  14.370  0.1394  0.0192 -0.0718
 1912DPPE   C3A44803  -0.678  18.947  14.602  0.2650  0.0853  0.1186
 1912DPPE   C4A44804  -1.069  19.008  14.709  0.5089 -0.0024 -0.0409
 1912DPPE   C1B44805   0.108  18.741  13.982 -0.1809 -0.1530  0.1826
 1912DPPE   C2B44806  -0.259  18.731  14.050  0.1251  0.4697  0.0932
 1912DPPE   C3B44807  -0.655  18.553  14.222 -0.0726  0.0441  0.0690
 1912DPPE   C4B44808  -0.979  18.282  14.448 -0.0853 -0.2403  0.2142
 1913DPPE   NH344809   1.921   7.297  14.596 -0.3459 -0.1404  0.5181
 1913DPPE   PO444810   2.391   7.325  14.736  0.1937  0.2221  0.0944
 1913DPPE   GL144811   2.313   7.376  14.233  0.0330  0.1473 -0.2507
 1913DPPE   GL244812   2.239   7.171  14.004  0.0299  0.0097  0.1347
 1913DPPE   C1A44813   2.163   7.732  14.111  0.1834  0.0251  0.1951
 1913DPPE   C2A44814   2.338   8.147  14.137  0.1688  0.4393  0.1160
 1913DPPE   C3A44815   2.552   8.559  14.314 -0.0175  0.0288 -0.1130
 1913DPPE   C4A44816   2.882   8.945  14.297 -0.0846 -0.1301  0.1151
 1913DPPE   C1B44817   2.285   7.394  13.688 -0.3251 -0.1121  0.0140
 1913DPPE   C2B44818   2.211   7.553  13.326 -0.1406 -0.4334 -0.1861
 1913DPPE   C3B44819   2.009   7.634  12.960 -0.1034 -0.1049 -0.0919
 1913DPPE   C4B44820   1.577   7.446  12.797 -0.0212 -0.0994  0.0194
 1914DPPE   NH344821   3.435  15.422  20.680  0.2092 -0.0232 -0.0117
 1914DPPE   PO444822   3.802  15.494  20.891 -0.0030  0.2042  0.1084
 1914DPPE   GL144823   3.759  15.823  20.556  0.1412  0.4629  0.0118
 1914DPPE   GL244824   3.517  15.938  20.639  0.0205 -0.1469  0.0039
 1914DPPE   C1A44825   3.845  15.891  20.050 -0.0521 -0.1258 -0.1239
 1914DPPE   C2A44826   3.915  15.949  19.560  0.0105 -0.0069 -0.1627
 1914DPPE   C3A44827   4.138  15.721  19.248  0.2403 -0.0697 -0.0770
 1914DPPE   C4A44828   4.214  15.346  19.046 -0.1917 -0.0935 -0.1012
 1914DPPE   C1B44829   3.330  16.095  20.377 -0.3434 -0.1765  0.2269
 1914DPPE   C2B44830   3.102  16.207  20.109 -0.2440  0.0571  0.0047
 1914DPPE   C3B44831   3.136  16.431  19.706 -0.0564 -0.0758  0.2864
 1914DPPE   C4B44832   3.371  16.594  19.303  0.1439  0.0663  0.1778
 1915DPPE   NH344833  29.622  20.968  14.860 -0.2320 -0.1371  0.3398
 1915DPPE   PO444834  29.485  20.578  15.056 -0.2197  0.1109  0.1537
 1915DPPE   GL144835  29.721  20.394  14.823  0.0000  0.2460 -0.2958
 1915DPPE   GL244836  29.916  20.200  14.977  0.2869 -0.1859  0.6506
 1915DPPE   C1A44837  30.007  20.506  14.560  0.0036  0.3350 -0.2461
 1915DPPE   C2A44838  30.411  20.525  14.545  0.2458  0.3890  0.2161
 1915DPPE   C3A44839  30.644  20.132  14.632 -0.1269  0.1618  0.0201
 1915DPPE   C4A44840  30.757  19.614  14.653 -0.0926  0.2962  0.1858
 1915DPPE   C1B44841  30.366  20.448  15.079  0.3332  0.1344  0.2218
 1915DPPE   C2B44842  30.780  20.517  15.019 -0.1587  0.0791  0.0291
 1915DPPE   C3B44843  31.183  20.661  14.993 -0.0012 -0.2371  0.1883
 1915DPPE   C4B44844  31.479  20.702  15.310  0.0328 -0.0808  0.1422
 1916DPPE   NH344845  34.391   9.687   7.339  0.1805  0.1754  0.0888
 1916DPPE   PO444846  34.737   9.561   7.152  0.1699  0.0726 -0.0868
 1916DPPE   GL144847  35.017   9.795   6.881 -0.3232 -0.0727 -0.2424
 1916DPPE   GL244848  35.303   9.713   7.126  0.0198 -0.1562 -0.1868
 1916DPPE   C1A44849  35.321  10.207   6.992  0.3642 -0.0956  0.2376
 1916DPPE   C2A44850  35.635  10.438   6.875 -0.0976 -0.0547 -0.4121
 1916DPPE   C3A44851  35.938  10.698   6.723  0.0625  0.2480  0.2907
 1916DPPE   C4A44852  35.992  11.084   6.464  0.2129 -0.1132 -0.0424
 1916DPPE   C1B44853  35.674   9.875   7.071  0.1321 -0.1529 -0.1111
 1916DPPE   C2B44854  35.948  10.018   6.893  0.1436 -0.0267  0.2526
 1916DPPE   C3B44855  36.175  10.389   7.135  0.2403 -0.1345 -0.1897
 1916DPPE   C4B44856  36.113  10.450   7.618 -0.0980 -0.0251 -0.0009
 1917DPPE   NH344857   6.923  10.242   4.445 -0.2695 -0.1156 -0.0471
 1917DPPE   PO444858   6.690  10.035   4.875 -0.0582 -0.1271 -0.0162
 1917DPPE   GL144859   6.590  10.313   5.143  0.0501  0.2588 -0.1375
 1917DPPE   GL244860   6.223  10.328   5.068  0.2661 -0.1368  0.1173
 1917DPPE   C1A44861   6.425  10.508   5.449 -0.1259 -0.1435 -0.3301
 1917DPPE   C2A44862   6.354  10.799   5.854  0.0030  0.2621 -0.0162
 1917DPPE   C3A44863   6.225  11.031   6.280 -0.3856 -0.4090  0.0913
 1917DPPE   C4A44864   5.769  11.059   6.464  0.1584 -0.3342  0.1096
 1917DPPE   C1B44865   6.047  10.696   5.091  0.0203  0.2940 -0.0297
 1917DPPE   C2B44866   5.682  10.827   5.144  0.1004 -0.0078 -0.0088
 1917DPPE   C3B44867   5.639  11.135   5.380 -0.1233 -0.0699 -0.0698
 1917DPPE   C4B44868   5.550  11.374   5.624  0.1451  0.1373 -0.1847
 1918DPPE   NH344869   8.526  20.135  18.310 -0.2241  0.2342  0.2613
 1918DPPE   PO444870   8.975  20.113  18.087 -0.0041 -0.1562  0.1010
 1918DPPE   GL144871   8.982  20.112  18.603 -0.2587 -0.2093  0.0899
 1918DPPE   GL244872   8.733  19.892  18.732  0.0370  0.0538 -0.3697
 1918DPPE   C1A44873   9.090  20.233  18.976  0.0462 -0.2574  0.3931
 1918DPPE   C2A44874   9.150  20.050  19.324  0.0800 -0.0273 -0.0647
 1918DPPE   C3A44875   9.042  19.688  19.575 -0.3453 -0.0229  0.1111
 1918DPPE   C4A44876   8.952  19.289  19.549 -0.1720  0.0341 -0.2051
 1918DPPE   C1B44877   8.846  19.676  19.067  0.1055  0.1524 -0.3149
 1918DPPE   C2B44878   9.260  19.487  19.181 -0.0649  0.1212  0.0806
 1918DPPE   C3B44879   9.550  19.554  19.503  0.2104 -0.1561 -0.1574
 1918DPPE   C4B44880   9.775  19.595  19.891  0.0226  0.1712 -0.0031
 1919DPPE   NH344881  11.590  21.637  25.085 -0.2768  0.0133 -0.0258
 1919DPPE   PO444882  11.337  21.995  25.067 -0.0248  0.0215 -0.1714
 1919DPPE   GL144883  11.084  22.041  25.493  0.0467  0.3764 -0.0951
 1919DPPE   GL244884  10.847  22.208  25.705  0.1533  0.1407 -0.0449
 1919DPPE   C1A44885  10.751  21.753  25.697 -0.0212  0.0433  0.0027
 1919DPPE   C2A44886  10.260  21.605  25.621 -0.1068  0.1312  0.3051
 1919DPPE   C3A44887   9.787  21.434  25.606 -0.3507  0.0535  0.1695
 1919DPPE   C4A44888   9.428  21.384  25.840  0.2062 -0.0943 -0.1239
 1919DPPE   C1B44889  10.477  22.311  25.963  0.3452  0.0760 -0.1953
 1919DPPE   C2B44890  10.227  22.383  26.404  0.0274 -0.0106 -0.0487
 1919DPPE   C3B44891   9.954  22.405  26.794 -0.1457 -0.0798 -0.0727
 1919DPPE   C4B44892   9.996  22.306  27.185  0.3279 -0.1307 -0.0279
 1920DPPE   NH344893  31.191  12.292   9.680  0.1868 -0.0398 -0.1444
 1920DPPE   PO444894  31.584  12.274   9.642  0.0719  0.1277  0.2056
 1920DPPE   GL144895  31.776  12.651   9.702 -0.0093  0.2393 -0.1263
 1920DPPE   GL244896  31.714  12.954   9.842  0.2058  0.2017 -0.0368
 1920DPPE   C1A44897  32.189  12.720   9.697 -0.1472  0.1820  0.0401
 1920DPPE   C2A44898  32.594  12.882   9.912  0.3504 -0.1441  0.0819
 1920DPPE   C3A44899  33.036  12.911  10.129  0.0488 -0.1708  0.0809
 1920DPPE   C4A44900  33.369  13.130  10.117  0.0038 -0.0579  0.0756
 1920DPPE   C1B44901  32.124  13.136   9.900 -0.2295  0.4692  0.1018
 1920DPPE   C2B44902  32.507  13.339   9.945  0.1815  0.0436 -0.1129
 1920DPPE   C3B44903  32.916  13.653   9.943 -0.0905  0.0835 -0.1011
 1920DPPE   C4B44904  33.420  13.698  10.074  0.4016 -0.0075  0.3238
 1921DPPE   NH344905  13.842  24.785   7.981 -0.3233 -0.2254  0.0623
 1921DPPE   PO444906  14.172  24.590   8.249 -0.0352  0.2463 -0.2022
 1921DPPE   GL144907  14.423  24.886   8.298  0.0979 -0.3152  0.3138
 1921DPPE   GL244908  14.715  24.884   8.364  0.2647  0.1211 -0.1311
 1921DPPE   C1A44909  14.508  25.322   8.067  0.0466 -0.0237 -0.1386
 1921DPPE   C2A44910  14.819  25.560   8.248  0.3407  0.0540  0.1477
 1921DPPE   C3A44911  15.082  25.920   8.214  0.0145  0.4229 -0.1764
 1921DPPE   C4A44912  15.388  25.992   8.263  0.1926  0.1942  0.0964
 1921DPPE   C1B44913  14.996  25.129   8.288 -0.4281 -0.1840 -0.0392
 1921DPPE   C2B44914  15.282  25.485   8.047 -0.0523 -0.0011  0.2005
 1921DPPE   C3B44915  15.715  25.720   7.996 -0.1389  0.2557 -0.1796
 1921DPPE   C4B44916  16.132  25.918   7.824  0.1494 -0.0215  0.2505
 1922DPPE   NH344917   0.666  17.659  12.119  0.0079 -0.1310  0.0527
 1922DPPE   PO444918   0.469  18.114  12.137 -0.1485 -0.3438 -0.0999
 1922DPPE   GL144919   0.210  17.847  12.143 -0.3446  0.0925  0.4298
 1922DPPE   GL244920  -0.100  17.961  12.324 -0.0404  0.1026  0.0177
 1922DPPE   C1A44921   0.001  17.436  12.025 -0.1152  0.0052  0.0733
 1922DPPE   C2A44922  -0.444  17.343  11.998 -0.2838  0.3064 -0.2081
 1922DPPE   C3A44923  -0.737  17.508  11.848 -0.0473  0.3438 -0.2920
 1922DPPE   C4A44924  -1.149  17.541  11.843 -0.1092  0.0631  0.3347
 1922DPPE   C1B44925  -0.518  17.864  12.212 -0.2896  0.3242 -0.2793
 1922DPPE   C2B44926  -0.975  17.837  12.270 -0.1254  0.2387 -0.0855
 1922DPPE   C3B44927  -1.341  18.093  12.335  0.0072 -0.0564  0.0702
 1922DPPE   C4B44928  -1.708  18.281  12.199 -0.0039  0.1959 -0.1321
 1923DPPE   NH344929  34.654  27.372   6.903  0.0894 -0.0561  0.1487
 1923DPPE   PO444930  34.335  27.230   7.150  0.1234  0.1730  0.0914
 1923DPPE   GL144931  34.415  26.902   7.264 -0.3880  0.1492 -0.1738
 1923DPPE   GL244932  34.256  26.620   7.244  0.0823 -0.1106 -0.2094
 1923DPPE   C1A44933  34.807  26.621   7.229  0.0682  0.1702  0.1640
 1923DPPE   C2A44934  34.979  26.290   7.074  0.0164  0.3724 -0.2040
 1923DPPE   C3A44935  35.106  25.999   7.023  0.1092 -0.2239  0.3238
 1923DPPE   C4A44936  35.378  25.757   6.770  0.1636  0.1436 -0.3093
 1923DPPE   C1B44937  34.532  26.297   7.429  0.2892 -0.3705  0.1755
 1923DPPE   C2B44938  34.777  25.885   7.426  0.0304 -0.3018  0.2440
 1923DPPE   C3B44939  34.672  25.537   7.363 -0.2271 -0.2855 -0.2528
 1923DPPE   C4B44940  34.249  25.369   7.465 -0.1861  0.0968 -0.0042
 1924DPPE   NH344941  37.020   7.408   8.765  0.0466 -0.0304  0.1596
 1924DPPE   PO444942  37.187   7.497   8.305 -0.1530 -0.1887  0.1097
 1924DPPE   GL144943  37.506   7.694   8.198 -0.2017  0.2430 -0.3383
 1924DPPE   GL244944  37.521   8.058   8.201 -0.1563  0.1360 -0.1836
 1924DPPE   C1A44945  38.014   7.656   8.223  0.2868  0.1752 -0.1853
 1924DPPE   C2A44946  38.165   8.083   8.157 -0.1627 -0.0291 -0.2313
 1924DPPE   C3A44947  38.117   8.477   8.222 -0.0717 -0.1653  0.3350
 1924DPPE   C4A44948  37.789   8.435   8.535 -0.0010 -0.2558 -0.2227
 1924DPPE   C1B44949  37.338   8.259   8.465 -0.2722 -0.1051 -0.2224
 1924DPPE   C2B44950  37.192   8.451   8.864  0.1603 -0.2272  0.0195
 1924DPPE   C3B44951  37.060   8.372   9.241  0.2899  0.1939 -0.0351
 1924DPPE   C4B44952  36.826   8.434   9.646 -0.3829  0.2117  0.0601
 1925DPPE   NH344953  34.287  20.509   0.821  0.1436 -0.0494 -0.0075
 1925DPPE   PO444954  33.936  20.222   0.688  0.1942  0.1448 -0.4636
 1925DPPE   GL144955  33.997  19.975   0.906 -0.0352 -0.1166  0.2419
 1925DPPE   GL244956  34.285  19.721   0.704  0.2482 -0.0738  0.0690
 1925DPPE   C1A44957  34.180  19.729   1.178 -0.0170  0.2432  0.0891
 1925DPPE   C2A44958  34.444  19.404   1.180  0.0266 -0.1436  0.0976
 1925DPPE   C3A44959  34.811  19.423   1.003 -0.2885 -0.0939 -0.0967
 1925DPPE   C4A44960  35.066  19.876   0.812  0.1321  0.1781 -0.3623
 1925DPPE   C1B44961  34.573  19.915   0.970  0.0882 -0.1567  0.0764
 1925DPPE   C2B44962  34.501  20.124   1.331  0.0574  0.0615 -0.2546
 1925DPPE   C3B44963  34.002  20.182   1.400 -0.1114 -0.1145  0.0255
 1925DPPE   C4B44964  33.654  19.896   1.324 -0.2264  0.2989 -0.0582
 1926DPPE   NH344965  31.487  24.837  15.448 -0.1156  0.2138 -0.0206
 1926DPPE   PO444966  31.970  24.568  15.294 -0.0169  0.0033  0.5528
 1926DPPE   GL144967  32.141  24.190  15.008 -0.0722 -0.2063  0.2142
 1926DPPE   GL244968  31.762  24.195  14.834 -0.3038  0.0011 -0.0172
 1926DPPE   C1A44969  32.097  23.631  15.127  0.2332  0.0349  0.0396
 1926DPPE   C2A44970  32.276  23.238  15.044 -0.1013 -0.0472  0.2794
 1926DPPE   C3A44971  32.568  23.162  15.323 -0.2018  0.1186 -0.2077
 1926DPPE   C4A44972  32.745  22.825  15.547 -0.3097  0.2720 -0.0506
 1926DPPE   C1B44973  31.720  23.888  14.582  0.0189  0.0620  0.0531
 1926DPPE   C2B44974  31.752  23.905  14.195 -0.0914 -0.1203 -0.1224
 1926DPPE   C3B44975  32.094  23.949  13.993  0.1535 -0.2177  0.0662
 1926DPPE   C4B44976  32.444  23.807  14.137 -0.0429 -0.1660 -0.0545
 1927DPPE   NH344977   3.776  15.370  11.569 -0.0458  0.0070  0.0032
 1927DPPE   PO444978   3.314  15.501  11.642 -0.2486  0.0726  0.2440
 1927DPPE   GL144979   3.003  15.318  11.824 -0.5747  0.1218 -0.2019
 1927DPPE   GL244980   2.976  15.028  12.055 -0.1469 -0.1550 -0.0125
 1927DPPE   C1A44981   2.581  15.397  12.015 -0.2143  0.0130 -0.3523
 1927DPPE   C2A44982   2.264  14.981  11.933 -0.1402 -0.0881  0.0098
 1927DPPE   C3A44983   1.808  14.748  12.000  0.0560 -0.1905  0.0797
 1927DPPE   C4A44984   1.486  14.478  11.969 -0.1365 -0.1422 -0.0762
 1927DPPE   C1B44985   3.032  15.094  12.444  0.2472  0.0029  0.2395
 1927DPPE   C2B44986   2.883  15.018  12.844  0.0865 -0.1686 -0.2090
 1927DPPE   C3B44987   2.494  14.867  13.055  0.0349 -0.0415  0.1565
 1927DPPE   C4B44988   2.215  14.757  13.419 -0.0499 -0.0968  0.2830
 1928DPPE   NH344989  14.170  22.677  20.055 -0.0455 -0.5136 -0.1319
 1928DPPE   PO444990  14.494  22.435  19.975 -0.0801 -0.1703 -0.1930
 1928DPPE   GL144991  14.302  22.518  19.557  0.0888  0.0779  0.2161
 1928DPPE   GL244992  14.005  22.666  19.578  0.1174 -0.2218 -0.0888
 1928DPPE   C1A44993  14.354  22.784  19.150 -0.0328  0.2210 -0.0605
 1928DPPE   C2A44994  14.549  22.979  18.888 -0.4156  0.0860  0.0927
 1928DPPE   C3A44995  14.602  23.372  18.627 -0.2089 -0.0994  0.0274
 1928DPPE   C4A44996  14.944  23.720  18.645  0.3056  0.0030 -0.3746
 1928DPPE   C1B44997  13.969  22.416  19.239 -0.0920 -0.0833 -0.0791
 1928DPPE   C2B44998  13.730  22.351  18.885 -0.0813  0.0212  0.1952
 1928DPPE   C3B44999  13.701  22.494  18.412 -0.0324  0.0413  0.3251
 1928DPPE   C4B45000  13.766  22.383  17.966 -0.1187  0.2325 -0.2861
 1929DPPE   NH345001   2.628  30.456  17.677  0.0660  0.1478 -0.0517
 1929DPPE   PO445002   2.350  30.671  17.274  0.0468 -0.0364  0.0086
 1929DPPE   GL145003   2.780  30.396  17.115 -0.1288  0.1363  0.1057
 1929DPPE   GL245004   2.860  30.635  16.877 -0.0884  0.1690 -0.1980
 1929DPPE   C1A45005   3.021  29.959  17.071 -0.0057  0.0793  0.0124
 1929DPPE   C2A45006   3.063  29.607  16.802  0.1259 -0.1270 -0.3191
 1929DPPE   C3A45007   3.148  29.210  17.042 -0.1751 -0.1888  0.2358
 1929DPPE   C4A45008   3.415  28.933  17.068  0.0040 -0.3555  0.1551
 1929DPPE   C1B45009   2.895  30.265  16.589 -0.3141 -0.1700 -0.2601
 1929DPPE   C2B45010   3.297  29.965  16.426  0.0808  0.0404  0.2410
 1929DPPE   C3B45011   3.302  29.540  16.310  0.2325 -0.0891 -0.2117
 1929DPPE   C4B45012   3.043  29.178  16.463  0.1988 -0.1709 -0.1188
 1930DPPE   NH345013   1.721  15.644  21.165 -0.0015  0.0290 -0.1689
 1930DPPE   PO445014   1.405  15.905  21.065  0.0327 -0.1720 -0.1442
 1930DPPE   GL145015   1.258  16.206  20.699  0.0054  0.2173 -0.0194
 1930DPPE   GL245016   1.208  16.067  20.485 -0.2779  0.2585 -0.1811
 1930DPPE   C1A45017   0.814  16.330  20.585 -0.2971 -0.1957 -0.1048
 1930DPPE   C2A45018   0.607  16.472  20.275 -0.0335  0.2727 -0.0377
 1930DPPE   C3A45019   0.605  16.578  19.880 -0.2015 -0.2055  0.1345
 1930DPPE   C4A45020   0.609  16.647  19.453 -0.1860 -0.0705 -0.0061
 1930DPPE   C1B45021   1.059  16.187  20.088  0.0362 -0.1810 -0.1444
 1930DPPE   C2B45022   0.658  16.112  19.806 -0.0913  0.0503 -0.0082
 1930DPPE   C3B45023   0.409  15.684  19.812  0.2775 -0.4361 -0.4246
 1930DPPE   C4B45024   0.408  15.290  19.748  0.1233 -0.1169 -0.0031
 1931DPPE   NH345025  36.839  24.177  12.081 -0.2165  0.2183  0.2322
 1931DPPE   PO445026  36.917  23.729  11.831  0.4063  0.0580 -0.0227
 1931DPPE   GL145027  36.503  23.731  12.040 -0.0819  0.0469 -0.0808
 1931DPPE   GL245028  36.344  23.940  11.862  0.2971 -0.0749 -0.0099
 1931DPPE   C1A45029  36.241  23.842  12.373 -0.4598 -0.2005 -0.0540
 1931DPPE   C2A45030  36.022  24.173  12.656 -0.3165 -0.2154 -0.1212
 1931DPPE   C3A45031  35.786  24.480  12.912  0.1146  0.3026 -0.0027
 1931DPPE   C4A45032  35.602  24.637  13.382  0.0074 -0.0568  0.1758
 1931DPPE   C1B45033  36.029  24.141  11.933 -0.2329 -0.1505 -0.1591
 1931DPPE   C2B45034  35.690  24.429  12.084 -0.1770 -0.0196  0.1339
 1931DPPE   C3B45035  35.467  24.675  12.403 -0.1266 -0.1297  0.1807
 1931DPPE   C4B45036  35.545  25.069  12.620  0.3464  0.1424  0.3115
 1932DPPE   NH345037   2.489  16.116  10.280  0.1315  0.1895 -0.1789
 1932DPPE   PO445038   2.066  16.166  10.377  0.0891 -0.0787 -0.0131
 1932DPPE   GL145039   1.776  15.934  10.574  0.3196  0.1357  0.1521
 1932DPPE   GL245040   1.563  16.127  10.725 -0.2468  0.0173 -0.2556
 1932DPPE   C1A45041   1.538  15.539  10.586  0.4037  0.0757 -0.1746
 1932DPPE   C2A45042   1.090  15.410  10.433  0.0888  0.3025 -0.3127
 1932DPPE   C3A45043   0.927  14.941  10.486  0.0162  0.0535  0.2474
 1932DPPE   C4A45044   0.749  14.521  10.556  0.1783 -0.1900 -0.0414
 1932DPPE   C1B45045   1.146  15.966  10.481  0.1636  0.0759 -0.1260
 1932DPPE   C2B45046   0.788  15.746  10.266  0.0514  0.0889 -0.0256
 1932DPPE   C3B45047   0.612  15.360  10.337  0.2530 -0.0827  0.1928
 1932DPPE   C4B45048   0.446  15.053  10.277 -0.1784  0.2792  0.2954
 1933DPPE   NH345049   4.920  19.150   2.471 -0.1707  0.1226  0.0465
 1933DPPE   PO445050   5.258  19.534   2.343 -0.2749 -0.6582 -0.0339
 1933DPPE   GL145051   5.272  19.660   1.931  0.1860 -0.0165  0.0310
 1933DPPE   GL245052   5.288  20.017   1.792  0.0382 -0.0587 -0.3831
 1933DPPE   C1A45053   5.180  19.646   1.533  0.0663  0.1306 -0.1453
 1933DPPE   C2A45054   4.970  19.537   1.158  0.0169 -0.1566  0.0837
 1933DPPE   C3A45055   4.697  19.583   0.754 -0.4736  0.0591  0.0440
 1933DPPE   C4A45056   4.756  19.525   0.376  0.1014 -0.1343  0.3319
 1933DPPE   C1B45057   5.263  20.131   1.470  0.1625 -0.1520  0.1263
 1933DPPE   C2B45058   5.084  20.037   1.100  0.1087 -0.1272  0.0820
 1933DPPE   C3B45059   4.954  20.155   0.763 -0.0732  0.0183  0.0527
 1933DPPE   C4B45060   5.017  19.961   0.335  0.0353 -0.3908 -0.2912
 1934DPPE   NH345061   0.772  18.083  11.648  0.0690  0.0916  0.1390
 1934DPPE   PO445062   0.885  17.619  11.616  0.1871  0.0191 -0.0420
 1934DPPE   GL145063   0.477  17.645  11.476  0.0397 -0.0297 -0.0912
 1934DPPE   GL245064   0.631  17.528  11.188 -0.0782 -0.0968  0.1644
 1934DPPE   C1A45065   0.032  17.772  11.656  0.0504 -0.1877 -0.2005
 1934DPPE   C2A45066  -0.426  17.953  11.688  0.0116  0.1155 -0.1662
 1934DPPE   C3A45067  -0.963  18.002  11.761  0.0849  0.0516  0.1488
 1934DPPE   C4A45068  -1.351  18.013  11.839  0.0035 -0.3725 -0.0978
 1934DPPE   C1B45069   0.332  17.205  11.071 -0.2038  0.0217  0.1013
 1934DPPE   C2B45070  -0.042  17.041  10.939 -0.0437  0.3617 -0.2013
 1934DPPE   C3B45071  -0.434  16.805  10.713 -0.3725  0.2465 -0.0434
 1934DPPE   C4B45072  -0.669  16.406  10.614  0.3489  0.0335 -0.1160
 1935DPPE   NH345073  16.588  20.489   1.520 -0.0507  0.1757 -0.2541
 1935DPPE   PO445074  16.235  20.124   1.420 -0.2391  0.1563  0.0045
 1935DPPE   GL145075  15.828  20.197   1.682  0.0778 -0.0140  0.0109
 1935DPPE   GL245076  15.875  19.928   1.717  0.0467 -0.1455 -0.0964
 1935DPPE   C1A45077  15.795  20.405   2.115 -0.0286 -0.0704 -0.0064
 1935DPPE   C2A45078  15.895  20.565   2.460  0.0137  0.2353  0.0410
 1935DPPE   C3A45079  15.790  20.559   2.923  0.2420 -0.2417  0.0139
 1935DPPE   C4A45080  15.541  20.626   3.373 -0.3487 -0.1666  0.3005
 1935DPPE   C1B45081  15.567  19.968   2.111  0.2157  0.0306  0.1221
 1935DPPE   C2B45082  15.243  20.038   2.323  0.1074 -0.0258  0.2998
 1935DPPE   C3B45083  15.181  20.186   2.658 -0.0889  0.1660 -0.2191
 1935DPPE   C4B45084  15.448  20.204   3.081 -0.2167 -0.2314 -0.2892
 1936DPPE   NH345085  31.886  12.329  11.809  0.0074 -0.1483 -0.0976
 1936DPPE   PO445086  32.094  12.323  12.234 -0.0562 -0.0866  0.1313
 1936DPPE   GL145087  32.173  12.704  11.978  0.3495 -0.1302 -0.0199
 1936DPPE   GL245088  32.089  12.704  11.544  0.0203  0.1024 -0.1194
 1936DPPE   C1A45089  32.322  13.072  11.983  0.3145  0.1789  0.4590
 1936DPPE   C2A45090  32.436  13.541  12.206  0.1851  0.0107 -0.2920
 1936DPPE   C3A45091  32.562  13.897  11.997  0.2129 -0.2781 -0.6321
 1936DPPE   C4A45092  32.885  14.208  12.018 -0.4026  0.0662 -0.2072
 1936DPPE   C1B45093  32.545  12.887  11.553  0.0506 -0.1663 -0.0807
 1936DPPE   C2B45094  32.698  12.832  11.135  0.0778  0.0804 -0.1705
 1936DPPE   C3B45095  32.814  12.688  10.851 -0.0487  0.0923  0.0913
 1936DPPE   C4B45096  32.778  12.642  10.436  0.1085 -0.1361  0.3391
 1937DPPE   NH345097  12.191  31.406   7.022 -0.0991  0.0205 -0.0154
 1937DPPE   PO445098  12.414  31.236   7.322  0.0502  0.0221 -0.2521
 1937DPPE   GL145099  12.214  30.944   7.166 -0.0270  0.4731  0.0263
 1937DPPE   GL245100  11.898  30.978   7.003  0.2548  0.0018 -0.0583
 1937DPPE   C1A45101  12.401  30.554   7.120  0.2358 -0.0097  0.0211
 1937DPPE   C2A45102  12.531  30.028   7.124 -0.0404 -0.1413  0.0260
 1937DPPE   C3A45103  12.809  29.690   7.114  0.1415 -0.0198 -0.0283
 1937DPPE   C4A45104  12.831  29.279   7.144 -0.1464  0.0645 -0.1013
 1937DPPE   C1B45105  11.561  30.652   6.937  0.2788  0.2872  0.1543
 1937DPPE   C2B45106  11.266  30.370   7.079 -0.3818  0.0460 -0.0417
 1937DPPE   C3B45107  11.139  30.256   7.316 -0.0530 -0.0365 -0.0023
 1937DPPE   C4B45108  11.108  29.953   7.580 -0.3848 -0.2145 -0.1509
 1938DPPE   NH345109   0.945  19.921  15.371 -0.3996  0.1534 -0.4246
 1938DPPE   PO445110   1.116  19.503  15.587  0.1687  0.3213 -0.0998
 1938DPPE   GL145111   0.921  19.205  15.495 -0.1120  0.1700 -0.5240
 1938DPPE   GL245112   0.854  19.095  15.170  0.1072  0.0470 -0.7470
 1938DPPE   C1A45113   0.570  18.998  15.678  0.2039 -0.1769  0.0987
 1938DPPE   C2A45114   0.191  18.904  16.010  0.0766  0.3159  0.2143
 1938DPPE   C3A45115  -0.039  18.560  16.362 -0.3363  0.1312 -0.0263
 1938DPPE   C4A45116   0.036  18.339  16.693  0.0171  0.4196 -0.0235
 1938DPPE   C1B45117   0.770  18.771  15.181 -0.0265 -0.0871  0.0889
 1938DPPE   C2B45118   0.824  18.278  15.273 -0.1193  0.1461 -0.1461
 1938DPPE   C3B45119   0.558  17.886  15.206 -0.3176 -0.1480  0.0012
 1938DPPE   C4B45120   0.223  17.580  15.296  0.1220 -0.1027  0.3388
 1939DPPE   NH345121   3.802  14.406  26.392 -0.0776 -0.2544 -0.1477
 1939DPPE   PO445122   3.587  13.919  26.510  0.0865  0.1888 -0.0571
 1939DPPE   GL145123   3.753  14.173  26.870  0.2089 -0.0454  0.0636
 1939DPPE   GL245124   3.537  14.423  27.079  0.5159 -0.0460 -0.0187
 1939DPPE   C1A45125   4.097  14.367  27.154  0.1137 -0.1020  0.2619
 1939DPPE   C2A45126   4.356  14.700  27.400 -0.1587 -0.0421 -0.2618
 1939DPPE   C3A45127   4.427  14.827  27.854 -0.3617 -0.0147 -0.0801
 1939DPPE   C4A45128   4.159  14.990  28.244 -0.0231 -0.0364  0.3503
 1939DPPE   C1B45129   3.547  14.574  27.503  0.1921 -0.0818 -0.0656
 1939DPPE   C2B45130   3.639  14.424  27.895 -0.3174 -0.0084 -0.1116
 1939DPPE   C3B45131   3.884  14.087  28.025  0.0925 -0.3908  0.0867
 1939DPPE   C4B45132   3.936  13.814  27.820 -0.1169 -0.0463  0.1887
 1940DPPE   NH345133   2.090  19.360   4.469 -0.0609 -0.1006 -0.0340
 1940DPPE   PO445134   2.131  18.900   4.388 -0.2742  0.1019 -0.1729
 1940DPPE   GL145135   1.720  18.845   4.385 -0.0074  0.4780 -0.1584
 1940DPPE   GL245136   1.529  18.735   4.040  0.0971  0.1572  0.0391
 1940DPPE   C1A45137   1.421  18.612   4.542 -0.1142  0.0206 -0.1104
 1940DPPE   C2A45138   1.185  18.378   4.304 -0.0519 -0.2352  0.1723
 1940DPPE   C3A45139   1.195  17.992   4.191  0.0568 -0.1385  0.2546
 1940DPPE   C4A45140   0.870  17.713   4.101  0.0539 -0.0439  0.2463
 1940DPPE   C1B45141   1.355  18.314   3.779 -0.2715  0.2542 -0.2078
 1940DPPE   C2B45142   1.310  17.975   3.653 -0.2279 -0.2175 -0.2860
 1940DPPE   C3B45143   1.438  17.633   3.399 -0.1101 -0.0037 -0.0947
 1940DPPE   C4B45144   1.596  17.206   3.336  0.3340 -0.4482 -0.3064
 1941DPPE   NH345145   1.522  17.149  21.241 -0.0393 -0.3077 -0.1117
 1941DPPE   PO445146   1.614  16.753  21.359  0.0052  0.1204 -0.0847
 1941DPPE   GL145147   1.555  16.801  20.901 -0.1358  0.2085 -0.3915
 1941DPPE   GL245148   1.839  16.911  20.863 -0.0708 -0.0165 -0.1610
 1941DPPE   C1A45149   1.450  17.086  20.553  0.0352 -0.1007 -0.0094
 1941DPPE   C2A45150   1.235  17.201  20.209 -0.0772  0.0898 -0.2165
 1941DPPE   C3A45151   1.440  17.125  19.844  0.2860  0.4777  0.3491
 1941DPPE   C4A45152   1.389  17.093  19.392  0.1592  0.2599 -0.2016
 1941DPPE   C1B45153   1.948  17.158  20.455 -0.0773  0.2069 -0.1059
 1941DPPE   C2B45154   1.903  17.204  19.996 -0.0199  0.1896 -0.0302
 1941DPPE   C3B45155   1.561  17.630  19.860  0.0273  0.0892 -0.1515
 1941DPPE   C4B45156   1.306  18.034  19.776 -0.3441  0.3379  0.0845
 1942DPPE   NH345157   1.847  18.576  14.912 -0.2244 -0.2530  0.3360
 1942DPPE   PO445158   1.645  19.026  14.872  0.2058  0.1735  0.2094
 1942DPPE   GL145159   1.311  18.790  15.034  0.1151  0.1599  0.1998
 1942DPPE   GL245160   1.427  18.450  15.170 -0.0229  0.0581  0.0690
 1942DPPE   C1A45161   0.974  18.507  14.798 -0.1023 -0.1463 -0.0254
 1942DPPE   C2A45162   0.540  18.258  14.857 -0.2007  0.1213  0.1912
 1942DPPE   C3A45163   0.163  18.201  15.132 -0.1637  0.2269 -0.0664
 1942DPPE   C4A45164  -0.122  17.974  15.341  0.0779  0.1083  0.0127
 1942DPPE   C1B45165   1.159  18.642  15.459  0.2097 -0.2955  0.2655
 1942DPPE   C2B45166   0.841  18.499  15.749 -0.1522 -0.0900  0.2458
 1942DPPE   C3B45167   0.429  18.491  15.926  0.0318 -0.2260 -0.2196
 1942DPPE   C4B45168   0.410  18.297  16.294 -0.1005  0.2844 -0.6226
 1943DPPE   NH345169   6.878  18.249  24.681 -0.1562  0.1192  0.2858
 1943DPPE   PO445170   7.164  18.699  24.661 -0.0025 -0.3076 -0.0330
 1943DPPE   GL145171   7.062  18.497  25.056  0.0755  0.3011  0.0208
 1943DPPE   GL245172   6.847  18.280  25.218  0.0146  0.2685  0.0129
 1943DPPE   C1A45173   7.262  18.537  25.509 -0.1730 -0.2086 -0.0160
 1943DPPE   C2A45174   7.349  18.760  25.839 -0.0511 -0.3076 -0.4010
 1943DPPE   C3A45175   7.301  18.577  26.222 -0.2012  0.4198 -0.3351
 1943DPPE   C4A45176   7.183  18.556  26.702 -0.2046  0.1819  0.0918
 1943DPPE   C1B45177   6.803  18.303  25.580 -0.0266  0.0131 -0.0963
 1943DPPE   C2B45178   7.039  18.292  25.880 -0.0276 -0.1046 -0.0161
 1943DPPE   C3B45179   7.209  17.890  25.995 -0.0038 -0.0280 -0.0297
 1943DPPE   C4B45180   7.075  17.479  26.077  0.0255 -0.0355  0.1107
 1944DPPE   NH345181  35.065  22.833  18.270  0.1853  0.1211 -0.2647
 1944DPPE   PO445182  35.383  22.915  18.424 -0.1457  0.0112  0.2025
 1944DPPE   GL145183  35.501  22.619  18.086 -0.2319  0.2607  0.1424
 1944DPPE   GL245184  35.246  22.567  17.885 -0.1497 -0.0608  0.1098
 1944DPPE   C1A45185  35.701  22.415  17.755 -0.0706 -0.2657  0.1306
 1944DPPE   C2A45186  35.765  22.106  17.533 -0.1678 -0.0707  0.0184
 1944DPPE   C3A45187  35.765  21.723  17.252 -0.3085 -0.0478  0.0815
 1944DPPE   C4A45188  35.642  21.689  16.807 -0.0436  0.1828 -0.0222
 1944DPPE   C1B45189  35.440  22.096  17.951 -0.0164  0.1583 -0.3008
 1944DPPE   C2B45190  35.477  21.610  17.745 -0.2519 -0.0313 -0.4551
 1944DPPE   C3B45191  35.485  21.288  17.438  0.2383  0.1694 -0.3448
 1944DPPE   C4B45192  35.402  21.276  17.037 -0.1540 -0.2647  0.1849
 1945DPPE   NH345193  38.254  20.716  26.394  0.0934  0.2493 -0.2346
 1945DPPE   PO445194  38.544  20.387  26.183  0.0255 -0.0204  0.0041
 1945DPPE   GL145195  38.824  20.150  26.468 -0.1782  0.2893 -0.2370
 1945DPPE   GL245196  39.054  19.788  26.346  0.2379  0.1391  0.1290
 1945DPPE   C1A45197  38.831  20.231  26.950  0.2289 -0.2750  0.1804
 1945DPPE   C2A45198  38.864  20.009  27.338  0.3805 -0.2109 -0.3168
 1945DPPE   C3A45199  38.722  19.983  27.766 -0.3025  0.0044  0.0094
 1945DPPE   C4A45200  38.827  19.735  28.144  0.3693 -0.0122 -0.1394
 1945DPPE   C1B45201  39.037  19.752  26.856 -0.1083  0.3190  0.0385
 1945DPPE   C2B45202  38.867  19.440  27.125 -0.2536 -0.0785  0.0306
 1945DPPE   C3B45203  39.083  19.457  27.522 -0.1262 -0.2968  0.2180
 1945DPPE   C4B45204  39.172  19.245  27.849  0.2001 -0.0125  0.0518
 1946DPPE   NH345205  36.405  22.310   1.377 -0.1358  0.1270  0.2490
 1946DPPE   PO445206  36.582  21.945   1.099  0.0219  0.0008 -0.0344
 1946DPPE   GL145207  36.722  21.769   1.480  0.1508 -0.1298  0.1286
 1946DPPE   GL245208  36.925  21.693   1.431 -0.0251  0.0519  0.4229
 1946DPPE   C1A45209  36.745  21.640   1.949 -0.1370  0.1091 -0.0332
 1946DPPE   C2A45210  36.968  21.829   2.304  0.1228  0.0544  0.4939
 1946DPPE   C3A45211  37.169  21.886   2.616 -0.4562 -0.0090 -0.0740
 1946DPPE   C4A45212  37.114  21.755   3.147 -0.2230  0.0162  0.0919
 1946DPPE   C1B45213  36.780  21.188   1.628 -0.0016 -0.2119 -0.4742
 1946DPPE   C2B45214  36.943  20.923   1.924  0.2611  0.2621  0.1102
 1946DPPE   C3B45215  36.963  20.619   2.321  0.1096 -0.0287 -0.1214
 1946DPPE   C4B45216  37.269  20.255   2.516 -0.0068  0.4574  0.2707
 1947DPPE   NH345217   8.358  26.738  17.054 -0.2891 -0.2268  0.2151
 1947DPPE   PO445218   7.895  26.707  17.176 -0.0427  0.1843 -0.2153
 1947DPPE   GL145219   8.164  26.952  17.497 -0.1727 -0.0087 -0.3220
 1947DPPE   GL245220   8.501  26.876  17.633 -0.0707  0.1068  0.2368
 1947DPPE   C1A45221   8.357  27.359  17.554 -0.1227  0.2106 -0.2162
 1947DPPE   C2A45222   8.464  27.839  17.470 -0.1064 -0.0532  0.1079
 1947DPPE   C3A45223   8.487  28.128  17.095 -0.0794  0.1402 -0.1644
 1947DPPE   C4A45224   8.705  28.134  16.694 -0.0282  0.2037 -0.0256
 1947DPPE   C1B45225   8.296  27.022  17.949 -0.1726 -0.0219  0.1592
 1947DPPE   C2B45226   7.807  27.062  17.989 -0.0865 -0.0576  0.2974
 1947DPPE   C3B45227   7.373  27.262  18.014  0.3127  0.2353  0.0639
 1947DPPE   C4B45228   7.195  27.389  18.347  0.1402  0.0841 -0.0338
 1948DPPE   NH345229   1.003  18.017   9.874  0.1431  0.0641 -0.0337
 1948DPPE   PO445230   1.120  18.110  10.270  0.1126 -0.1620 -0.2299
 1948DPPE   GL145231   0.794  17.981  10.268  0.0598 -0.1521 -0.3001
 1948DPPE   GL245232   0.780  17.828  10.597  0.1260 -0.1584 -0.3404
 1948DPPE   C1A45233   0.381  17.742  10.194 -0.1752  0.1653  0.3317
 1948DPPE   C2A45234  -0.006  17.647  10.284 -0.2635  0.2082 -0.0553
 1948DPPE   C3A45235  -0.442  17.654  10.421  0.2821  0.1135 -0.2460
 1948DPPE   C4A45236  -0.745  17.715  10.095 -0.0251  0.3293 -0.1963
 1948DPPE   C1B45237   0.320  17.593  10.722  0.0806  0.0967  0.1222
 1948DPPE   C2B45238  -0.077  17.504  10.719  0.1220 -0.2972 -0.1325
 1948DPPE   C3B45239  -0.474  17.367  10.857 -0.3229 -0.1878  0.0914
 1948DPPE   C4B45240  -0.842  17.216  10.789  0.0340 -0.0513  0.1282
 1949DPPE   NH345241  16.468  28.637   8.128 -0.0091 -0.2316  0.2493
 1949DPPE   PO445242  16.305  28.829   8.356  0.4773  0.0315 -0.2233
 1949DPPE   GL145243  15.919  28.951   8.558  0.1493  0.0588  0.4180
 1949DPPE   GL245244  15.761  29.195   8.628 -0.0690  0.1101  0.0748
 1949DPPE   C1A45245  15.512  28.614   8.662 -0.0080 -0.1611 -0.3061
 1949DPPE   C2A45246  15.299  28.237   8.897 -0.0116 -0.3554 -0.0946
 1949DPPE   C3A45247  15.237  27.886   8.813  0.0536 -0.0081 -0.2554
 1949DPPE   C4A45248  15.075  27.533   9.008  0.0309  0.1319  0.2426
 1949DPPE   C1B45249  15.355  29.036   8.814 -0.0915 -0.2531 -0.0820
 1949DPPE   C2B45250  15.035  28.752   8.821  0.1139 -0.1514  0.0872
 1949DPPE   C3B45251  14.773  28.332   8.908 -0.0493  0.0496  0.5231
 1949DPPE   C4B45252  14.396  28.037   8.893  0.0876 -0.2769  0.0837
 1950DPPE   NH345253   0.227  21.664  11.053  0.2222  0.0713  0.1660
 1950DPPE   PO445254  -0.036  21.521  10.698  0.3738  0.4689  0.1160
 1950DPPE   GL145255  -0.337  21.678  10.628 -0.1450 -0.2342 -0.1387
 1950DPPE   GL245256  -0.366  21.479  10.358  0.2026 -0.0322  0.0291
 1950DPPE   C1A45257  -0.684  21.941  10.524 -0.0354 -0.0542 -0.0794
 1950DPPE   C2A45258  -1.147  22.052  10.390 -0.1995  0.1277 -0.0093
 1950DPPE   C3A45259  -1.541  22.108  10.379 -0.5847  0.2709  0.1813
 1950DPPE   C4A45260  -1.923  22.177  10.138 -0.0291  0.2053 -0.0480
 1950DPPE   C1B45261  -0.853  21.511  10.549  0.3762  0.2765 -0.1332
 1950DPPE   C2B45262  -1.303  21.565  10.467  0.4103 -0.3099  0.2994
 1950DPPE   C3B45263  -1.731  21.439  10.601 -0.1898 -0.0287  0.1698
 1950DPPE   C4B45264  -2.119  21.406  10.840  0.2695  0.1157  0.1430
 1951DPPE   NH345265  35.913   7.485  13.747 -0.0408 -0.1443  0.1126
 1951DPPE   PO445266  36.267   7.637  13.931  0.2849 -0.2187 -0.0455
 1951DPPE   GL145267  36.538   7.936  14.104 -0.0497  0.0310  0.1422
 1951DPPE   GL245268  36.658   7.876  14.415  0.3231  0.0627 -0.2438
 1951DPPE   C1A45269  37.071   7.966  14.175  0.0660  0.0610 -0.1178
 1951DPPE   C2A45270  37.346   8.219  14.471  0.0186 -0.0523 -0.0438
 1951DPPE   C3A45271  37.723   8.576  14.411  0.0281  0.0099 -0.1490
 1951DPPE   C4A45272  38.084   8.977  14.297  0.2262  0.1158 -0.0848
 1951DPPE   C1B45273  36.847   8.314  14.439  0.0117 -0.2412 -0.0563
 1951DPPE   C2B45274  36.740   8.689  14.443  0.0025  0.3580 -0.0224
 1951DPPE   C3B45275  36.865   9.089  14.202 -0.1507 -0.0111 -0.1246
 1951DPPE   C4B45276  37.214   9.335  14.043  0.3275 -0.2359 -0.0444
 1952DPPE   NH345277   0.286  21.926   5.535  0.1180 -0.0501  0.1618
 1952DPPE   PO445278   0.214  22.260   5.778  0.0753 -0.1879 -0.5059
 1952DPPE   GL145279  -0.083  22.291   5.453  0.1819 -0.3731  0.2137
 1952DPPE   GL245280  -0.234  22.051   5.550  0.0939 -0.2200 -0.0292
 1952DPPE   C1A45281  -0.545  22.343   5.295  0.4294 -0.0696 -0.0945
 1952DPPE   C2A45282  -0.753  22.680   5.363  0.1567  0.2101  0.1395
 1952DPPE   C3A45283  -1.123  22.728   5.570  0.1980  0.8003  0.0135
 1952DPPE   C4A45284  -1.583  22.787   5.443 -0.3058 -0.1155 -0.3479
 1952DPPE   C1B45285  -0.465  21.791   5.172 -0.1097 -0.3040  0.1812
 1952DPPE   C2B45286  -0.795  21.867   4.887 -0.4911  0.1051  0.1226
 1952DPPE   C3B45287  -1.197  21.709   4.668  0.0032 -0.0116  0.0373
 1952DPPE   C4B45288  -1.576  21.486   4.811  0.0314  0.1062  0.2219
 1953DPPE   NH345289   4.190  14.984  12.408 -0.1434  0.0949  0.0016
 1953DPPE   PO445290   3.979  15.102  12.766  0.1114  0.0727 -0.1010
 1953DPPE   GL145291   3.670  14.747  12.849  0.0489 -0.0230  0.0598
 1953DPPE   GL245292   3.869  14.495  13.061 -0.1572 -0.1238 -0.3340
 1953DPPE   C1A45293   3.277  14.694  12.768  0.0636 -0.1586  0.2338
 1953DPPE   C2A45294   2.802  14.514  12.735 -0.0330 -0.1319 -0.1118
 1953DPPE   C3A45295   2.383  14.410  12.710  0.1214 -0.1674 -0.0242
 1953DPPE   C4A45296   2.066  14.605  12.983 -0.2845 -0.3992 -0.4604
 1953DPPE   C1B45297   3.434  14.519  13.217  0.1473 -0.1674  0.1718
 1953DPPE   C2B45298   2.991  14.397  13.147  0.0198 -0.0138  0.3402
 1953DPPE   C3B45299   2.532  14.377  13.287 -0.0716  0.1399  0.0697
 1953DPPE   C4B45300   2.093  14.275  13.431  0.4445 -0.0433  0.0512
 1954DPPE   NH345301  38.107  15.533  25.475  0.1103 -0.0499 -0.0589
 1954DPPE   PO445302  38.190  16.099  25.333 -0.0910 -0.3491  0.0326
 1954DPPE   GL145303  38.089  15.973  25.796  0.0055  0.1168 -0.2142
 1954DPPE   GL245304  38.082  16.248  26.082  0.3594 -0.3307 -0.0947
 1954DPPE   C1A45305  37.739  15.891  25.959 -0.0785  0.2723  0.1449
 1954DPPE   C2A45306  37.484  16.093  26.226  0.3410  0.1666  0.1046
 1954DPPE   C3A45307  37.376  16.376  26.492 -0.1024 -0.0251  0.0780
 1954DPPE   C4A45308  37.502  16.789  26.771 -0.1577 -0.1611  0.0756
 1954DPPE   C1B45309  38.133  15.999  26.514 -0.1302 -0.3218 -0.0744
 1954DPPE   C2B45310  38.437  16.120  26.769  0.1058 -0.0061 -0.2496
 1954DPPE   C3B45311  38.696  16.082  27.135 -0.0792  0.0570 -0.0037
 1954DPPE   C4B45312  39.095  16.048  27.227  0.1390  0.0234  0.3273
 1955DPPE   NH345313   3.622  16.871   4.384 -0.0251 -0.0136  0.0521
 1955DPPE   PO445314   3.396  17.110   4.728  0.0641 -0.3217  0.2787
 1955DPPE   GL145315   3.055  16.846   4.597  0.0683 -0.1179  0.1323
 1955DPPE   GL245316   2.829  16.928   4.798  0.0332 -0.3135 -0.1571
 1955DPPE   C1A45317   2.675  16.454   4.626  0.0801  0.0805  0.1288
 1955DPPE   C2A45318   2.635  16.048   4.862 -0.2024 -0.4217 -0.1740
 1955DPPE   C3A45319   2.503  15.646   4.894 -0.3007  0.0827 -0.1092
 1955DPPE   C4A45320   2.457  15.205   4.863  0.0186  0.1045 -0.1322
 1955DPPE   C1B45321   2.326  16.976   4.842  0.3434 -0.2509 -0.0382
 1955DPPE   C2B45322   2.035  16.742   5.195  0.2162 -0.1381  0.0533
 1955DPPE   C3B45323   1.911  16.479   5.482 -0.0330  0.1205 -0.5087
 1955DPPE   C4B45324   1.763  16.456   5.835 -0.0551  0.0577  0.0168
 1956DPPE   NH345325  33.528  10.781  15.001  0.0835  0.2723  0.0713
 1956DPPE   PO445326  33.811  10.972  15.191  0.4412  0.1989 -0.0143
 1956DPPE   GL145327  33.957  11.383  15.286 -0.3431 -0.2423 -0.2061
 1956DPPE   GL245328  34.251  11.230  15.373  0.0345  0.0896  0.1295
 1956DPPE   C1A45329  34.171  11.642  15.053  0.1035  0.1314  0.2709
 1956DPPE   C2A45330  34.328  11.937  14.699 -0.3217  0.0929 -0.1620
 1956DPPE   C3A45331  34.648  11.943  14.446  0.1302 -0.2659 -0.1222
 1956DPPE   C4A45332  34.696  11.941  13.970  0.0004  0.1287 -0.3357
 1956DPPE   C1B45333  34.404  11.214  14.849 -0.0193  0.0412 -0.0055
 1956DPPE   C2B45334  34.509  11.497  14.532  0.1061 -0.1182  0.0204
 1956DPPE   C3B45335  34.887  11.570  14.200  0.0970 -0.0455 -0.0308
 1956DPPE   C4B45336  35.273  11.433  14.063 -0.0653 -0.0460  0.0617
 1957DPPE   NH345337   3.083  15.775  11.065  0.0858  0.4119 -0.3335
 1957DPPE   PO445338   3.287  15.671  10.705 -0.1691 -0.1056 -0.2684
 1957DPPE   GL145339   2.918  15.393  10.744 -0.1978 -0.1152 -0.1805
 1957DPPE   GL245340   2.843  15.062  10.780 -0.0587  0.0878  0.0977
 1957DPPE   C1A45341   2.730  15.274  11.215 -0.0233 -0.0658 -0.2930
 1957DPPE   C2A45342   2.740  14.947  11.570 -0.0173  0.0669  0.0037
 1957DPPE   C3A45343   2.747  14.622  11.892 -0.1844  0.2169 -0.1257
 1957DPPE   C4A45344   3.025  14.191  11.885 -0.3583 -0.4513 -0.3314
 1957DPPE   C1B45345   2.530  14.877  10.933 -0.0194  0.1972  0.0189
 1957DPPE   C2B45346   2.268  14.474  11.000 -0.0589 -0.5468 -0.0310
 1957DPPE   C3B45347   2.036  14.418  11.224  0.1141  0.0541 -0.3870
 1957DPPE   C4B45348   1.807  14.539  11.546  0.1779 -0.0774  0.0002
 1958DPPE   NH345349   3.863  14.874  11.600 -0.2687  0.1522 -0.1919
 1958DPPE   PO445350   4.013  14.946  11.954  0.0393  0.1421 -0.2643
 1958DPPE   GL145351   3.822  14.615  12.034 -0.1303  0.0074  0.1179
 1958DPPE   GL245352   3.902  14.403  11.982  0.3533  0.0152  0.3032
 1958DPPE   C1A45353   3.616  14.397  12.413 -0.0221  0.2065  0.2128
 1958DPPE   C2A45354   3.763  14.110  12.701  0.0681  0.2018 -0.1304
 1958DPPE   C3A45355   3.935  13.801  12.997 -0.1540  0.0322 -0.2294
 1958DPPE   C4A45356   3.693  13.583  13.254 -0.0657  0.4033  0.0870
 1958DPPE   C1B45357   3.708  14.054  11.755  0.1479 -0.2413 -0.3022
 1958DPPE   C2B45358   3.381  13.860  11.475  0.0768  0.0221  0.0583
 1958DPPE   C3B45359   3.432  13.588  11.074  0.3344 -0.0297  0.0621
 1958DPPE   C4B45360   3.738  13.210  10.917  0.3118 -0.1467  0.1559
 1959DPPE   NH345361  37.554  23.053  12.003 -0.3753  0.0525 -0.1608
 1959DPPE   PO445362  37.593  22.857  11.612 -0.0904 -0.0383 -0.0480
 1959DPPE   GL145363  37.347  22.442  11.486  0.0702  0.0608 -0.0741
 1959DPPE   GL245364  37.335  22.326  11.145  0.1553 -0.0455  0.0022
 1959DPPE   C1A45365  37.043  22.083  11.453  0.1477 -0.0501 -0.1327
 1959DPPE   C2A45366  36.885  21.675  11.373 -0.0899 -0.2308 -0.3040
 1959DPPE   C3A45367  36.574  21.364  11.355  0.1093  0.0038 -0.4997
 1959DPPE   C4A45368  36.164  21.255  11.438  0.1449 -0.2587  0.0797
 1959DPPE   C1B45369  37.118  22.417  10.796  0.3295 -0.2681 -0.2283
 1959DPPE   C2B45370  37.172  22.527  10.342 -0.0508 -0.0257  0.1493
 1959DPPE   C3B45371  36.955  22.617   9.968 -0.0121 -0.0124 -0.1222
 1959DPPE   C4B45372  36.609  22.816   9.908 -0.0151  0.0665  0.1083
 1960DPPE   NH345373  37.281  15.333  21.986  0.1360  0.0804 -0.0215
 1960DPPE   PO445374  37.609  15.375  21.893 -0.0629  0.0389 -0.3273
 1960DPPE   GL145375  37.502  15.461  21.444 -0.1065  0.4623 -0.1284
 1960DPPE   GL245376  37.517  15.786  21.140  0.1481 -0.0114  0.2124
 1960DPPE   C1A45377  37.751  15.402  21.032 -0.1874  0.4560 -0.1439
 1960DPPE   C2A45378  37.940  15.024  20.857  0.1076  0.0815  0.1723
 1960DPPE   C3A45379  38.018  15.107  20.366  0.2768 -0.1600  0.1431
 1960DPPE   C4A45380  37.666  15.292  20.028 -0.1752 -0.1926  0.0004
 1960DPPE   C1B45381  37.563  15.925  20.667  0.3012 -0.4169  0.2206
 1960DPPE   C2B45382  37.425  15.840  20.255 -0.0883  0.0438 -0.0730
 1960DPPE   C3B45383  37.287  15.662  19.879 -0.0481 -0.1351  0.1337
 1960DPPE   C4B45384  37.312  15.423  19.578  0.1235  0.0021  0.0625
 1961DPPE   NH345385  32.396  12.412  15.430  0.0578 -0.0195 -0.0593
 1961DPPE   PO445386  32.510  12.300  15.085 -0.0541  0.1127 -0.0770
 1961DPPE   GL145387  32.690  12.714  14.905  0.0410  0.0082  0.0106
 1961DPPE   GL245388  32.851  12.733  15.199  0.0227 -0.1679  0.1443
 1961DPPE   C1A45389  32.620  13.192  14.916  0.0279  0.2274  0.3423
 1961DPPE   C2A45390  32.561  13.455  14.637 -0.0224 -0.2324 -0.0699
 1961DPPE   C3A45391  32.910  13.653  14.321  0.0220  0.1612  0.1182
 1961DPPE   C4A45392  33.252  13.550  14.075 -0.3445 -0.0395 -0.1777
 1961DPPE   C1B45393  33.080  13.168  15.052  0.0158  0.0364 -0.0390
 1961DPPE   C2B45394  33.410  13.558  15.078 -0.0326  0.2013 -0.2746
 1961DPPE   C3B45395  33.776  13.638  15.077  0.0370 -0.1330 -0.2000
 1961DPPE   C4B45396  34.067  13.958  15.176 -0.1083 -0.2899  0.0585
 1962DPPE   NH345397   8.205  21.776  18.297 -0.0670  0.1506  0.1533
 1962DPPE   PO445398   8.478  22.187  18.159  0.0484  0.1722  0.0026
 1962DPPE   GL145399   8.620  22.171  18.625  0.1492 -0.2135 -0.0340
 1962DPPE   GL245400   8.929  22.020  18.730 -0.1438 -0.0712  0.0813
 1962DPPE   C1A45401   8.558  22.222  19.042  0.0151 -0.0323 -0.3383
 1962DPPE   C2A45402   8.641  22.107  19.392  0.0896 -0.0680  0.2450
 1962DPPE   C3A45403   8.489  22.254  19.816  0.1179  0.2741 -0.1074
 1962DPPE   C4A45404   8.312  22.470  20.205  0.2960 -0.2336 -0.1363
 1962DPPE   C1B45405   9.032  22.236  19.037 -0.0864  0.0416  0.3528
 1962DPPE   C2B45406   9.076  22.607  19.340  0.2809  0.0494  0.1073
 1962DPPE   C3B45407   8.869  23.026  19.361 -0.1122 -0.2433 -0.2120
 1962DPPE   C4B45408   8.865  23.437  19.719  0.4186 -0.0246  0.1177
 1963DPPE   NH345409  31.772  13.725   7.193 -0.3949  0.0921  0.1607
 1963DPPE   PO445410  31.930  14.047   6.927 -0.2371  0.0600 -0.0421
 1963DPPE   GL145411  32.252  14.240   7.017  0.2764 -0.1603 -0.0988
 1963DPPE   GL245412  32.365  14.162   6.769 -0.0365  0.0208  0.2730
 1963DPPE   C1A45413  32.600  14.336   7.299 -0.0719 -0.2769  0.2395
 1963DPPE   C2A45414  32.906  14.763   7.468  0.0932 -0.2722  0.0858
 1963DPPE   C3A45415  32.825  15.146   7.875 -0.4893 -0.0339 -0.2413
 1963DPPE   C4A45416  33.069  15.348   8.271  0.0048 -0.5723 -0.1757
 1963DPPE   C1B45417  32.589  14.268   6.340  0.1496  0.0010 -0.1180
 1963DPPE   C2B45418  33.018  14.157   6.325  0.0981 -0.1482  0.2768
 1963DPPE   C3B45419  33.350  14.179   6.534  0.1874  0.1509  0.0064
 1963DPPE   C4B45420  33.566  14.272   6.900  0.2692 -0.1647 -0.0160
 1964DPPE   NH345421  14.713  14.770  16.024  0.3200 -0.2460  0.0825
 1964DPPE   PO445422  15.168  14.937  15.925 -0.2539  0.0372  0.0288
 1964DPPE   GL145423  14.925  15.220  15.694  0.2103 -0.1294 -0.2915
 1964DPPE   GL245424  14.714  15.355  15.994  0.0062  0.0858 -0.3119
 1964DPPE   C1A45425  14.742  15.526  15.466 -0.2195  0.1301  0.0289
 1964DPPE   C2A45426  14.646  15.906  15.456 -0.0134 -0.0149 -0.0017
 1964DPPE   C3A45427  14.294  16.208  15.537 -0.1757  0.1381  0.2141
 1964DPPE   C4A45428  14.050  16.410  15.390 -0.0410 -0.0079 -0.3586
 1964DPPE   C1B45429  14.354  15.569  15.696  0.1206 -0.0317  0.0861
 1964DPPE   C2B45430  14.027  15.703  15.542 -0.0529  0.1540  0.0609
 1964DPPE   C3B45431  13.781  15.973  15.366  0.0417 -0.3647 -0.2313
 1964DPPE   C4B45432  13.542  16.299  15.133 -0.4282  0.2409  0.0839
 1965DPPE   NH345433   4.886  28.379  13.006  0.0359 -0.3017  0.0366
 1965DPPE   PO445434   5.202  28.628  13.311  0.0053  0.1291 -0.0835
 1965DPPE   GL145435   5.295  29.057  13.310  0.0778  0.0751 -0.0031
 1965DPPE   GL245436   5.555  29.204  13.260  0.2492  0.0862 -0.0317
 1965DPPE   C1A45437   5.052  29.446  13.256  0.0094 -0.3074 -0.0874
 1965DPPE   C2A45438   4.865  29.871  13.342 -0.0930 -0.1411  0.1113
 1965DPPE   C3A45439   4.691  30.235  13.346 -0.1509  0.0039  0.2043
 1965DPPE   C4A45440   4.311  30.499  13.599 -0.0842  0.2670 -0.2219
 1965DPPE   C1B45441   5.547  29.618  13.186  0.1827  0.2427  0.2057
 1965DPPE   C2B45442   5.349  30.016  13.260 -0.1601 -0.1344  0.0514
 1965DPPE   C3B45443   5.082  30.259  13.598  0.0806  0.1050 -0.0400
 1965DPPE   C4B45444   5.237  30.665  13.935  0.1881  0.0736 -0.0468
 1966DPPE   NH345445   0.172  21.324  12.109 -0.1203 -0.1972 -0.1179
 1966DPPE   PO445446  -0.091  21.008  11.983  0.1313  0.1014 -0.0949
 1966DPPE   GL145447  -0.451  20.962  11.779  0.2395  0.0792  0.0975
 1966DPPE   GL245448  -0.712  20.893  12.002  0.2068 -0.3567  0.0442
 1966DPPE   C1A45449  -0.780  21.195  11.584 -0.0635 -0.0571 -0.2492
 1966DPPE   C2A45450  -1.177  21.137  11.468 -0.1630  0.2106  0.1307
 1966DPPE   C3A45451  -1.548  20.912  11.568  0.0224 -0.1070 -0.0847
 1966DPPE   C4A45452  -1.916  20.963  11.750  0.0331 -0.0183  0.2163
 1966DPPE   C1B45453  -1.119  20.791  11.988 -0.1281 -0.2647  0.2962
 1966DPPE   C2B45454  -1.555  20.810  12.042  0.1333  0.2197  0.4331
 1966DPPE   C3B45455  -1.952  20.512  11.976 -0.1678  0.0744 -0.1310
 1966DPPE   C4B45456  -2.016  20.131  12.128  0.4372 -0.2651 -0.0172
 1967DPPE   NH345457  30.856  16.168  17.605  0.0401 -0.1856 -0.2782
 1967DPPE   PO445458  31.186  16.143  17.445  0.1326  0.2260  0.0455
 1967DPPE   GL145459  31.562  16.313  17.223  0.1495  0.1723  0.0428
 1967DPPE   GL245460  31.528  16.246  16.799 -0.2222 -0.2400 -0.3053
 1967DPPE   C1A45461  31.938  16.574  17.203  0.1899 -0.0577 -0.3193
 1967DPPE   C2A45462  32.278  16.690  17.265 -0.1758 -0.3180  0.2460
 1967DPPE   C3A45463  32.653  16.747  16.960  0.1797  0.3526 -0.2041
 1967DPPE   C4A45464  32.946  17.145  16.721  0.0420 -0.0114  0.0889
 1967DPPE   C1B45465  31.657  16.664  16.605  0.1300 -0.3273 -0.2954
 1967DPPE   C2B45466  31.950  16.808  16.642  0.1234 -0.2302 -0.1045
 1967DPPE   C3B45467  32.047  17.233  16.478  0.1866  0.2058  0.1473
 1967DPPE   C4B45468  32.255  17.626  16.306  0.1999 -0.1838  0.2509
 1968DPPE   NH345469   3.418  17.005  16.583 -0.1976 -0.0664 -0.2257
 1968DPPE   PO445470   3.008  17.075  16.402 -0.1234 -0.1466 -0.0664
 1968DPPE   GL145471   2.579  16.953  16.591  0.1075  0.1149  0.0560
 1968DPPE   GL245472   2.634  16.977  16.929  0.0109  0.0497 -0.0062
 1968DPPE   C1A45473   2.151  16.857  16.460 -0.0877 -0.3891  0.0012
 1968DPPE   C2A45474   1.628  16.761  16.508  0.1403  0.1678  0.3036
 1968DPPE   C3A45475   1.447  16.734  16.880 -0.0760 -0.0945  0.0809
 1968DPPE   C4A45476   1.081  16.879  16.833  0.3168  0.1807  0.7190
 1968DPPE   C1B45477   2.485  16.577  17.068  0.1424  0.0324 -0.1588
 1968DPPE   C2B45478   2.495  16.158  17.085  0.4642 -0.2270  0.2727
 1968DPPE   C3B45479   2.500  15.746  16.873  0.1092 -0.0393 -0.2826
 1968DPPE   C4B45480   2.479  15.288  16.939 -0.1895 -0.0866 -0.1181
 1969DPPE   NH345481  32.272  17.290  20.547  0.3596 -0.1646  0.0247
 1969DPPE   PO445482  32.375  17.025  20.216  0.1747 -0.1170 -0.0475
 1969DPPE   GL145483  32.607  17.127  19.812 -0.0791 -0.2260 -0.0519
 1969DPPE   GL245484  32.558  16.894  19.527  0.0005 -0.0447  0.0969
 1969DPPE   C1A45485  32.656  17.374  19.556  0.0939  0.0054 -0.0226
 1969DPPE   C2A45486  32.440  17.598  19.198  0.1258 -0.0489  0.1453
 1969DPPE   C3A45487  32.175  17.648  19.013  0.3649  0.0728 -0.1213
 1969DPPE   C4A45488  31.860  17.763  18.661  0.0842  0.1327  0.3768
 1969DPPE   C1B45489  32.459  17.072  19.231  0.2360 -0.1715 -0.0064
 1969DPPE   C2B45490  32.682  17.269  18.919 -0.3225  0.0454  0.4039
 1969DPPE   C3B45491  32.436  17.421  18.597  0.1590  0.3023  0.2839
 1969DPPE   C4B45492  32.360  17.809  18.411 -0.0798  0.0848  0.1577
 1970DPPE   NH345493  14.633  18.556   8.577  0.1085  0.0387 -0.1321
 1970DPPE   PO445494  14.589  18.195   8.222 -0.1837  0.0905 -0.0190
 1970DPPE   GL145495  14.915  17.813   8.139 -0.2368  0.0375  0.0607
 1970DPPE   GL245496  14.843  17.579   8.031  0.1982  0.1217  0.1199
 1970DPPE   C1A45497  15.266  17.501   8.266 -0.0069 -0.1069  0.0418
 1970DPPE   C2A45498  15.513  17.119   8.311 -0.1051 -0.1057  0.2260
 1970DPPE   C3A45499  15.483  16.807   8.061  0.2145 -0.0939  0.1468
 1970DPPE   C4A45500  15.144  16.429   8.050 -0.2051  0.4425  0.0797
 1970DPPE   C1B45501  15.175  17.245   7.885  0.1331 -0.1803  0.0341
 1970DPPE   C2B45502  15.659  17.232   7.769 -0.0616  0.0772 -0.1401
 1970DPPE   C3B45503  16.107  17.501   7.870 -0.2345 -0.0160  0.0074
 1970DPPE   C4B45504  16.229  17.843   7.812 -0.1463 -0.1474  0.0196
 1971DPPE   NH345505   7.611   9.099   7.726  0.1653  0.1741  0.2148
 1971DPPE   PO445506   8.052   9.140   7.611  0.0148  0.0510 -0.1524
 1971DPPE   GL145507   8.050   9.442   7.862 -0.2025  0.3694 -0.1703
 1971DPPE   GL245508   7.726   9.554   7.967 -0.0353 -0.2072 -0.0192
 1971DPPE   C1A45509   8.093   9.952   7.871  0.0063 -0.0285  0.0424
 1971DPPE   C2A45510   8.188  10.433   7.772  0.0285 -0.2792  0.0916
 1971DPPE   C3A45511   8.275  10.935   7.849 -0.0388 -0.0123 -0.1346
 1971DPPE   C4A45512   8.510  11.292   7.940 -0.1551 -0.3297 -0.0518
 1971DPPE   C1B45513   7.681   9.894   8.165 -0.1763  0.0807 -0.5114
 1971DPPE   C2B45514   7.535  10.310   8.350  0.4024  0.3154  0.2504
 1971DPPE   C3B45515   7.760  10.692   8.555 -0.0880 -0.1932 -0.1076
 1971DPPE   C4B45516   7.936  10.941   8.773  0.1187 -0.1602  0.1369
 1972DPPE   NH345517  13.962  25.291   8.856  0.0633  0.1309  0.1058
 1972DPPE   PO445518  13.594  25.319   8.604  0.0268 -0.0965  0.3099
 1972DPPE   GL145519  13.868  25.450   8.395 -0.0784  0.0016  0.0785
 1972DPPE   GL245520  14.113  25.258   8.404 -0.1786 -0.0274  0.1914
 1972DPPE   C1A45521  14.018  25.746   8.108 -0.1238 -0.0202  0.0284
 1972DPPE   C2A45522  14.294  26.055   8.064 -0.1824  0.2251  0.4584
 1972DPPE   C3A45523  14.304  26.461   7.984  0.0873  0.0074  0.0228
 1972DPPE   C4A45524  14.148  26.892   7.849  0.2575 -0.5810 -0.2336
 1972DPPE   C1B45525  14.347  25.631   8.496 -0.1036 -0.1484  0.1852
 1972DPPE   C2B45526  14.620  26.016   8.483 -0.1199 -0.5333  0.0728
 1972DPPE   C3B45527  14.732  26.335   8.205 -0.1016  0.1726  0.1039
 1972DPPE   C4B45528  15.073  26.420   7.987 -0.0852 -0.0248 -0.2628
 1973DPPE   NH345529   3.934  32.324  14.167 -0.0321  0.0131 -0.1436
 1973DPPE   PO445530   3.877  31.988  14.524  0.1973 -0.0965  0.2427
 1973DPPE   GL145531   4.112  31.756  14.408 -0.1151 -0.2871 -0.2647
 1973DPPE   GL245532   4.409  31.733  14.536 -0.0630 -0.2193 -0.4952
 1973DPPE   C1A45533   4.118  31.358  14.633 -0.1049 -0.0417 -0.0065
 1973DPPE   C2A45534   4.281  30.917  14.539 -0.2848  0.1104  0.0175
 1973DPPE   C3A45535   4.504  30.476  14.742  0.1858  0.0670  0.1525
 1973DPPE   C4A45536   4.875  30.275  14.704  0.1622 -0.0729  0.3240
 1973DPPE   C1B45537   4.610  31.379  14.347  0.2810  0.1753  0.2757
 1973DPPE   C2B45538   4.693  30.927  14.279 -0.1978 -0.2535 -0.0338
 1973DPPE   C3B45539   5.023  30.638  14.365 -0.0478  0.0140 -0.2647
 1973DPPE   C4B45540   4.953  30.174  14.073  0.0217 -0.1542 -0.3434
 1974DPPE   NH345541   4.313  14.142  12.001 -0.2869 -0.2234 -0.0492
 1974DPPE   PO445542   4.636  13.974  12.232  0.4683  0.1534  0.0880
 1974DPPE   GL145543   4.509  13.636  12.134  0.1736  0.1143  0.0821
 1974DPPE   GL245544   4.665  13.445  12.393 -0.1434  0.2189 -0.1599
 1974DPPE   C1A45545   4.349  13.261  12.056 -0.0415  0.0913  0.1350
 1974DPPE   C2A45546   4.535  12.907  12.269  0.3894  0.1280 -0.0928
 1974DPPE   C3A45547   4.690  12.598  12.571 -0.0715 -0.1745 -0.0882
 1974DPPE   C4A45548   4.898  12.197  12.648 -0.1267  0.0162  0.0333
 1974DPPE   C1B45549   4.739  13.133  12.697  0.0327  0.0836 -0.1648
 1974DPPE   C2B45550   4.383  12.859  12.959  0.1183 -0.1063  0.1099
 1974DPPE   C3B45551   4.193  12.536  12.898 -0.0807  0.0462 -0.2858
 1974DPPE   C4B45552   3.840  12.413  12.991  0.1888 -0.0123  0.1902
 1975DPPE   NH345553   3.561  17.496   3.417 -0.2621  0.2120 -0.3865
 1975DPPE   PO445554   3.944  17.174   3.373 -0.2234 -0.0992  0.0998
 1975DPPE   GL145555   3.720  17.090   3.039  0.4603  0.2285  0.2212
 1975DPPE   GL245556   3.844  17.181   2.752 -0.1686 -0.0223  0.0088
 1975DPPE   C1A45557   3.653  16.752   2.881  0.1749  0.0488 -0.1555
 1975DPPE   C2A45558   3.589  16.645   2.485 -0.1321 -0.0379 -0.1102
 1975DPPE   C3A45559   3.682  16.867   2.020  0.2823 -0.1372  0.0938
 1975DPPE   C4A45560   3.793  16.807   1.546  0.1388 -0.2539 -0.0583
 1975DPPE   C1B45561   3.746  17.473   2.424 -0.0939 -0.3321  0.1459
 1975DPPE   C2B45562   3.532  17.386   2.118 -0.0451  0.1499 -0.0727
 1975DPPE   C3B45563   3.461  17.233   1.702  0.1567 -0.0037 -0.0199
 1975DPPE   C4B45564   3.491  17.194   1.329  0.3507  0.0288  0.1045
 1976DPPE   NH345565  37.345  12.990  21.290 -0.3614 -0.0162  0.0390
 1976DPPE   PO445566  37.763  12.806  20.890 -0.0590 -0.3137  0.0379
 1976DPPE   GL145567  37.833  13.173  20.601  0.0227  0.0432 -0.3144
 1976DPPE   GL245568  37.741  13.007  20.255  0.2060 -0.0045  0.2533
 1976DPPE   C1A45569  37.685  13.630  20.519  0.1909 -0.0830  0.2827
 1976DPPE   C2A45570  37.389  13.953  20.320  0.2897 -0.1680 -0.0799
 1976DPPE   C3A45571  37.267  14.437  20.152  0.4198 -0.0233  0.0596
 1976DPPE   C4A45572  37.208  14.782  20.169 -0.0477 -0.2459 -0.4678
 1976DPPE   C1B45573  38.153  12.947  20.031 -0.0863  0.0062  0.0760
 1976DPPE   C2B45574  38.348  12.885  19.680 -0.2183 -0.1652  0.2836
 1976DPPE   C3B45575  38.356  12.916  19.269 -0.3018  0.0677  0.0303
 1976DPPE   C4B45576  38.194  12.751  18.906  0.2133 -0.1202 -0.0204
 1977DPPE   NH345577   0.723  18.325  10.834  0.1343  0.0342 -0.0750
 1977DPPE   PO445578   0.577  18.720  10.756  0.3854 -0.0813 -0.0320
 1977DPPE   GL145579   0.216  18.459  10.635 -0.0038 -0.1063  0.0276
 1977DPPE   GL245580   0.357  18.205  10.510 -0.3780  0.4365  0.0472
 1977DPPE   C1A45581  -0.262  18.486  10.730  0.0084  0.1816  0.1630
 1977DPPE   C2A45582  -0.687  18.507  10.667 -0.0684  0.1951 -0.1246
 1977DPPE   C3A45583  -1.069  18.419  10.607 -0.2560  0.0558 -0.3359
 1977DPPE   C4A45584  -1.465  18.402  10.414  0.1295 -0.1340  0.0223
 1977DPPE   C1B45585   0.012  18.003  10.668 -0.0187 -0.1438 -0.1857
 1977DPPE   C2B45586  -0.322  17.914  10.850 -0.0158 -0.0795  0.2651
 1977DPPE   C3B45587  -0.577  17.735  11.185  0.1696 -0.4431  0.0744
 1977DPPE   C4B45588  -0.899  17.383  11.336 -0.1637 -0.1548 -0.0415
 1978DPPE   NH345589   3.939  15.512  14.688 -0.1168 -0.1232  0.0038
 1978DPPE   PO445590   4.135  15.288  15.052 -0.0824 -0.1721 -0.1026
 1978DPPE   GL145591   3.838  15.104  15.118  0.7146 -0.2659 -0.3542
 1978DPPE   GL245592   3.928  14.756  15.054  0.2700 -0.1126 -0.0708
 1978DPPE   C1A45593   3.517  15.047  15.018 -0.1287 -0.3096 -0.0433
 1978DPPE   C2A45594   3.167  14.808  15.087  0.0918 -0.1216 -0.0212
 1978DPPE   C3A45595   3.096  14.539  15.448  0.1065 -0.1986 -0.2295
 1978DPPE   C4A45596   3.337  14.166  15.736  0.1573 -0.0225 -0.0345
 1978DPPE   C1B45597   4.099  14.311  15.249 -0.0698  0.2595 -0.1876
 1978DPPE   C2B45598   4.323  14.268  15.531 -0.2186 -0.1044  0.1301
 1978DPPE   C3B45599   4.658  13.970  15.620  0.1559 -0.3599 -0.0612
 1978DPPE   C4B45600   4.862  13.543  15.841  0.3005 -0.0045  0.1384
 1979DPPE   NH345601   4.078  15.061   8.340 -0.0988 -0.0516  0.2565
 1979DPPE   PO445602   3.733  15.103   8.445 -0.0251 -0.1202 -0.2493
 1979DPPE   GL145603   3.478  15.154   8.759 -0.1745  0.0136  0.0697
 1979DPPE   GL245604   3.651  15.121   9.124  0.5212 -0.0033  0.0185
 1979DPPE   C1A45605   3.225  14.843   8.869  0.0479 -0.0320  0.0267
 1979DPPE   C2A45606   2.777  14.495   8.717 -0.0520 -0.2030 -0.1839
 1979DPPE   C3A45607   2.415  14.344   9.014  0.0028  0.0022  0.3905
 1979DPPE   C4A45608   2.188  14.050   8.971 -0.2727  0.3078  0.0400
 1979DPPE   C1B45609   3.356  14.876   9.434 -0.1574 -0.0147 -0.2688
 1979DPPE   C2B45610   2.940  14.990   9.663  0.1153 -0.1948 -0.0565
 1979DPPE   C3B45611   2.461  14.997   9.822  0.4821  0.1774 -0.3357
 1979DPPE   C4B45612   2.150  14.714   9.976  0.0525 -0.1858 -0.0993
 1980DPPE   NH345613   0.599  20.877   8.807  0.1106 -0.0498 -0.3187
 1980DPPE   PO445614   0.404  20.451   8.849  0.2256  0.0994  0.4186
 1980DPPE   GL145615  -0.002  20.525   8.714  0.0397  0.0356  0.2302
 1980DPPE   GL245616  -0.087  20.348   8.390 -0.1446  0.0036  0.2922
 1980DPPE   C1A45617  -0.453  20.727   8.886 -0.1121  0.0011  0.1336
 1980DPPE   C2A45618  -0.604  21.109   8.710  0.0538 -0.5229  0.1537
 1980DPPE   C3A45619  -0.841  21.498   8.614 -0.0727 -0.1220 -0.0413
 1980DPPE   C4A45620  -1.247  21.650   8.480  0.3734 -0.1497 -0.0854
 1980DPPE   C1B45621  -0.473  20.255   8.688  0.1919 -0.3771  0.1351
 1980DPPE   C2B45622  -0.808  20.083   9.014  0.1421 -0.1977 -0.3546
 1980DPPE   C3B45623  -1.239  19.956   9.050  0.0855 -0.0663 -0.1856
 1980DPPE   C4B45624  -1.463  20.226   8.825  0.0730 -0.0728  0.1890
 1981DPPE   NH345625  37.802  24.969  10.726  0.0545 -0.0676 -0.0402
 1981DPPE   PO445626  37.537  24.645  10.435  0.1632 -0.1843  0.3213
 1981DPPE   GL145627  37.249  24.774  10.363  0.0879 -0.1956 -0.2998
 1981DPPE   GL245628  37.032  24.600  10.458  0.2998 -0.1801 -0.0642
 1981DPPE   C1A45629  36.979  25.133  10.428 -0.0662  0.1830 -0.1715
 1981DPPE   C2A45630  36.593  25.310  10.593  0.1527 -0.2160 -0.2798
 1981DPPE   C3A45631  36.369  25.505  10.908  0.1701  0.0022 -0.0596
 1981DPPE   C4A45632  36.099  25.571  11.249 -0.0240  0.0157  0.0552
 1981DPPE   C1B45633  36.628  24.791  10.562 -0.4094  0.0916 -0.3006
 1981DPPE   C2B45634  36.293  24.931  10.640  0.1887  0.4455  0.2456
 1981DPPE   C3B45635  35.944  25.181  10.900  0.1844  0.0096  0.0597
 1981DPPE   C4B45636  35.645  25.404  10.975  0.2999  0.1119 -0.0214
 1982DPPE   NH345637   7.281  23.304  18.533 -0.0178  0.1482  0.0263
 1982DPPE   PO445638   6.993  23.426  18.280 -0.0718  0.2388 -0.2192
 1982DPPE   GL145639   6.802  23.556  18.619  0.2386  0.2675 -0.3353
 1982DPPE   GL245640   6.568  23.793  18.601 -0.1963  0.1431  0.0229
 1982DPPE   C1A45641   6.951  23.570  19.000  0.2959  0.2135  0.2387
 1982DPPE   C2A45642   6.696  23.738  19.423 -0.1127 -0.3587  0.1123
 1982DPPE   C3A45643   6.710  23.954  19.863 -0.1095 -0.0047  0.2436
 1982DPPE   C4A45644   7.068  23.856  20.113  0.1123  0.0211 -0.1202
 1982DPPE   C1B45645   6.504  24.102  19.012  0.0299  0.0737 -0.0641
 1982DPPE   C2B45646   6.552  24.295  19.517  0.0651  0.1443  0.1471
 1982DPPE   C3B45647   6.665  24.431  19.894  0.0853  0.1956 -0.1710
 1982DPPE   C4B45648   6.745  24.248  20.242 -0.1082  0.0812  0.0253
 1983DPPE   NH345649  29.986  18.089   6.323 -0.2100 -0.4127 -0.0071
 1983DPPE   PO445650  29.910  18.311   6.574 -0.4021  0.2343  0.0552
 1983DPPE   GL145651  30.290  18.205   6.736 -0.2240 -0.1448 -0.0488
 1983DPPE   GL245652  30.283  18.488   6.932 -0.3083 -0.1136 -0.1830
 1983DPPE   C1A45653  30.724  18.258   6.684 -0.1188 -0.1662  0.0435
 1983DPPE   C2A45654  31.201  18.260   6.767 -0.0000 -0.0172 -0.0421
 1983DPPE   C3A45655  31.649  18.183   7.041  0.1030 -0.1028  0.0529
 1983DPPE   C4A45656  32.118  18.297   7.106  0.1212  0.0133 -0.0944
 1983DPPE   C1B45657  30.255  18.924   6.777  0.0780  0.2085  0.1905
 1983DPPE   C2B45658  30.092  19.216   6.960  0.2069 -0.0534  0.1203
 1983DPPE   C3B45659  30.109  19.576   7.078  0.3255 -0.0475 -0.3088
 1983DPPE   C4B45660  30.599  19.725   7.088  0.0954  0.1804  0.1208
 1984DPPE   NH345661  37.939  24.615   7.992  0.0195  0.2757  0.3218
 1984DPPE   PO445662  38.182  24.240   7.870 -0.2166 -0.1670  0.2487
 1984DPPE   GL145663  37.722  24.115   7.895 -0.2298  0.2749 -0.1246
 1984DPPE   GL245664  37.577  23.757   7.806 -0.0145 -0.0263 -0.0464
 1984DPPE   C1A45665  37.265  24.128   7.740  0.0877  0.2316 -0.0409
 1984DPPE   C2A45666  36.997  23.945   7.518  0.2735 -0.1307  0.2677
 1984DPPE   C3A45667  36.727  23.699   7.283  0.0650 -0.3038  0.1990
 1984DPPE   C4A45668  36.650  23.883   6.844 -0.0303 -0.2010  0.0423
 1984DPPE   C1B45669  37.140  23.686   7.912 -0.1111 -0.1184  0.0876
 1984DPPE   C2B45670  36.910  24.019   8.206  0.1906  0.1857 -0.2701
 1984DPPE   C3B45671  36.520  24.072   8.505  0.0750  0.2809 -0.0909
 1984DPPE   C4B45672  36.093  24.093   8.486 -0.3283  0.0537 -0.0366
 1985DPPE   NH345673  31.181  22.971   3.124 -0.1625  0.0439 -0.0185
 1985DPPE   PO445674  31.454  22.518   3.164 -0.1050 -0.1320 -0.0882
 1985DPPE   GL145675  31.728  22.540   3.554 -0.0848  0.2711 -0.0486
 1985DPPE   GL245676  31.533  22.508   3.886  0.2737 -0.0695  0.0783
 1985DPPE   C1A45677  31.830  22.153   3.827  0.0688 -0.1519 -0.2407
 1985DPPE   C2A45678  32.140  21.744   3.977 -0.3106  0.1059  0.2883
 1985DPPE   C3A45679  32.460  21.601   4.228  0.0553  0.0930  0.1631
 1985DPPE   C4A45680  32.812  21.891   4.156  0.2803  0.1090  0.2783
 1985DPPE   C1B45681  31.599  22.441   4.273 -0.1912 -0.0054 -0.1259
 1985DPPE   C2B45682  31.947  22.406   4.596  0.2750 -0.2198 -0.2594
 1985DPPE   C3B45683  32.345  22.375   4.728 -0.0910  0.2158 -0.3147
 1985DPPE   C4B45684  32.764  22.116   4.664 -0.1754 -0.0463  0.2748
 1986DPPE   NH345685  37.087  13.144  26.232  0.2243  0.1805 -0.1495
 1986DPPE   PO445686  37.181  13.466  26.459  0.1891  0.2245  0.1981
 1986DPPE   GL145687  37.319  13.727  26.758  0.2223  0.0678 -0.2296
 1986DPPE   GL245688  37.114  13.602  27.121 -0.0455  0.1974  0.2919
 1986DPPE   C1A45689  37.186  14.108  27.065 -0.0055 -0.2089 -0.1906
 1986DPPE   C2A45690  37.150  14.146  27.559  0.0066 -0.2333  0.0504
 1986DPPE   C3A45691  37.148  14.056  27.964 -0.1756 -0.0905 -0.0868
 1986DPPE   C4A45692  37.117  14.026  28.366  0.0857 -0.3671  0.0189
 1986DPPE   C1B45693  37.073  13.687  27.499 -0.0364  0.1353  0.0051
 1986DPPE   C2B45694  37.042  13.573  27.966  0.2003  0.0858  0.0043
 1986DPPE   C3B45695  36.724  13.799  28.154  0.2081 -0.2641 -0.3113
 1986DPPE   C4B45696  36.619  14.060  28.510  0.3503  0.0866 -0.1275
 1987DPPE   NH345697   4.472  27.548  14.999  0.3189  0.0832  0.0948
 1987DPPE   PO445698   4.341  27.905  14.931  0.0197 -0.2607  0.2015
 1987DPPE   GL145699   3.893  28.011  14.989 -0.3394  0.1286 -0.2122
 1987DPPE   GL245700   3.880  28.339  15.226  0.0372 -0.0922 -0.0174
 1987DPPE   C1A45701   3.598  28.387  14.787 -0.2358 -0.1713  0.0152
 1987DPPE   C2A45702   3.354  28.741  14.665 -0.0925  0.0092  0.0370
 1987DPPE   C3A45703   3.079  29.118  14.727  0.0741 -0.0582 -0.0157
 1987DPPE   C4A45704   2.625  29.154  14.847  0.0202 -0.0918 -0.0755
 1987DPPE   C1B45705   3.561  28.689  15.155 -0.5104 -0.2399  0.1305
 1987DPPE   C2B45706   3.264  28.977  15.364 -0.0401 -0.1474 -0.0051
 1987DPPE   C3B45707   2.876  28.957  15.639 -0.0684 -0.1484 -0.3629
 1987DPPE   C4B45708   2.469  28.918  15.599 -0.4073 -0.0838 -0.1640
 1988DPPE   NH345709   5.640  22.191  22.454  0.1033  0.1524 -0.0638
 1988DPPE   PO445710   5.323  21.928  22.482 -0.1651 -0.1248 -0.0507
 1988DPPE   GL145711   5.464  21.930  22.009  0.2230  0.3172 -0.0191
 1988DPPE   GL245712   5.548  22.139  21.953 -0.2592  0.0329 -0.1543
 1988DPPE   C1A45713   5.494  21.810  21.555 -0.0622  0.0592 -0.2685
 1988DPPE   C2A45714   5.687  21.588  21.367  0.0822 -0.2399 -0.0955
 1988DPPE   C3A45715   5.838  21.160  21.038  0.3611  0.1322  0.0615
 1988DPPE   C4A45716   5.658  20.997  20.725 -0.2989 -0.2524 -0.3817
 1988DPPE   C1B45717   5.892  22.104  21.591 -0.2749  0.0491  0.1076
 1988DPPE   C2B45718   5.813  22.063  21.158 -0.0936 -0.3504 -0.4910
 1988DPPE   C3B45719   5.994  22.020  20.866 -0.1817  0.1782 -0.0854
 1988DPPE   C4B45720   6.085  21.846  20.451 -0.1270 -0.3735  0.0696
 1989DPPE   NH345721   9.735  13.603   7.646  0.3569 -0.3045  0.2124
 1989DPPE   PO445722   9.617  13.597   8.030 -0.2289 -0.0372 -0.1675
 1989DPPE   GL145723   9.927  13.211   7.963  0.1549 -0.2651  0.1574
 1989DPPE   GL245724   9.856  13.085   7.645 -0.1534  0.2349  0.0349
 1989DPPE   C1A45725  10.079  12.723   7.853 -0.0695  0.0245  0.0910
 1989DPPE   C2A45726  10.245  12.348   7.775  0.5414  0.1027 -0.0933
 1989DPPE   C3A45727  10.322  12.200   7.488 -0.0550 -0.1138  0.3167
 1989DPPE   C4A45728  10.381  11.838   7.333 -0.2827 -0.1396 -0.0428
 1989DPPE   C1B45729  10.230  13.184   7.607  0.0744  0.2028  0.3770
 1989DPPE   C2B45730  10.527  13.315   7.429 -0.2652 -0.1126  0.1234
 1989DPPE   C3B45731  10.946  13.325   7.343  0.0759 -0.1967  0.0542
 1989DPPE   C4B45732  11.367  13.097   7.648 -0.2581  0.4038  0.1434
 1990DPPE   NH345733   4.517  26.264  26.325 -0.0396 -0.1873  0.1658
 1990DPPE   PO445734   4.830  26.611  26.425 -0.1365  0.2258 -0.0150
 1990DPPE   GL145735   4.928  26.257  26.664 -0.1381 -0.0732 -0.7885
 1990DPPE   GL245736   5.233  26.286  26.548 -0.0648 -0.2663 -0.3499
 1990DPPE   C1A45737   4.834  26.008  27.090  0.2304 -0.1266 -0.1482
 1990DPPE   C2A45738   4.797  25.526  27.076 -0.2048 -0.1997  0.0061
 1990DPPE   C3A45739   4.812  25.054  26.956  0.3256 -0.3406  0.2807
 1990DPPE   C4A45740   5.122  24.750  26.951  0.1370  0.1750 -0.1133
 1990DPPE   C1B45741   5.260  25.853  26.746 -0.1144 -0.2901  0.3260
 1990DPPE   C2B45742   5.290  25.406  26.892  0.1093 -0.0571  0.0273
 1990DPPE   C3B45743   5.223  25.152  27.175 -0.0455  0.2567  0.0492
 1990DPPE   C4B45744   4.920  24.930  27.427 -0.0102  0.1523  0.2849
 1991DPPE   NH345745   0.997  24.815   5.569 -0.1632 -0.1531  0.0498
 1991DPPE   PO445746   0.584  24.528   5.570 -0.1068 -0.0137  0.3423
 1991DPPE   GL145747   0.387  24.827   5.332  0.3157 -0.3135  0.0454
 1991DPPE   GL245748   0.583  25.044   5.439 -0.0107  0.1883  0.0831
 1991DPPE   C1A45749   0.063  25.035   5.089  0.3623 -0.3058 -0.3768
 1991DPPE   C2A45750  -0.305  25.351   4.976  0.4163 -0.0543  0.2121
 1991DPPE   C3A45751  -0.420  25.654   4.725 -0.0449 -0.3099 -0.0040
 1991DPPE   C4A45752  -0.662  25.951   4.756 -0.3495 -0.3420  0.0383
 1991DPPE   C1B45753   0.152  25.173   5.558  0.4011 -0.2883 -0.1232
 1991DPPE   C2B45754  -0.284  25.170   5.472 -0.2489  0.1818  0.2238
 1991DPPE   C3B45755  -0.725  25.109   5.204 -0.1584  0.2600 -0.1856
 1991DPPE   C4B45756  -0.861  25.469   4.881  0.1333  0.3445 -0.3159
 1992DPPE   NH345757  37.465  24.095  10.849  0.1528 -0.0278  0.0183
 1992DPPE   PO445758  37.190  23.871  11.242 -0.3506 -0.0695  0.1418
 1992DPPE   GL145759  36.850  23.657  11.276 -0.0983 -0.1543 -0.0800
 1992DPPE   GL245760  36.827  23.472  11.419  0.1704  0.3230 -0.0309
 1992DPPE   C1A45761  36.513  23.898  11.377  0.2825 -0.3611 -0.0013
 1992DPPE   C2A45762  36.141  24.112  11.180  0.3155 -0.0827  0.1978
 1992DPPE   C3A45763  35.579  24.057  11.018  0.0398  0.2862 -0.2551
 1992DPPE   C4A45764  35.370  24.215  10.676 -0.1068  0.0210  0.0584
 1992DPPE   C1B45765  36.400  23.384  11.615  0.1908 -0.3019 -0.0702
 1992DPPE   C2B45766  35.929  23.318  11.603 -0.2685  0.1658  0.1020
 1992DPPE   C3B45767  35.808  22.821  11.570 -0.0985 -0.4602 -0.0918
 1992DPPE   C4B45768  35.739  22.337  11.522 -0.0355  0.2058  0.0963
 1993DPPE   NH345769   4.222  15.507   4.467 -0.1935 -0.0615 -0.1381
 1993DPPE   PO445770   4.024  15.793   4.578  0.0980 -0.1007 -0.0669
 1993DPPE   GL145771   3.704  15.471   4.523 -0.1531 -0.3014 -0.0249
 1993DPPE   GL245772   3.779  15.396   4.279  0.0773  0.0591 -0.7212
 1993DPPE   C1A45773   3.253  15.453   4.333  0.0692  0.0958  0.1209
 1993DPPE   C2A45774   2.842  15.443   3.951 -0.1138  0.3290  0.3633
 1993DPPE   C3A45775   2.578  15.146   3.693 -0.0106  0.4227 -0.1912
 1993DPPE   C4A45776   2.560  14.677   3.505  0.2100 -0.2910  0.0711
 1993DPPE   C1B45777   3.675  15.281   3.791 -0.3657  0.5273  0.1766
 1993DPPE   C2B45778   3.516  14.989   3.397 -0.1202 -0.0591 -0.1605
 1993DPPE   C3B45779   3.415  14.960   2.930  0.0107  0.2982 -0.2878
 1993DPPE   C4B45780   3.443  15.103   2.516 -0.0769 -0.3545 -0.0819
 1994DPPE   NH345781  32.763  25.787  13.625 -0.1347 -0.0133  0.1571
 1994DPPE   PO445782  32.783  25.926  14.033  0.1187 -0.1683 -0.2547
 1994DPPE   GL145783  32.973  25.542  14.030  0.0849 -0.1507 -0.0529
 1994DPPE   GL245784  32.873  25.265  13.760  0.2290  0.1984  0.1823
 1994DPPE   C1A45785  33.324  25.308  14.132 -0.3010 -0.0459 -0.1556
 1994DPPE   C2A45786  33.719  25.226  14.031 -0.0502 -0.1000 -0.3067
 1994DPPE   C3A45787  34.000  25.052  13.787 -0.0801 -0.1376 -0.0310
 1994DPPE   C4A45788  34.001  24.738  13.351  0.0393  0.0647 -0.0834
 1994DPPE   C1B45789  33.057  24.960  13.814 -0.1838 -0.1457 -0.1446
 1994DPPE   C2B45790  33.501  24.875  13.740  0.0139 -0.1454  0.0659
 1994DPPE   C3B45791  33.903  24.576  13.826  0.0499  0.2268  0.0109
 1994DPPE   C4B45792  34.133  24.167  13.901  0.0188  0.0467  0.0239
 1995DPPE   NH345793   3.710  21.544   2.710 -0.1512  0.1916  0.2795
 1995DPPE   PO445794   3.429  21.821   2.949 -0.0384  0.2017 -0.0877
 1995DPPE   GL145795   3.479  21.958   2.571 -0.2061 -0.2086 -0.0913
 1995DPPE   GL245796   3.584  21.824   2.348  0.0168  0.6538  0.1494
 1995DPPE   C1A45797   3.120  21.985   2.276  0.0042 -0.1123  0.1057
 1995DPPE   C2A45798   2.934  22.002   1.948  0.1912  0.1583 -0.1493
 1995DPPE   C3A45799   2.776  22.119   1.642  0.0173 -0.1104  0.4042
 1995DPPE   C4A45800   2.500  22.355   1.460  0.2755  0.2184  0.0025
 1995DPPE   C1B45801   3.414  21.819   1.902  0.1642  0.1663 -0.2376
 1995DPPE   C2B45802   3.276  21.977   1.486 -0.2945 -0.3071 -0.0891
 1995DPPE   C3B45803   3.060  21.961   1.206 -0.0483  0.0617 -0.0170
 1995DPPE   C4B45804   3.065  21.981   0.776  0.0617  0.0547  0.1453
 1996DPPE   NH345805   0.108  20.044  11.843 -0.1266  0.0376 -0.1590
 1996DPPE   PO445806   0.072  20.238  11.525  0.0714 -0.3087  0.1535
 1996DPPE   GL145807  -0.422  20.105  11.642 -0.1221 -0.1739 -0.3826
 1996DPPE   GL245808  -0.735  20.241  11.458 -0.1356  0.1532  0.1094
 1996DPPE   C1A45809  -0.713  19.854  11.827 -0.0403  0.1533 -0.2005
 1996DPPE   C2A45810  -1.124  19.802  11.911 -0.2256  0.1324  0.0249
 1996DPPE   C3A45811  -1.579  19.625  12.000  0.2380  0.1705 -0.1310
 1996DPPE   C4A45812  -1.768  19.400  12.358 -0.0808  0.1847  0.4202
 1996DPPE   C1B45813  -1.105  20.023  11.400 -0.4272 -0.1738  0.0593
 1996DPPE   C2B45814  -1.452  19.962  11.515 -0.2240  0.1606 -0.3424
 1996DPPE   C3B45815  -1.864  19.902  11.660 -0.0384 -0.1501  0.1032
 1996DPPE   C4B45816  -2.095  19.601  11.945 -0.0927  0.1730  0.1150
 1997DPPE   NH345817  34.550  27.823   7.649 -0.0235 -0.1017 -0.0454
 1997DPPE   PO445818  34.950  27.686   7.369  0.2052 -0.1050  0.0064
 1997DPPE   GL145819  35.223  27.396   7.229  0.0221  0.1563  0.0493
 1997DPPE   GL245820  35.152  27.179   7.020  0.2602 -0.1488 -0.1211
 1997DPPE   C1A45821  35.567  27.139   7.451 -0.0622  0.0583 -0.0495
 1997DPPE   C2A45822  35.990  27.115   7.405  0.0114  0.1625  0.1346
 1997DPPE   C3A45823  36.361  27.231   7.513 -0.0556  0.0742 -0.3374
 1997DPPE   C4A45824  36.576  27.185   7.899  0.2013 -0.0151  0.0949
 1997DPPE   C1B45825  35.105  26.921   7.341 -0.1666 -0.1283  0.2063
 1997DPPE   C2B45826  35.318  26.560   7.284  0.3605 -0.3779  0.1038
 1997DPPE   C3B45827  35.654  26.211   7.239  0.2617  0.0085 -0.1568
 1997DPPE   C4B45828  35.831  25.904   6.953  0.3148  0.1594  0.2116
 1998DPPE   NH345829  28.917  19.214  10.790  0.3006  0.0233 -0.3009
 1998DPPE   PO445830  29.130  19.496  10.752 -0.1555  0.0024  0.2434
 1998DPPE   GL145831  29.501  19.725  10.839 -0.2840 -0.1322 -0.2497
 1998DPPE   GL245832  29.744  19.491  10.946  0.0156 -0.0831 -0.0147
 1998DPPE   C1A45833  29.852  19.779  10.583  0.1150  0.1709 -0.2415
 1998DPPE   C2A45834  30.208  19.849  10.695  0.2245  0.1007  0.0664
 1998DPPE   C3A45835  30.557  19.620  10.756 -0.1831  0.0693 -0.2583
 1998DPPE   C4A45836  30.953  19.826  10.599  0.2017  0.0934 -0.4617
 1998DPPE   C1B45837  30.129  19.174  10.717  0.2992 -0.4353 -0.1648
 1998DPPE   C2B45838  30.478  19.077  10.417  0.0433 -0.2723  0.1019
 1998DPPE   C3B45839  30.838  18.974  10.260  0.1235  0.2119 -0.1470
 1998DPPE   C4B45840  31.263  18.849  10.354 -0.2010  0.1264 -0.2290
 1999DPPE   NH345841   4.079  14.171   6.618 -0.1395 -0.1108 -0.1595
 1999DPPE   PO445842   4.418  14.110   6.186 -0.0947 -0.0810  0.0690
 1999DPPE   GL145843   4.047  13.771   6.335 -0.0840  0.2102  0.0104
 1999DPPE   GL245844   4.238  13.587   6.286 -0.0805  0.2315  0.1421
 1999DPPE   C1A45845   3.711  13.414   6.293  0.0537 -0.0439 -0.2772
 1999DPPE   C2A45846   3.627  13.014   6.347  0.0505 -0.2517 -0.1535
 1999DPPE   C3A45847   3.452  12.683   6.406 -0.1049  0.4882 -0.0413
 1999DPPE   C4A45848   3.019  12.515   6.251 -0.1139  0.1871  0.1819
 1999DPPE   C1B45849   4.049  13.155   6.090  0.0770  0.1659  0.1947
 1999DPPE   C2B45850   3.971  12.660   6.295  0.2586  0.1884  0.2024
 1999DPPE   C3B45851   3.948  12.166   6.421  0.0453 -0.3086 -0.0831
 1999DPPE   C4B45852   3.784  11.795   6.668 -0.2656 -0.3074 -0.1482
 2000DPPE   NH345853   0.831  20.026  13.119 -0.0734 -0.3464 -0.1035
 2000DPPE   PO445854   0.399  19.962  13.308 -0.1272  0.0144  0.0147
 2000DPPE   GL145855   0.129  19.651  13.522 -0.1700  0.3535 -0.0531
 2000DPPE   GL245856   0.142  19.400  13.403 -0.2538  0.0903  0.2300
 2000DPPE   C1A45857  -0.187  19.592  13.778 -0.2448 -0.0380 -0.0929
 2000DPPE   C2A45858  -0.530  19.678  13.988 -0.0241  0.0310  0.1032
 2000DPPE   C3A45859  -0.935  19.488  13.853  0.0060  0.0648 -0.1280
 2000DPPE   C4A45860  -1.140  19.118  13.869 -0.1254 -0.4392 -0.2124
 2000DPPE   C1B45861  -0.093  19.133  13.591 -0.0433  0.0558 -0.0678
 2000DPPE   C2B45862  -0.508  19.156  13.808 -0.2948  0.2417 -0.3311
 2000DPPE   C3B45863  -0.704  19.055  14.045  0.0510 -0.0856  0.3943
 2000DPPE   C4B45864  -0.966  19.289  14.303  0.4134 -0.0200 -0.3416
 2001DPPE   NH345865   0.938  25.854  11.659 -0.1967 -0.0219 -0.1401
 2001DPPE   PO445866   0.604  26.181  11.642 -0.0078  0.0673  0.0585
 2001DPPE   GL145867   0.300  26.574  11.584 -0.3694 -0.1043 -0.0007
 2001DPPE   GL245868   0.189  26.692  11.270 -0.0919 -0.0521  0.0349
 2001DPPE   C1A45869   0.122  26.995  11.835 -0.0451  0.0666 -0.1556
 2001DPPE   C2A45870  -0.177  27.227  11.927 -0.1812  0.0246 -0.0034
 2001DPPE   C3A45871  -0.506  27.551  11.990  0.1537 -0.1353 -0.2541
 2001DPPE   C4A45872  -0.927  27.739  11.813 -0.0075 -0.0223 -0.0709
 2001DPPE   C1B45873  -0.227  26.925  11.531 -0.4031  0.1376  0.0774
 2001DPPE   C2B45874  -0.429  27.237  11.503 -0.1405 -0.0236  0.2050
 2001DPPE   C3B45875  -0.607  27.662  11.490  0.0439  0.0247 -0.0657
 2001DPPE   C4B45876  -0.788  28.044  11.437 -0.0405 -0.4810 -0.0789
 2002DPPE   NH345877   7.173  13.278  12.179  0.1470 -0.3620 -0.3586
 2002DPPE   PO445878   6.908  13.311  11.868  0.1414 -0.0565 -0.1581
 2002DPPE   GL145879   7.096  13.023  11.638  0.1874 -0.6098 -0.1136
 2002DPPE   GL245880   7.325  12.885  11.886  0.1925  0.2704 -0.2460
 2002DPPE   C1A45881   7.339  12.724  11.393 -0.0400  0.0578  0.1077
 2002DPPE   C2A45882   7.465  12.271  11.396  0.2201 -0.0708 -0.2594
 2002DPPE   C3A45883   7.770  12.003  11.231 -0.2149  0.1649 -0.0119
 2002DPPE   C4A45884   7.843  11.765  10.813 -0.2989  0.0369  0.3757
 2002DPPE   C1B45885   7.346  12.417  11.991 -0.0548  0.2525 -0.1970
 2002DPPE   C2B45886   7.437  12.074  12.127  0.0344  0.0372 -0.0625
 2002DPPE   C3B45887   7.266  11.814  12.371 -0.2667 -0.2104  0.3488
 2002DPPE   C4B45888   7.219  11.951  12.883 -0.0404  0.0538 -0.1217
 2003DPPE   NH345889   0.022  16.182  21.352  0.1759  0.2512 -0.0083
 2003DPPE   PO445890  -0.177  16.661  21.293  0.2305 -0.0032  0.4134
 2003DPPE   GL145891   0.056  16.939  21.024 -0.0126 -0.0969 -0.2930
 2003DPPE   GL245892   0.293  16.734  21.026 -0.0091  0.1219 -0.3536
 2003DPPE   C1A45893  -0.080  16.986  20.578 -0.0486  0.1925  0.3468
 2003DPPE   C2A45894  -0.156  17.141  20.121 -0.1222  0.0453 -0.0470
 2003DPPE   C3A45895  -0.029  17.361  19.689  0.0957  0.0507 -0.3790
 2003DPPE   C4A45896  -0.083  17.594  19.328 -0.1913  0.0551  0.0562
 2003DPPE   C1B45897   0.548  16.719  20.706  0.0025 -0.0241  0.0671
 2003DPPE   C2B45898   0.721  16.993  20.463 -0.2296 -0.1899  0.0728
 2003DPPE   C3B45899   0.846  17.014  19.983 -0.2328 -0.1568 -0.0606
 2003DPPE   C4B45900   0.850  17.069  19.602  0.0964  0.2911 -0.0823
 2004DPPE   NH345901   5.809  28.527   7.505  0.1640  0.4121 -0.3379
 2004DPPE   PO445902   5.393  28.411   7.450 -0.2876 -0.1846  0.1656
 2004DPPE   GL145903   5.102  28.686   7.312  0.1192 -0.0207 -0.4157
 2004DPPE   GL245904   4.781  28.513   7.399  0.2487 -0.1366 -0.0423
 2004DPPE   C1A45905   5.133  29.096   7.182  0.1921  0.0400  0.3231
 2004DPPE   C2A45906   5.000  29.559   7.118  0.2760 -0.1277 -0.2347
 2004DPPE   C3A45907   4.812  29.865   6.872  0.1196 -0.0202 -0.1677
 2004DPPE   C4A45908   4.553  29.901   6.433 -0.4240 -0.0796 -0.0951
 2004DPPE   C1B45909   4.679  28.932   7.377 -0.0358 -0.0771  0.2849
 2004DPPE   C2B45910   4.564  29.404   7.262  0.2022 -0.2219 -0.2330
 2004DPPE   C3B45911   4.472  29.860   7.246  0.1574  0.0104  0.0525
 2004DPPE   C4B45912   4.241  30.271   7.241 -0.1596 -0.2186  0.3763
 2005DPPE   NH345913  33.208  15.323   1.966 -0.0451  0.1552  0.3575
 2005DPPE   PO445914  33.300  15.697   1.743 -0.1848 -0.0159  0.0756
 2005DPPE   GL145915  33.651  15.638   2.025  0.4359  0.0985  0.0562
 2005DPPE   GL245916  33.780  15.284   1.930 -0.4028 -0.2781 -0.1341
 2005DPPE   C1A45917  33.925  15.864   2.249  0.2320 -0.2867  0.4330
 2005DPPE   C2A45918  33.856  15.944   2.603 -0.0558  0.1998  0.1127
 2005DPPE   C3A45919  33.850  16.037   3.056  0.1807  0.0466 -0.2128
 2005DPPE   C4A45920  33.405  16.275   3.220  0.0261 -0.0937  0.1234
 2005DPPE   C1B45921  34.257  15.327   1.952  0.1910  0.0977  0.1730
 2005DPPE   C2B45922  34.415  15.638   2.210  0.1264  0.1311  0.0911
 2005DPPE   C3B45923  34.389  16.070   2.377 -0.2303  0.2481 -0.0622
 2005DPPE   C4B45924  34.031  16.439   2.396 -0.2058  0.0701 -0.2913
 2006DPPE   NH345925   8.019  31.355  16.899 -0.0473  0.2871 -0.2147
 2006DPPE   PO445926   8.165  31.514  16.452  0.2720 -0.1743  0.0443
 2006DPPE   GL145927   8.401  31.243  16.616 -0.2046 -0.1939 -0.0575
 2006DPPE   GL245928   8.758  31.249  16.553  0.0613  0.0732 -0.1271
 2006DPPE   C1A45929   8.403  30.797  16.739  0.0490  0.0608 -0.1529
 2006DPPE   C2A45930   8.630  30.389  16.510  0.0500 -0.1898  0.1334
 2006DPPE   C3A45931   8.924  29.889  16.313  0.0800  0.2287  0.1239
 2006DPPE   C4A45932   8.825  29.360  16.128  0.0431 -0.0374 -0.3175
 2006DPPE   C1B45933   8.977  30.824  16.646  0.1993  0.0020  0.0921
 2006DPPE   C2B45934   9.024  30.438  16.832  0.0227  0.2457  0.0791
 2006DPPE   C3B45935   8.848  29.987  16.848 -0.1921 -0.0832 -0.0549
 2006DPPE   C4B45936   8.565  29.698  16.887 -0.0022  0.1853  0.1346
 2007DPPE   NH345937   7.627  29.014  11.762 -0.0427  0.0569 -0.3518
 2007DPPE   PO445938   7.331  28.982  12.075 -0.0604 -0.0861  0.0173
 2007DPPE   GL145939   7.491  29.484  12.012 -0.3125 -0.0037  0.1787
 2007DPPE   GL245940   7.549  29.729  11.867 -0.1684 -0.2020 -0.1608
 2007DPPE   C1A45941   7.587  29.731  12.355  0.0104  0.0731  0.2166
 2007DPPE   C2A45942   7.593  30.080  12.538 -0.0594 -0.1082  0.0658
 2007DPPE   C3A45943   7.714  30.351  12.814  0.0484  0.0128 -0.0194
 2007DPPE   C4A45944   7.756  30.596  13.199  0.1621 -0.0975 -0.3180
 2007DPPE   C1B45945   7.413  30.148  11.968 -0.0635 -0.1262 -0.2865
 2007DPPE   C2B45946   7.419  30.479  11.681  0.1886 -0.2839 -0.0893
 2007DPPE   C3B45947   7.406  30.962  11.462 -0.1611  0.1272  0.0004
 2007DPPE   C4B45948   7.786  31.132  11.293 -0.2371 -0.0687  0.1956
 2008DPPE   NH345949  31.321  24.585   4.234 -0.1972  0.2734  0.0269
 2008DPPE   PO445950  31.647  24.286   4.156  0.2084  0.0531  0.1233
 2008DPPE   GL145951  31.893  24.028   4.304  0.3835  0.5452  0.0678
 2008DPPE   GL245952  31.770  23.763   4.186  0.0951 -0.2503 -0.0269
 2008DPPE   C1A45953  32.214  23.627   4.345  0.0917 -0.0843  0.2149
 2008DPPE   C2A45954  32.496  23.492   4.582 -0.1136 -0.4741 -0.2469
 2008DPPE   C3A45955  32.527  23.175   4.932 -0.0235 -0.0100 -0.1266
 2008DPPE   C4A45956  32.949  23.104   4.994 -0.0721  0.1249 -0.1655
 2008DPPE   C1B45957  32.175  23.871   3.913 -0.0272 -0.1544 -0.1298
 2008DPPE   C2B45958  32.634  23.801   3.845  0.4543 -0.2402 -0.0779
 2008DPPE   C3B45959  33.018  23.909   3.904 -0.3373  0.0423 -0.0923
 2008DPPE   C4B45960  33.362  24.186   3.981  0.0506 -0.1701 -0.2302
 2009DPPE   NH345961   1.953  18.610   7.980  0.0018  0.2146 -0.0920
 2009DPPE   PO445962   1.585  18.693   8.116  0.3055  0.1404 -0.1395
 2009DPPE   GL145963   1.282  18.440   7.928  0.0628  0.0138 -0.1340
 2009DPPE   GL245964   1.113  18.675   7.801  0.0412  0.1037  0.1868
 2009DPPE   C1A45965   1.293  18.155   7.614  0.1181  0.0313 -0.0265
 2009DPPE   C2A45966   0.975  17.952   7.405  0.0594 -0.2216 -0.2026
 2009DPPE   C3A45967   0.635  17.969   7.171  0.1368  0.4819  0.0461
 2009DPPE   C4A45968   0.362  18.098   7.139 -0.1639  0.1143  0.4199
 2009DPPE   C1B45969   0.808  18.401   7.570  0.2274 -0.0359 -0.1470
 2009DPPE   C2B45970   0.294  18.512   7.507 -0.0970  0.1250 -0.3747
 2009DPPE   C3B45971  -0.144  18.643   7.406 -0.0704  0.0588 -0.0081
 2009DPPE   C4B45972  -0.583  18.966   7.301 -0.2502  0.1336 -0.2093
 2010DPPE   NH345973   3.867  10.242   2.841 -0.3532 -0.1365  0.0184
 2010DPPE   PO445974   4.152  10.299   3.139 -0.0229  0.1664  0.5522
 2010DPPE   GL145975   3.847  10.502   3.344  0.2422 -0.0669  0.0228
 2010DPPE   GL245976   3.818  10.649   3.682 -0.0035 -0.0304  0.1026
 2010DPPE   C1A45977   3.479  10.552   3.280 -0.2021  0.0427  0.1164
 2010DPPE   C2A45978   3.089  10.716   3.247  0.1742  0.2725  0.0702
 2010DPPE   C3A45979   2.945  10.857   3.033 -0.2164 -0.0846 -0.0655
 2010DPPE   C4A45980   2.967  11.063   2.680  0.0521  0.0605  0.0998
 2010DPPE   C1B45981   4.068  10.746   4.016 -0.0649  0.3052 -0.1359
 2010DPPE   C2B45982   4.058  10.631   4.516 -0.3082 -0.1105 -0.1401
 2010DPPE   C3B45983   3.793  10.396   4.882  0.1419  0.0837 -0.0443
 2010DPPE   C4B45984   3.443  10.669   5.056 -0.0630  0.1185 -0.0375
 2011DPPE   NH345985  33.747  11.105   5.543  0.1485  0.1546 -0.0065
 2011DPPE   PO445986  33.390  11.463   5.532  0.0163 -0.1489  0.0187
 2011DPPE   GL145987  33.727  11.677   5.702  0.0607 -0.3824 -0.1476
 2011DPPE   GL245988  34.071  11.452   5.762  0.3906 -0.1033 -0.0748
 2011DPPE   C1A45989  34.028  11.887   5.975 -0.3980  0.2243  0.1566
 2011DPPE   C2A45990  34.496  11.765   6.119  0.2411  0.2429  0.4425
 2011DPPE   C3A45991  34.878  11.829   6.383  0.1701 -0.0548  0.3911
 2011DPPE   C4A45992  35.323  11.716   6.403  0.2152  0.2241  0.1673
 2011DPPE   C1B45993  34.500  11.524   5.637 -0.0975 -0.0812 -0.0311
 2011DPPE   C2B45994  34.823  11.828   5.682 -0.0329 -0.3492  0.1001
 2011DPPE   C3B45995  34.778  12.114   5.910  0.0736 -0.2174 -0.1779
 2011DPPE   C4B45996  34.674  12.222   6.176  0.1244 -0.0874  0.1818
 2012DPPE   NH345997   8.638  26.388  17.365  0.3273  0.1697  0.0097
 2012DPPE   PO445998   8.644  25.925  17.494 -0.1012  0.0333  0.2766
 2012DPPE   GL145999   9.005  26.169  17.824 -0.1580  0.1161 -0.0910
 2012DPPE   GL246000   9.189  26.425  17.696  0.1663  0.2385  0.2920
 2012DPPE   C1A46001   8.959  26.337  18.271  0.3543  0.1443 -0.3550
 2012DPPE   C2A46002   8.985  26.617  18.529  0.1801 -0.1081  0.0608
 2012DPPE   C3A46003   8.969  27.058  18.677  0.1638 -0.0973 -0.0554
 2012DPPE   C4A46004   9.129  27.421  18.522  0.1832 -0.1069  0.1394
 2012DPPE   C1B46005   9.144  26.697  18.010 -0.1544  0.2780 -0.3610
 2012DPPE   C2B46006   9.357  26.941  18.179  0.0559 -0.1058 -0.2915
 2012DPPE   C3B46007   9.505  27.145  18.500 -0.1801 -0.3303  0.3108
 2012DPPE   C4B46008   9.423  27.367  18.912 -0.1232  0.1702  0.1933
 2013DPPE   NH346009   0.064  22.649   7.064  0.2365 -0.0525 -0.0520
 2013DPPE   PO446010  -0.154  22.604   6.700 -0.1022 -0.3510 -0.0019
 2013DPPE   GL146011  -0.429  22.584   7.101  0.4915  0.1996  0.0533
 2013DPPE   GL246012  -0.345  22.390   7.368  0.0884  0.6176  0.0215
 2013DPPE   C1A46013  -0.870  22.547   7.153  0.1384 -0.0493  0.4938
 2013DPPE   C2A46014  -1.311  22.318   7.164 -0.2058 -0.0657  0.1693
 2013DPPE   C3A46015  -1.566  22.042   7.033  0.5160  0.1002  0.0249
 2013DPPE   C4A46016  -1.949  21.943   6.903 -0.0579 -0.0974 -0.1348
 2013DPPE   C1B46017  -0.261  21.948   7.506 -0.1171  0.1308 -0.3442
 2013DPPE   C2B46018  -0.501  21.634   7.360  0.1396  0.2441  0.1223
 2013DPPE   C3B46019  -0.912  21.481   7.177 -0.0487  0.0855  0.1515
 2013DPPE   C4B46020  -1.094  21.742   6.833 -0.3641  0.0383  0.0281
 2014DPPE   NH346021   3.766  16.199  16.533  0.0515  0.2221  0.1391
 2014DPPE   PO446022   3.531  16.554  16.734 -0.3602 -0.1119  0.0742
 2014DPPE   GL146023   3.154  16.236  16.711 -0.0949  0.0288  0.1379
 2014DPPE   GL246024   2.958  16.587  16.701  0.1396 -0.0108 -0.1439
 2014DPPE   C1A46025   3.052  15.983  17.014  0.1345 -0.3185  0.2213
 2014DPPE   C2A46026   2.809  15.818  17.224 -0.0581 -0.1168 -0.3545
 2014DPPE   C3A46027   2.836  15.819  17.717  0.1722  0.3126 -0.1328
 2014DPPE   C4A46028   2.669  15.502  17.962  0.2184  0.2127 -0.1162
 2014DPPE   C1B46029   2.548  16.376  16.586 -0.1760 -0.0315 -0.3016
 2014DPPE   C2B46030   2.751  16.011  16.509 -0.0935  0.3451 -0.0385
 2014DPPE   C3B46031   2.724  15.556  16.386  0.1873 -0.4163 -0.0893
 2014DPPE   C4B46032   2.773  15.108  16.483  0.0605  0.1691 -0.1516
 2015DPPE   NH346033  16.190  28.647   8.894  0.1313 -0.1360  0.3227
 2015DPPE   PO446034  16.534  28.431   9.129 -0.0399  0.1423 -0.1660
 2015DPPE   GL146035  16.297  28.054   9.085 -0.4285  0.1771 -0.1019
 2015DPPE   GL246036  16.047  28.086   9.382  0.3476  0.0680  0.2119
 2015DPPE   C1A46037  16.177  27.708   9.075 -0.2414 -0.0839 -0.2347
 2015DPPE   C2A46038  16.173  27.361   9.290  0.1277 -0.0564 -0.2208
 2015DPPE   C3A46039  15.848  27.267   9.672 -0.0755 -0.0886  0.1544
 2015DPPE   C4A46040  15.605  26.924   9.939  0.4574 -0.2168  0.2466
 2015DPPE   C1B46041  15.689  27.797   9.522  0.2235 -0.0424  0.2373
 2015DPPE   C2B46042  15.407  27.399   9.584  0.0149  0.1505  0.3211
 2015DPPE   C3B46043  15.113  27.031   9.657  0.0599  0.2116  0.0823
 2015DPPE   C4B46044  15.199  26.630   9.906 -0.0414  0.1281 -0.0559
 2016DPPE   NH346045   0.589  21.359   7.791  0.0417 -0.0817  0.1378
 2016DPPE   PO446046   0.636  21.062   8.150  0.1049 -0.2539 -0.3444
 2016DPPE   GL146047   0.262  20.900   7.782 -0.1309 -0.0989  0.0709
 2016DPPE   GL246048   0.132  21.276   7.574 -0.4021  0.5933 -0.1705
 2016DPPE   C1A46049  -0.121  20.860   7.529 -0.1221 -0.2556  0.0577
 2016DPPE   C2A46050  -0.464  20.986   7.367 -0.0494 -0.0758 -0.1870
 2016DPPE   C3A46051  -0.954  21.016   7.364 -0.0045  0.0816  0.0284
 2016DPPE   C4A46052  -1.268  21.163   6.975  0.0172 -0.2065 -0.0505
 2016DPPE   C1B46053  -0.147  21.336   7.273  0.0907  0.4298  0.2387
 2016DPPE   C2B46054  -0.347  21.530   6.901  0.1029 -0.1741 -0.0756
 2016DPPE   C3B46055  -0.648  21.517   6.649 -0.0227  0.3975  0.1805
 2016DPPE   C4B46056  -1.124  21.374   6.489  0.1958 -0.4693 -0.4670
 2017DPPE   NH346057   1.546  14.216  21.011  0.2725 -0.0331  0.1057
 2017DPPE   PO446058   1.132  14.455  21.115 -0.0784 -0.2536  0.3408
 2017DPPE   GL146059   1.192  14.384  20.669 -0.3132  0.2519  0.1248
 2017DPPE   GL246060   1.281  14.037  20.655 -0.1064 -0.0478 -0.0750
 2017DPPE   C1A46061   1.273  14.481  20.339  0.0063  0.0038  0.0845
 2017DPPE   C2A46062   1.532  14.741  20.082  0.0842 -0.0504 -0.0886
 2017DPPE   C3A46063   1.467  14.809  19.639 -0.1226  0.3912  0.2504
 2017DPPE   C4A46064   1.405  14.985  19.243 -0.0096 -0.1581  0.2121
 2017DPPE   C1B46065   1.102  14.039  20.265  0.2091  0.1115 -0.1676
 2017DPPE   C2B46066   0.831  14.107  19.902 -0.4407  0.3178 -0.0202
 2017DPPE   C3B46067   0.529  14.415  19.613 -0.4179  0.1172 -0.2907
 2017DPPE   C4B46068   0.558  14.756  19.396  0.5054 -0.1637  0.0145
 2018DPPE   NH346069  36.403  26.164  17.163  0.1165  0.1495 -0.0199
 2018DPPE   PO446070  36.299  25.888  17.552  0.2131  0.2449 -0.1993
 2018DPPE   GL146071  36.686  25.789  17.315  0.1215  0.4419 -0.4114
 2018DPPE   GL246072  36.794  25.433  17.382 -0.2968  0.0652 -0.0138
 2018DPPE   C1A46073  37.165  25.717  17.132  0.0554  0.1590 -0.2347
 2018DPPE   C2A46074  37.382  25.371  17.190  0.2204  0.3552  0.1226
 2018DPPE   C3A46075  37.554  24.909  17.191 -0.0373  0.3474  0.2000
 2018DPPE   C4A46076  37.872  24.554  17.094  0.0582 -0.4730 -0.3424
 2018DPPE   C1B46077  36.589  25.000  17.173 -0.0773  0.1816 -0.0749
 2018DPPE   C2B46078  36.409  25.105  16.773  0.0929 -0.0702  0.0404
 2018DPPE   C3B46079  36.581  25.259  16.334 -0.2112  0.1401 -0.4104
 2018DPPE   C4B46080  36.420  25.210  15.899 -0.0188  0.0530 -0.3710
 2019DPPE   NH346081   4.701  32.286   6.786  0.1152 -0.2843  0.0094
 2019DPPE   PO446082   4.836  32.411   6.360  0.0485  0.2072 -0.3043
 2019DPPE   GL146083   5.185  32.141   6.428 -0.0660  0.0390  0.0522
 2019DPPE   GL246084   5.079  31.934   6.694  0.2063  0.1289 -0.1078
 2019DPPE   C1A46085   5.430  31.717   6.424 -0.0317 -0.0759  0.2042
 2019DPPE   C2A46086   5.502  31.368   6.543 -0.1604 -0.0650  0.1985
 2019DPPE   C3A46087   5.659  30.945   6.553 -0.1151  0.1228 -0.0484
 2019DPPE   C4A46088   5.672  30.504   6.628  0.3833 -0.0244 -0.1799
 2019DPPE   C1B46089   5.364  31.745   6.882 -0.0380 -0.2689  0.2386
 2019DPPE   C2B46090   5.580  31.462   7.137  0.1204  0.1617  0.2063
 2019DPPE   C3B46091   5.868  31.127   7.040  0.1052 -0.2322  0.1053
 2019DPPE   C4B46092   5.991  30.750   6.935 -0.3351 -0.1063  0.2181
 2020DPPE   NH346093  33.182  14.030   3.200  0.2167 -0.3635  0.0044
 2020DPPE   PO446094  33.487  13.724   3.244  0.2103  0.0368  0.0218
 2020DPPE   GL146095  33.852  13.804   3.402 -0.2520  0.1635  0.0069
 2020DPPE   GL246096  33.892  13.609   3.638 -0.3770  0.1501  0.0640
 2020DPPE   C1A46097  34.113  14.145   3.490  0.3835 -0.0969  0.0826
 2020DPPE   C2A46098  34.353  14.536   3.492  0.1386  0.1252 -0.1062
 2020DPPE   C3A46099  34.396  14.918   3.712 -0.0917 -0.0497  0.0220
 2020DPPE   C4A46100  34.830  14.988   3.769 -0.0611  0.1356  0.3225
 2020DPPE   C1B46101  34.307  13.777   3.826 -0.1450  0.1920 -0.1254
 2020DPPE   C2B46102  34.695  13.516   3.763 -0.0730  0.3709 -0.1634
 2020DPPE   C3B46103  35.186  13.373   3.745 -0.1129 -0.2790 -0.0264
 2020DPPE   C4B46104  35.456  13.124   4.019 -0.1579 -0.1249  0.1026
 2021DPPE   NH346105   7.755  27.627  15.069 -0.3633  0.0425 -0.1646
 2021DPPE   PO446106   7.426  27.873  15.148  0.2588  0.0615 -0.2336
 2021DPPE   GL146107   7.392  28.251  15.473  0.0932  0.0811  0.0056
 2021DPPE   GL246108   7.071  28.221  15.680 -0.0502 -0.1003  0.1838
 2021DPPE   C1A46109   7.549  28.561  15.657  0.3652 -0.0184 -0.0806
 2021DPPE   C2A46110   7.680  28.708  16.068  0.4402 -0.1323 -0.2572
 2021DPPE   C3A46111   7.636  28.729  16.504 -0.0720  0.1135  0.0938
 2021DPPE   C4A46112   7.420  28.738  16.889 -0.2855  0.1027  0.2535
 2021DPPE   C1B46113   7.122  28.563  15.898 -0.0410 -0.2379  0.1731
 2021DPPE   C2B46114   6.929  28.894  15.983  0.0216 -0.2248  0.0667
 2021DPPE   C3B46115   7.007  29.408  15.956 -0.2646 -0.0793  0.1393
 2021DPPE   C4B46116   7.074  29.636  15.601 -0.1037  0.1169  0.1269
 2022DPPE   NH346117  30.256  25.175   8.554 -0.0178 -0.0958 -0.0453
 2022DPPE   PO446118  30.570  25.450   8.530  0.0010  0.0463 -0.1385
 2022DPPE   GL146119  31.011  25.538   8.677  0.0599 -0.1588  0.1670
 2022DPPE   GL246120  30.910  25.362   8.941  0.0031 -0.4128  0.1477
 2022DPPE   C1A46121  31.427  25.493   8.885  0.2129 -0.1375  0.0333
 2022DPPE   C2A46122  31.844  25.433   8.922  0.0336 -0.1292 -0.0382
 2022DPPE   C3A46123  32.170  25.247   8.618 -0.1583  0.0997 -0.0143
 2022DPPE   C4A46124  32.267  25.400   8.200 -0.0415 -0.0995 -0.1071
 2022DPPE   C1B46125  31.194  25.075   8.791  0.0498 -0.2862 -0.1466
 2022DPPE   C2B46126  31.226  24.692   8.676 -0.0081  0.0668  0.2174
 2022DPPE   C3B46127  31.609  24.381   8.537 -0.1344  0.0999 -0.0021
 2022DPPE   C4B46128  32.016  24.399   8.342 -0.1521  0.1892 -0.0116
 2023DPPE   NH346129  10.933  32.017   8.747 -0.1914 -0.1340  0.2998
 2023DPPE   PO446130  11.010  32.059   8.177  0.0858  0.3979  0.0335
 2023DPPE   GL146131  10.596  31.917   8.273  0.3366  0.1344  0.2362
 2023DPPE   GL246132  10.498  31.961   8.630 -0.0806 -0.0059  0.1081
 2023DPPE   C1A46133  10.130  31.851   8.136 -0.0772  0.3821 -0.2814
 2023DPPE   C2A46134   9.706  31.952   8.083 -0.1183 -0.1891 -0.0735
 2023DPPE   C3A46135   9.337  32.138   7.774 -0.0668 -0.2346 -0.0908
 2023DPPE   C4A46136   8.988  32.436   7.767  0.1603  0.2622  0.0524
 2023DPPE   C1B46137  10.289  31.602   8.626  0.0562  0.0797 -0.2895
 2023DPPE   C2B46138  10.408  31.269   8.580 -0.3809 -0.2879  0.1677
 2023DPPE   C3B46139  10.254  30.926   8.403  0.1000 -0.0806  0.0944
 2023DPPE   C4B46140  10.319  30.715   8.182  0.3972 -0.1386  0.3656
 2024DPPE   NH346141   1.161  18.641  25.996  0.0509 -0.1380  0.3881
 2024DPPE   PO446142   1.104  18.217  26.074 -0.0941 -0.0727 -0.0671
 2024DPPE   GL146143   1.392  18.041  26.283 -0.1555 -0.0350 -0.1349
 2024DPPE   GL246144   1.604  18.125  26.102  0.0149 -0.0652  0.2106
 2024DPPE   C1A46145   1.423  18.008  26.657 -0.1705 -0.0126  0.0259
 2024DPPE   C2A46146   1.426  18.095  27.109  0.1858 -0.1321 -0.2270
 2024DPPE   C3A46147   1.616  18.452  27.289  0.0053  0.2875 -0.0980
 2024DPPE   C4A46148   1.493  18.649  27.653 -0.0651  0.3583  0.2438
 2024DPPE   C1B46149   1.770  18.356  26.458 -0.1642  0.0733  0.0624
 2024DPPE   C2B46150   1.932  18.394  26.896 -0.1765 -0.1045 -0.1362
 2024DPPE   C3B46151   2.416  18.381  26.962 -0.3101  0.3070 -0.0108
 2024DPPE   C4B46152   2.768  18.540  26.913 -0.1687 -0.0754 -0.1908
 2025DPPE   NH346153   8.571  17.943  16.981 -0.1525 -0.1650  0.0614
 2025DPPE   PO446154   8.589  17.992  17.429 -0.1183 -0.0720  0.0546
 2025DPPE   GL146155   8.414  17.629  17.717 -0.2102 -0.0177 -0.0199
 2025DPPE   GL246156   8.130  17.663  17.931 -0.0534  0.0037 -0.0158
 2025DPPE   C1A46157   8.618  17.349  17.872  0.0895 -0.0206  0.2590
 2025DPPE   C2A46158   8.868  16.983  18.013 -0.0815  0.0356 -0.2059
 2025DPPE   C3A46159   9.219  16.703  18.148 -0.0340  0.2199 -0.0834
 2025DPPE   C4A46160   9.335  16.258  18.416  0.2775 -0.0192 -0.0112
 2025DPPE   C1B46161   8.383  17.572  18.248 -0.0831 -0.0902 -0.2619
 2025DPPE   C2B46162   8.630  17.217  18.363  0.2812  0.0457 -0.0594
 2025DPPE   C3B46163   8.676  17.027  18.729  0.0129  0.1388  0.0866
 2025DPPE   C4B46164   8.479  16.714  18.963 -0.5604  0.0757 -0.2633
 2026DPPE   NH346165   2.155  18.750  16.635 -0.2055 -0.1016 -0.1384
 2026DPPE   PO446166   2.032  18.391  16.374 -0.0655 -0.1875 -0.1226
 2026DPPE   GL146167   1.649  18.139  16.465 -0.0629  0.0056 -0.1516
 2026DPPE   GL246168   1.701  18.104  16.135 -0.0147  0.0762 -0.1193
 2026DPPE   C1A46169   1.389  18.083  16.816 -0.1065 -0.2226 -0.0848
 2026DPPE   C2A46170   1.132  18.073  17.088 -0.0326  0.0908 -0.0413
 2026DPPE   C3A46171   0.729  17.840  17.064  0.1736 -0.2078 -0.0225
 2026DPPE   C4A46172   0.469  17.753  17.449 -0.1222  0.0408 -0.2974
 2026DPPE   C1B46173   1.364  17.947  16.002  0.1128  0.0533 -0.1490
 2026DPPE   C2B46174   1.001  17.798  15.634  0.0869  0.3245  0.3609
 2026DPPE   C3B46175   0.779  17.364  15.439  0.2910  0.0992  0.2388
 2026DPPE   C4B46176   0.642  16.976  15.558 -0.0834 -0.2262 -0.2510
 2027DPPE   NH346177   7.558  29.279  10.910  0.1168 -0.1718 -0.0129
 2027DPPE   PO446178   7.834  29.042  11.211 -0.0159  0.0592  0.2343
 2027DPPE   GL146179   7.968  29.425  11.304  0.0314 -0.0460  0.2106
 2027DPPE   GL246180   7.740  29.701  11.149  0.2500  0.0992  0.1376
 2027DPPE   C1A46181   8.040  29.756  11.548 -0.2647 -0.1130  0.0008
 2027DPPE   C2A46182   8.398  30.013  11.730 -0.0253  0.2998  0.0846
 2027DPPE   C3A46183   8.799  30.239  11.598  0.3585  0.1618 -0.3054
 2027DPPE   C4A46184   9.167  30.439  11.746  0.0165  0.1247 -0.2593
 2027DPPE   C1B46185   8.038  30.124  11.171  0.2795 -0.2282  0.3637
 2027DPPE   C2B46186   8.359  30.464  11.361 -0.2533 -0.4513  0.5200
 2027DPPE   C3B46187   8.273  30.958  11.284 -0.2509 -0.0828  0.3491
 2027DPPE   C4B46188   8.357  31.376  11.100 -0.0334  0.3171 -0.1168
 2028DPPE   NH346189   5.201  29.940  18.816  0.2548  0.2089  0.0714
 2028DPPE   PO446190   4.827  29.676  18.840  0.3552 -0.1173  0.1246
 2028DPPE   GL146191   5.035  29.612  18.476  0.2370 -0.0456  0.3339
 2028DPPE   GL246192   5.431  29.558  18.508 -0.0155 -0.0524 -0.6295
 2028DPPE   C1A46193   5.212  29.539  18.037 -0.2020 -0.0799 -0.0259
 2028DPPE   C2A46194   5.339  29.119  17.897 -0.3691 -0.3870 -0.0595
 2028DPPE   C3A46195   5.561  28.919  17.604  0.2834  0.2416 -0.4419
 2028DPPE   C4A46196   5.998  28.994  17.375 -0.1411 -0.1503 -0.1614
 2028DPPE   C1B46197   5.276  29.135  18.400  0.0050 -0.2209 -0.0096
 2028DPPE   C2B46198   4.864  29.110  18.225 -0.0939 -0.2609 -0.0754
 2028DPPE   C3B46199   4.459  29.051  18.296 -0.3628 -0.1198 -0.0941
 2028DPPE   C4B46200   4.230  28.929  18.609  0.1116  0.0001 -0.1668
 2029DPPE   NH346201   3.581  15.284   0.024  0.1559  0.0178  0.1058
 2029DPPE   PO446202   3.327  15.621  -0.010  0.3762  0.2030 -0.3539
 2029DPPE   GL146203   3.285  15.794   0.453  0.0549  0.2716 -0.1120
 2029DPPE   GL246204   3.265  15.430   0.658 -0.3306 -0.1135  0.0286
 2029DPPE   C1A46205   3.055  15.898   0.847 -0.2740 -0.1988 -0.1588
 2029DPPE   C2A46206   2.960  16.032   1.263  0.2470  0.4781  0.0660
 2029DPPE   C3A46207   2.975  16.251   1.670 -0.1486 -0.2739  0.3411
 2029DPPE   C4A46208   2.964  16.159   1.965 -0.1937  0.0718 -0.0182
 2029DPPE   C1B46209   3.590  15.656   0.903  0.1959  0.2282  0.2013
 2029DPPE   C2B46210   3.623  16.071   0.911  0.0424  0.2073 -0.0693
 2029DPPE   C3B46211   3.619  16.235   1.404  0.0090  0.0730  0.0043
 2029DPPE   C4B46212   3.539  16.308   1.875 -0.3535 -0.1011 -0.0788
 2030DPPE   NH346213  18.133  16.475  11.587 -0.0556  0.1345  0.0527
 2030DPPE   PO446214  18.122  16.825  11.248  0.3822  0.0716  0.1682
 2030DPPE   GL146215  17.887  16.800  10.910  0.0210  0.1759  0.1298
 2030DPPE   GL246216  17.793  16.643  10.607  0.3615  0.1345  0.1470
 2030DPPE   C1A46217  17.832  17.137  10.548  0.2612 -0.0995 -0.0367
 2030DPPE   C2A46218  17.355  17.233  10.437  0.1010 -0.0421 -0.0011
 2030DPPE   C3A46219  17.113  17.226  10.718  0.1210 -0.0549  0.0501
 2030DPPE   C4A46220  16.731  17.128  10.940  0.0073 -0.1079  0.2220
 2030DPPE   C1B46221  17.382  16.788  10.760 -0.1763  0.0074  0.1233
 2030DPPE   C2B46222  17.120  16.792  10.585 -0.1989  0.1265 -0.2842
 2030DPPE   C3B46223  16.649  16.822  10.573 -0.1318  0.2219 -0.0524
 2030DPPE   C4B46224  16.219  16.939  10.492  0.1595 -0.0060 -0.0471
 2031DPPE   NH346225   4.794  29.335   1.799 -0.1513 -0.0191 -0.1587
 2031DPPE   PO446226   5.365  29.378   2.065 -0.2124  0.0833 -0.2588
 2031DPPE   GL146227   5.364  28.902   2.291 -0.0756 -0.0355  0.1997
 2031DPPE   GL246228   5.642  28.936   2.470 -0.0920  0.1907 -0.0068
 2031DPPE   C1A46229   5.294  28.625   2.735 -0.1476  0.0158  0.2669
 2031DPPE   C2A46230   5.357  28.150   2.720  0.1675 -0.1952 -0.0463
 2031DPPE   C3A46231   5.231  27.740   2.649  0.1247 -0.3069  0.2520
 2031DPPE   C4A46232   5.279  27.301   2.810 -0.0302 -0.0775  0.1009
 2031DPPE   C1B46233   5.774  28.986   2.822 -0.3985  0.2389 -0.0655
 2031DPPE   C2B46234   5.634  28.906   3.176 -0.0677  0.0478 -0.2218
 2031DPPE   C3B46235   5.611  28.824   3.676  0.0489  0.0318 -0.0260
 2031DPPE   C4B46236   5.870  28.483   3.873 -0.4473  0.2361  0.2730
 2032DPPE   NH346237   3.770  15.476   6.412 -0.0755  0.3448 -0.1542
 2032DPPE   PO446238   3.837  15.736   6.115  0.1069  0.3034  0.0283
 2032DPPE   GL146239   3.411  15.627   5.969  0.0690  0.0007 -0.2066
 2032DPPE   GL246240   3.342  15.302   6.089 -0.2068  0.4066  0.3245
 2032DPPE   C1A46241   2.936  15.792   5.766 -0.0874 -0.0295  0.1663
 2032DPPE   C2A46242   2.554  15.754   5.546  0.2006 -0.0383  0.2035
 2032DPPE   C3A46243   2.375  15.349   5.317 -0.0735  0.1290  0.1495
 2032DPPE   C4A46244   2.251  14.877   5.225  0.1262  0.1319  0.0538
 2032DPPE   C1B46245   3.175  15.302   5.622  0.1641 -0.0279 -0.0824
 2032DPPE   C2B46246   3.094  15.627   5.366  0.0593 -0.0293 -0.1247
 2032DPPE   C3B46247   2.933  16.031   5.229  0.0197 -0.0212  0.2509
 2032DPPE   C4B46248   2.697  16.277   5.533  0.2112 -0.2153 -0.4325
 2033DPPE   NH346249   2.825   6.609  13.490  0.3688 -0.0473 -0.1143
 2033DPPE   PO446250   3.336   6.665  13.403  0.1645  0.0034 -0.4215
 2033DPPE   GL146251   3.080   6.935  13.180 -0.0052  0.1992  0.0983
 2033DPPE   GL246252   3.114   6.900  12.895  0.1062  0.3122  0.0369
 2033DPPE   C1A46253   2.749   7.202  12.934  0.2708  0.4172  0.0119
 2033DPPE   C2A46254   2.459   7.523  12.747 -0.2067  0.0816  0.1865
 2033DPPE   C3A46255   2.397   7.959  12.956  0.0925 -0.2912  0.1588
 2033DPPE   C4A46256   2.427   8.421  13.016 -0.1562 -0.0090 -0.0608
 2033DPPE   C1B46257   3.253   7.366  12.814  0.0087  0.0883  0.1707
 2033DPPE   C2B46258   3.215   7.809  12.871  0.0063  0.2477 -0.2644
 2033DPPE   C3B46259   2.969   8.080  13.024  0.2703 -0.0702  0.1489
 2033DPPE   C4B46260   2.882   8.376  12.943 -0.0609 -0.0163 -0.2969
 2034DPPE   NH346261  30.768  14.570  11.098 -0.0380  0.0756 -0.3228
 2034DPPE   PO446262  30.832  14.308  11.504  0.0603 -0.1804 -0.0229
 2034DPPE   GL146263  31.051  14.705  11.577  0.1799  0.3875 -0.1361
 2034DPPE   GL246264  30.952  15.019  11.361 -0.0594 -0.1118  0.1227
 2034DPPE   C1A46265  31.451  14.783  11.531  0.1596  0.0009  0.0503
 2034DPPE   C2A46266  31.818  15.034  11.699  0.1374  0.1729 -0.0942
 2034DPPE   C3A46267  32.102  15.471  11.836 -0.0194 -0.0910  0.0389
 2034DPPE   C4A46268  32.519  15.367  11.889 -0.0378  0.0886 -0.2651
 2034DPPE   C1B46269  31.223  15.293  11.436  0.1323  0.0426  0.2648
 2034DPPE   C2B46270  31.731  15.401  11.381 -0.0023  0.3367  0.1357
 2034DPPE   C3B46271  32.124  15.594  11.340 -0.0786 -0.1209 -0.3728
 2034DPPE   C4B46272  32.536  15.669  11.415  0.3371 -0.0160 -0.2690
 2035DPPE   NH346273   1.312  19.357  15.065  0.1816 -0.0492  0.1821
 2035DPPE   PO446274   1.044  19.570  15.010 -0.1762  0.0870 -0.3116
 2035DPPE   GL146275   0.667  19.583  15.194 -0.1238 -0.3123  0.0177
 2035DPPE   GL246276   0.562  19.548  15.621 -0.2678  0.0433  0.0798
 2035DPPE   C1A46277   0.237  19.526  15.225 -0.2030 -0.2206 -0.0630
 2035DPPE   C2A46278  -0.044  19.320  15.382  0.0792  0.0456  0.0443
 2035DPPE   C3A46279  -0.061  18.878  15.551  0.2123  0.1507  0.3511
 2035DPPE   C4A46280  -0.425  18.678  15.724 -0.2201  0.0618 -0.1886
 2035DPPE   C1B46281   0.460  19.427  15.905  0.1172 -0.2619 -0.0896
 2035DPPE   C2B46282   0.341  19.286  16.312 -0.0284  0.1084 -0.3514
 2035DPPE   C3B46283   0.244  19.486  16.753 -0.1832 -0.0299  0.4709
 2035DPPE   C4B46284   0.304  19.546  17.152  0.0562 -0.0113  0.1757
 2036DPPE   NH346285   4.443  14.525  11.174 -0.0440 -0.2532 -0.3373
 2036DPPE   PO446286   4.457  14.567  10.792  0.2592 -0.0802  0.1626
 2036DPPE   GL146287   4.180  14.129  10.586  0.1351  0.1715  0.0783
 2036DPPE   GL246288   4.160  13.859  10.393  0.3540  0.1270  0.0906
 2036DPPE   C1A46289   3.752  14.174  10.405  0.1815  0.1770  0.0714
 2036DPPE   C2A46290   3.353  14.281  10.399  0.1123  0.3154  0.1892
 2036DPPE   C3A46291   2.938  14.278  10.214 -0.0984 -0.2799 -0.0249
 2036DPPE   C4A46292   2.629  14.618  10.095  0.2238 -0.1262  0.0112
 2036DPPE   C1B46293   4.096  13.745   9.946 -0.0973  0.2166  0.0542
 2036DPPE   C2B46294   3.818  13.482   9.733 -0.1812  0.2116  0.1612
 2036DPPE   C3B46295   3.407  13.557   9.715  0.0265  0.2208  0.0448
 2036DPPE   C4B46296   3.034  13.252   9.917  0.2584 -0.1944 -0.0319
 2037DPPE   NH346297   0.805  18.365   9.090 -0.1350 -0.0505 -0.0148
 2037DPPE   PO446298   1.064  18.114   8.899 -0.2328  0.1583 -0.2085
 2037DPPE   GL146299   0.823  17.824   9.089 -0.0692 -0.0971  0.0289
 2037DPPE   GL246300   0.557  17.875   9.058 -0.1115  0.3170  0.1493
 2037DPPE   C1A46301   0.582  17.531   8.702  0.0017  0.0016  0.0285
 2037DPPE   C2A46302   0.215  17.353   8.611  0.2536  0.0100 -0.0433
 2037DPPE   C3A46303  -0.057  17.148   8.892  0.1556 -0.0749  0.1955
 2037DPPE   C4A46304  -0.372  16.905   8.662  0.2208 -0.1884  0.0071
 2037DPPE   C1B46305   0.264  17.521   9.107 -0.0820 -0.2831  0.1678
 2037DPPE   C2B46306   0.154  17.217   9.464  0.0196  0.2686  0.0765
 2037DPPE   C3B46307  -0.166  17.055   9.676 -0.2654 -0.1222 -0.1429
 2037DPPE   C4B46308  -0.529  16.974   9.711 -0.0925  0.0666 -0.0279
 2038DPPE   NH346309  11.840  31.649  13.670 -0.0938 -0.1726  0.1624
 2038DPPE   PO446310  11.918  31.864  13.394  0.0239 -0.2894  0.1042
 2038DPPE   GL146311  11.642  31.612  13.196 -0.3523  0.0417 -0.0236
 2038DPPE   GL246312  11.689  31.351  13.001  0.1971  0.0396  0.1387
 2038DPPE   C1A46313  11.198  31.465  13.003 -0.1853 -0.2088 -0.0574
 2038DPPE   C2A46314  11.342  31.196  12.621  0.2313 -0.0323  0.0019
 2038DPPE   C3A46315  11.105  30.921  12.309  0.0661 -0.0815 -0.0945
 2038DPPE   C4A46316  11.201  30.538  12.260  0.3015  0.0162 -0.1533
 2038DPPE   C1B46317  11.663  30.916  12.884  0.0729 -0.4610  0.5346
 2038DPPE   C2B46318  11.483  30.388  12.902 -0.1613 -0.3705 -0.0920
 2038DPPE   C3B46319  11.008  30.148  13.042 -0.0797 -0.1312 -0.0299
 2038DPPE   C4B46320  10.758  29.993  13.279 -0.0061 -0.0348  0.2673
 2039DPPE   NH346321  34.402  15.532   0.556 -0.1598 -0.0659  0.2557
 2039DPPE   PO446322  34.595  15.151   0.392  0.2759  0.4203 -0.1837
 2039DPPE   GL146323  34.844  15.340   0.728 -0.1044  0.1749 -0.0962
 2039DPPE   GL246324  35.175  15.232   0.632  0.0487 -0.2970 -0.4627
 2039DPPE   C1A46325  34.904  15.336   1.195 -0.0019  0.1541  0.1596
 2039DPPE   C2A46326  35.036  15.548   1.520 -0.0061 -0.0768  0.0671
 2039DPPE   C3A46327  35.481  15.529   1.690  0.4460  0.0328 -0.1864
 2039DPPE   C4A46328  35.750  15.486   1.989  0.0677 -0.5567 -0.0882
 2039DPPE   C1B46329  35.384  15.249   0.939  0.3693 -0.1847 -0.2517
 2039DPPE   C2B46330  35.667  15.246   1.289 -0.2553  0.3049  0.1315
 2039DPPE   C3B46331  36.029  15.261   1.593  0.0547  0.2789  0.0366
 2039DPPE   C4B46332  36.309  15.084   1.795 -0.1762  0.2781 -0.2012
 2040DPPE   NH346333   0.852  18.398  12.378 -0.1179  0.2006  0.0793
 2040DPPE   PO446334   0.859  17.918  12.530 -0.0007  0.1035 -0.2234
 2040DPPE   GL146335   0.395  17.767  12.578 -0.2425 -0.1154 -0.1251
 2040DPPE   GL246336   0.459  17.522  12.887  0.0182  0.0339  0.1380
 2040DPPE   C1A46337   0.061  17.538  12.515 -0.1120 -0.3085  0.0775
 2040DPPE   C2A46338  -0.212  17.234  12.578 -0.0657  0.0299 -0.1292
 2040DPPE   C3A46339  -0.495  17.279  12.829 -0.1079  0.0069  0.2804
 2040DPPE   C4A46340  -0.705  17.289  13.200 -0.0764  0.2040  0.1944
 2040DPPE   C1B46341   0.226  17.202  12.888  0.1166 -0.0716 -0.1873
 2040DPPE   C2B46342   0.105  16.878  12.603 -0.3808 -0.3187 -0.3452
 2040DPPE   C3B46343  -0.284  16.608  12.461  0.1344  0.1389  0.1124
 2040DPPE   C4B46344  -0.199  16.171  12.518  0.0969  0.0346 -0.0905
 2041DPPE   NH346345  14.267  28.076   3.798 -0.1591  0.1160 -0.2000
 2041DPPE   PO446346  14.035  27.924   3.437 -0.0901 -0.0301 -0.2213
 2041DPPE   GL146347  14.011  27.590   3.593 -0.0582  0.0400  0.2538
 2041DPPE   GL246348  14.077  27.212   3.486 -0.0196 -0.0644 -0.3101
 2041DPPE   C1A46349  13.598  27.447   3.792 -0.2101 -0.0053 -0.0465
 2041DPPE   C2A46350  13.180  27.329   3.889 -0.1392 -0.0034  0.3122
 2041DPPE   C3A46351  12.739  27.396   4.034 -0.3955  0.0927  0.2024
 2041DPPE   C4A46352  12.343  27.359   3.959 -0.1399  0.0363 -0.2264
 2041DPPE   C1B46353  13.965  26.971   3.838  0.1591 -0.2709  0.1560
 2041DPPE   C2B46354  13.824  26.736   4.151 -0.0163  0.0834 -0.3178
 2041DPPE   C3B46355  13.542  26.608   4.376 -0.0923 -0.0580 -0.1222
 2041DPPE   C4B46356  13.331  26.233   4.624  0.2624  0.0271 -0.3528
 2042DPPE   NH346357  37.885  10.432  19.112  0.0894 -0.0615  0.4036
 2042DPPE   PO446358  38.127  10.268  18.868  0.0495  0.0193  0.1369
 2042DPPE   GL146359  37.884  10.592  18.608  0.1996  0.0104 -0.0793
 2042DPPE   GL246360  37.501  10.596  18.668  0.2262 -0.1080  0.0467
 2042DPPE   C1A46361  37.763  11.030  18.521  0.1604  0.3241  0.0376
 2042DPPE   C2A46362  38.020  11.308  18.469  0.1858  0.1205  0.0114
 2042DPPE   C3A46363  38.254  11.501  18.264 -0.0465 -0.3594  0.1515
 2042DPPE   C4A46364  38.457  11.779  18.008 -0.0614 -0.2799 -0.1974
 2042DPPE   C1B46365  37.452  10.719  18.227 -0.1304  0.1361 -0.2485
 2042DPPE   C2B46366  37.368  11.128  18.113 -0.2586  0.1905  0.1732
 2042DPPE   C3B46367  37.373  11.536  17.971 -0.1132 -0.2299  0.0513
 2042DPPE   C4B46368  37.528  11.902  17.972 -0.2804 -0.1820  0.2252
 2043DPPE   NH346369   8.446  32.338  14.687 -0.2378  0.1591 -0.0773
 2043DPPE   PO446370   8.676  32.216  15.015 -0.1767 -0.0552 -0.0481
 2043DPPE   GL146371   8.472  31.855  14.911  0.0126  0.0803 -0.1152
 2043DPPE   GL246372   8.358  31.712  15.158  0.1869 -0.1383 -0.1845
 2043DPPE   C1A46373   7.998  31.782  14.689 -0.0811  0.0692 -0.0808
 2043DPPE   C2A46374   7.759  32.027  14.444 -0.2919  0.1593 -0.0983
 2043DPPE   C3A46375   7.612  31.756  14.102  0.0855 -0.0745  0.0237
 2043DPPE   C4A46376   7.587  31.227  13.959 -0.1009 -0.0150  0.0585
 2043DPPE   C1B46377   8.166  31.358  15.045  0.1298  0.0289  0.4767
 2043DPPE   C2B46378   7.986  30.993  14.821  0.3008  0.1257 -0.1182
 2043DPPE   C3B46379   7.854  30.602  14.610  0.2613  0.3233  0.0977
 2043DPPE   C4B46380   7.985  30.315  14.608 -0.3808 -0.1301 -0.0028
 2044DPPE   NH346381   3.307  27.795  11.654 -0.0117  0.2804 -0.1168
 2044DPPE   PO446382   3.272  27.989  12.023  0.0706 -0.0826  0.0562
 2044DPPE   GL146383   3.299  28.435  12.038  0.1526  0.4495 -0.1794
 2044DPPE   GL246384   3.118  28.546  12.308 -0.0676 -0.1323 -0.0292
 2044DPPE   C1A46385   3.085  28.825  11.917 -0.0771  0.3271  0.0406
 2044DPPE   C2A46386   2.794  29.011  11.865  0.1785  0.1078 -0.1507
 2044DPPE   C3A46387   2.397  29.277  11.678  0.1503  0.1156  0.1190
 2044DPPE   C4A46388   2.052  29.262  11.371  0.1132  0.1264  0.0283
 2044DPPE   C1B46389   2.918  28.949  12.374  0.0561 -0.0359  0.0945
 2044DPPE   C2B46390   2.623  29.290  12.450  0.0138 -0.0134  0.0395
 2044DPPE   C3B46391   2.496  29.653  12.697 -0.2740 -0.0526  0.1359
 2044DPPE   C4B46392   2.615  29.852  13.227  0.1106  0.3130  0.0259
 2045DPPE   NH346393  31.152  13.384  11.414  0.1816  0.0566  0.0725
 2045DPPE   PO446394  31.132  13.833  11.436  0.1176  0.0390 -0.1249
 2045DPPE   GL146395  31.401  14.076  11.291 -0.0785  0.0177  0.0877
 2045DPPE   GL246396  31.373  14.384  11.255 -0.1081 -0.0981 -0.0331
 2045DPPE   C1A46397  31.649  14.088  10.933 -0.0826  0.0026  0.0616
 2045DPPE   C2A46398  31.898  13.857  10.681  0.1205 -0.0542  0.1536
 2045DPPE   C3A46399  32.007  13.860  10.221  0.2583 -0.2968 -0.2758
 2045DPPE   C4A46400  31.818  13.507  10.107  0.0415  0.0776 -0.2256
 2045DPPE   C1B46401  31.673  14.632  10.971  0.1877  0.2776 -0.1177
 2045DPPE   C2B46402  32.049  14.561  10.894 -0.1100  0.1300 -0.2095
 2045DPPE   C3B46403  32.538  14.671  10.866 -0.1776  0.0700 -0.0955
 2045DPPE   C4B46404  32.827  14.954  10.772 -0.0647 -0.0234 -0.0540
 2046DPPE   NH346405   2.520  17.349  14.081  0.1052  0.2217  0.2933
 2046DPPE   PO446406   2.374  17.676  14.152  0.0442 -0.2099 -0.0408
 2046DPPE   GL146407   2.055  17.518  13.994  0.3555  0.1198  0.1768
 2046DPPE   GL246408   1.746  17.700  14.132 -0.1347  0.0854  0.0925
 2046DPPE   C1A46409   1.951  17.067  14.026 -0.0792  0.0685  0.2415
 2046DPPE   C2A46410   1.921  16.759  14.184  0.0734 -0.0109  0.0916
 2046DPPE   C3A46411   1.906  16.545  14.597 -0.1071  0.4251 -0.0327
 2046DPPE   C4A46412   1.895  16.185  14.854  0.1584 -0.0309  0.3292
 2046DPPE   C1B46413   1.520  17.448  14.256 -0.0464  0.1337  0.0956
 2046DPPE   C2B46414   1.170  17.148  14.406  0.0526  0.0971  0.3566
 2046DPPE   C3B46415   0.962  16.832  14.113  0.2745 -0.1975  0.0357
 2046DPPE   C4B46416   0.715  16.476  14.039  0.2891  0.0531  0.0740
 2047DPPE   NH346417  16.875  17.114  15.123  0.2926 -0.2269 -0.0456
 2047DPPE   PO446418  16.546  17.209  15.413 -0.2240 -0.0547  0.2692
 2047DPPE   GL146419  16.184  17.338  15.495 -0.2081 -0.2723 -0.2457
 2047DPPE   GL246420  15.920  17.261  15.407 -0.0745  0.1284  0.3114
 2047DPPE   C1A46421  15.863  17.774  15.471 -0.0053  0.0413 -0.2799
 2047DPPE   C2A46422  15.593  18.009  15.177  0.2120 -0.0684  0.0200
 2047DPPE   C3A46423  15.137  18.215  15.163  0.4067  0.4521  0.2525
 2047DPPE   C4A46424  14.777  18.429  15.073  0.1625  0.3021 -0.1813
 2047DPPE   C1B46425  15.594  17.412  15.166 -0.3741 -0.1574 -0.0305
 2047DPPE   C2B46426  15.289  17.638  14.948 -0.0529  0.0054  0.1454
 2047DPPE   C3B46427  14.905  17.855  14.781 -0.3633 -0.0578  0.2339
 2047DPPE   C4B46428  14.550  17.948  15.022  0.0583  0.2441  0.2284
 2048DPPE   NH346429   4.586  10.684  16.737  0.3039 -0.1130 -0.2629
 2048DPPE   PO446430   4.343  10.567  17.082 -0.1968 -0.1983 -0.0873
 2048DPPE   GL146431   4.115  10.763  16.726  0.0194 -0.1805  0.0624
 2048DPPE   GL246432   3.876  10.909  16.867  0.1688  0.0171  0.1349
 2048DPPE   C1A46433   4.167  10.800  16.298 -0.2372  0.0830 -0.0063
 2048DPPE   C2A46434   3.960  10.956  15.987  0.1074  0.1745  0.2091
 2048DPPE   C3A46435   3.986  11.183  15.605 -0.4434  0.0106 -0.0414
 2048DPPE   C4A46436   3.701  11.476  15.405  0.1773 -0.0526  0.1207
 2048DPPE   C1B46437   3.716  11.107  16.417  0.0557  0.1307  0.1476
 2048DPPE   C2B46438   3.265  11.039  16.255  0.2606 -0.2697  0.1263
 2048DPPE   C3B46439   2.903  10.895  16.547 -0.0861  0.0530 -0.0060
 2048DPPE   C4B46440   2.758  10.463  16.807  0.2644 -0.0396 -0.2064
 2049DPPE   NH346441   4.353  14.853  10.336 -0.0315  0.0917 -0.1728
 2049DPPE   PO446442   4.197  15.177  10.079  0.1502 -0.0181  0.1124
 2049DPPE   GL146443   3.845  14.937  10.248  0.1175  0.1042 -0.2147
 2049DPPE   GL246444   3.941  14.760  10.592 -0.0498 -0.0806  0.2732
 2049DPPE   C1A46445   3.610  14.555  10.120  0.0518  0.1087  0.0122
 2049DPPE   C2A46446   3.218  14.506   9.874 -0.0119  0.1719 -0.3864
 2049DPPE   C3A46447   3.012  14.340   9.519 -0.3864 -0.1913  0.1197
 2049DPPE   C4A46448   2.861  14.116   9.160 -0.2606 -0.0356 -0.1424
 2049DPPE   C1B46449   3.750  14.446  10.788  0.1273 -0.0807  0.0060
 2049DPPE   C2B46450   3.602  14.032  10.879  0.1101  0.0222  0.0471
 2049DPPE   C3B46451   3.252  13.917  10.748 -0.0010  0.2330  0.2572
 2049DPPE   C4B46452   3.187  13.820  10.342 -0.1464 -0.0419  0.0730
 2050DPPE   NH346453   4.649  14.217  10.253 -0.2293  0.0469 -0.0152
 2050DPPE   PO446454   4.840  13.778  10.336 -0.0178  0.1164  0.2393
 2050DPPE   GL146455   4.583  13.545  10.455  0.1628 -0.0126  0.2797
 2050DPPE   GL246456   4.520  13.554  10.791 -0.2115  0.2175  0.2931
 2050DPPE   C1A46457   4.188  13.342  10.543  0.0550 -0.0711 -0.2640
 2050DPPE   C2A46458   3.848  13.211  10.332 -0.1915 -0.3071  0.1072
 2050DPPE   C3A46459   3.987  12.926   9.939  0.0528 -0.0639 -0.1838
 2050DPPE   C4A46460   4.134  12.738   9.549  0.0158  0.2275 -0.0634
 2050DPPE   C1B46461   4.565  13.136  10.802 -0.0118 -0.2172  0.0878
 2050DPPE   C2B46462   4.639  12.812  11.168  0.0550 -0.0140  0.0325
 2050DPPE   C3B46463   4.493  12.520  11.535 -0.0668 -0.1119  0.1780
 2050DPPE   C4B46464   4.179  12.218  11.741  0.1577 -0.0015 -0.1884
 2051DPPE   NH346465  34.785  27.489  11.235 -0.0308  0.0594 -0.4072
 2051DPPE   PO446466  35.066  27.460  10.943  0.0569 -0.0740 -0.1077
 2051DPPE   GL146467  35.252  27.165  11.144 -0.1642  0.1440 -0.1706
 2051DPPE   GL246468  35.510  27.220  10.973 -0.1152 -0.2803 -0.6666
 2051DPPE   C1A46469  35.338  26.736  11.304  0.1613  0.0487 -0.1144
 2051DPPE   C2A46470  35.390  26.345  11.030 -0.4131 -0.0673 -0.1586
 2051DPPE   C3A46471  35.813  26.240  10.776  0.3450 -0.4615  0.0197
 2051DPPE   C4A46472  36.171  26.075  11.025 -0.0014  0.0955 -0.1839
 2051DPPE   C1B46473  35.803  26.851  10.927 -0.1016  0.2136  0.0612
 2051DPPE   C2B46474  35.781  26.432  11.285 -0.4150 -0.0841  0.0121
 2051DPPE   C3B46475  35.816  26.009  11.434 -0.2729 -0.2026  0.1229
 2051DPPE   C4B46476  35.711  25.485  11.542  0.2858 -0.2545 -0.2089
 2052DPPE   NH346477  38.077  22.663  15.087 -0.0854  0.1825  0.1028
 2052DPPE   PO446478  37.930  22.596  14.696  0.2216 -0.2159  0.0924
 2052DPPE   GL146479  37.584  22.433  15.041 -0.0450  0.2317  0.0773
 2052DPPE   GL246480  37.517  22.471  15.391  0.1752  0.3125  0.0150
 2052DPPE   C1A46481  37.164  22.186  15.127  0.3097 -0.0194  0.1593
 2052DPPE   C2A46482  36.844  22.055  14.825 -0.1376 -0.0618  0.1874
 2052DPPE   C3A46483  36.769  22.193  14.387 -0.1731 -0.1823 -0.0713
 2052DPPE   C4A46484  36.827  22.419  14.064  0.0133  0.2173  0.1290
 2052DPPE   C1B46485  37.119  22.596  15.471  0.1786 -0.2146  0.2567
 2052DPPE   C2B46486  36.741  22.695  15.698  0.0832  0.1101  0.0933
 2052DPPE   C3B46487  36.304  22.937  15.554 -0.0096  0.1573 -0.1047
 2052DPPE   C4B46488  35.969  23.163  15.523 -0.1241  0.1606 -0.2218
 2053DPPE   NH346489   6.658  24.950  17.781 -0.0393  0.0972 -0.2288
 2053DPPE   PO446490   6.434  25.021  18.157 -0.1035 -0.2498 -0.2705
 2053DPPE   GL146491   6.503  24.901  18.547  0.0681  0.1145 -0.1998
 2053DPPE   GL246492   6.182  24.941  18.660  0.0856 -0.0556 -0.1015
 2053DPPE   C1A46493   6.687  24.994  18.922  0.3948 -0.2211 -0.0986
 2053DPPE   C2A46494   6.806  25.260  19.244  0.0823  0.0777 -0.1758
 2053DPPE   C3A46495   6.751  25.245  19.739  0.1302 -0.3320  0.3553
 2053DPPE   C4A46496   6.677  25.180  20.143 -0.0554 -0.1424  0.1291
 2053DPPE   C1B46497   6.414  25.404  18.742 -0.3205 -0.0513  0.1203
 2053DPPE   C2B46498   6.339  25.794  18.610  0.1386  0.0755  0.1591
 2053DPPE   C3B46499   6.082  26.063  18.927  0.1701 -0.2189  0.4414
 2053DPPE   C4B46500   5.832  26.167  19.277 -0.2054 -0.2180 -0.2964
 2054DPPE   NH346501  37.452  12.641  20.529 -0.0193  0.3245 -0.1134
 2054DPPE   PO446502  37.293  12.930  20.755 -0.2211 -0.0937  0.0003
 2054DPPE   GL146503  37.202  13.035  20.339  0.1407  0.4406  0.0057
 2054DPPE   GL246504  37.274  12.841  20.056 -0.0149  0.0112 -0.1906
 2054DPPE   C1A46505  36.930  13.185  19.975 -0.2664  0.0022  0.0374
 2054DPPE   C2A46506  36.989  13.619  19.943 -0.3273  0.1187 -0.4005
 2054DPPE   C3A46507  37.128  13.914  19.700 -0.0549  0.3789 -0.1130
 2054DPPE   C4A46508  37.291  14.115  19.348  0.0054 -0.1890 -0.2486
 2054DPPE   C1B46509  37.583  12.992  19.779  0.0895 -0.2846 -0.0715
 2054DPPE   C2B46510  37.861  13.044  19.557 -0.3939 -0.0568 -0.3241
 2054DPPE   C3B46511  38.001  13.322  19.346  0.0048 -0.2006  0.1261
 2054DPPE   C4B46512  38.103  13.237  18.942 -0.0267 -0.3597  0.3256
 2055DPPE   NH346513  15.707  17.317   2.108  0.0210 -0.2121 -0.1617
 2055DPPE   PO446514  15.349  17.061   1.917  0.0892  0.0905 -0.1318
 2055DPPE   GL146515  15.026  17.104   2.125 -0.1423  0.0200 -0.2272
 2055DPPE   GL246516  14.685  17.042   2.125  0.0597  0.0361 -0.0934
 2055DPPE   C1A46517  14.825  16.806   2.576  0.0661  0.2133  0.0774
 2055DPPE   C2A46518  14.490  17.070   2.686 -0.0903  0.1238 -0.1826
 2055DPPE   C3A46519  14.132  17.368   3.014 -0.1003  0.0741 -0.1614
 2055DPPE   C4A46520  14.011  17.521   3.386  0.1381 -0.1316  0.3106
 2055DPPE   C1B46521  14.355  16.992   1.826 -0.3700  0.1476  0.0152
 2055DPPE   C2B46522  13.899  17.005   2.084  0.4578 -0.0961  0.1382
 2055DPPE   C3B46523  13.570  17.274   2.307 -0.2109 -0.0044 -0.1007
 2055DPPE   C4B46524  13.283  17.293   2.630  0.1480  0.0344  0.0029
 2056DPPE   NH346525   1.743  19.685  17.392 -0.1760  0.2396 -0.4424
 2056DPPE   PO446526   1.905  20.093  17.475 -0.1339  0.1397  0.0077
 2056DPPE   GL146527   1.598  19.982  17.758  0.0044  0.0256  0.1009
 2056DPPE   GL246528   1.388  19.867  17.776 -0.2100 -0.1045 -0.1609
 2056DPPE   C1A46529   1.369  20.120  18.204 -0.0900  0.0499  0.1718
 2056DPPE   C2A46530   1.419  19.862  18.769 -0.0482 -0.0161 -0.1328
 2056DPPE   C3A46531   1.524  19.637  19.209 -0.1239 -0.0390  0.1188
 2056DPPE   C4A46532   1.415  19.291  19.451 -0.0481 -0.0526  0.3668
 2056DPPE   C1B46533   0.984  19.694  17.912  0.0674  0.0491  0.0377
 2056DPPE   C2B46534   0.644  19.771  18.162 -0.2163 -0.1242  0.2975
 2056DPPE   C3B46535   0.336  19.592  18.406 -0.2251  0.0277 -0.1759
 2056DPPE   C4B46536   0.247  19.282  18.743 -0.3787 -0.0855  0.4458
 2057DPPE   NH346537  32.589  12.634  16.771 -0.0116 -0.1284  0.1787
 2057DPPE   PO446538  32.468  13.007  16.653 -0.2339 -0.0320 -0.2464
 2057DPPE   GL146539  32.740  13.231  16.669 -0.0223 -0.0773  0.1768
 2057DPPE   GL246540  32.768  13.555  16.600  0.3683  0.0368  0.0842
 2057DPPE   C1A46541  33.194  13.219  16.677  0.2525 -0.0944  0.2692
 2057DPPE   C2A46542  33.490  13.488  16.570  0.0940  0.1528 -0.1580
 2057DPPE   C3A46543  33.876  13.452  16.416  0.3037  0.1528 -0.1965
 2057DPPE   C4A46544  34.088  13.423  16.127 -0.0097  0.1761 -0.2773
 2057DPPE   C1B46545  33.023  13.928  16.492 -0.0155  0.1995  0.0319
 2057DPPE   C2B46546  33.330  14.156  16.369 -0.0390  0.2288  0.0275
 2057DPPE   C3B46547  33.373  14.564  16.161  0.1785  0.3658 -0.0096
 2057DPPE   C4B46548  33.212  14.983  16.271 -0.0347  0.0007 -0.2360
 2058DPPE   NH346549  33.846   9.808   8.405 -0.1748  0.2996  0.0913
 2058DPPE   PO446550  34.079  10.091   8.200  0.0905 -0.0271  0.0200
 2058DPPE   GL146551  34.373  10.303   8.202  0.2037  0.3061  0.1963
 2058DPPE   GL246552  34.343  10.466   8.557 -0.0979 -0.0338 -0.2305
 2058DPPE   C1A46553  34.798  10.456   8.175  0.2248  0.3556 -0.1279
 2058DPPE   C2A46554  35.149  10.261   8.447 -0.1409 -0.0750  0.0195
 2058DPPE   C3A46555  35.606  10.275   8.342 -0.1069  0.0938  0.0567
 2058DPPE   C4A46556  35.726  10.325   7.918 -0.0875  0.0707  0.1637
 2058DPPE   C1B46557  34.500  10.662   8.826 -0.0742  0.1860 -0.2880
 2058DPPE   C2B46558  34.752  10.964   8.846 -0.2623 -0.1114  0.3134
 2058DPPE   C3B46559  35.016  11.352   8.809  0.0629 -0.0574 -0.0211
 2058DPPE   C4B46560  35.445  11.421   8.802 -0.3314 -0.2181 -0.0153
 2059DPPE   NH346561  11.615  22.480  25.111 -0.0997 -0.1175 -0.1167
 2059DPPE   PO446562  11.614  22.476  25.525 -0.1465  0.0869  0.1378
 2059DPPE   GL146563  11.692  22.434  25.948  0.0223  0.0025  0.3006
 2059DPPE   GL246564  11.460  22.259  26.082  0.1130  0.1542  0.2011
 2059DPPE   C1A46565  11.864  22.598  26.277  0.5042 -0.1223  0.0053
 2059DPPE   C2A46566  11.910  22.408  26.790 -0.1116  0.2424 -0.1511
 2059DPPE   C3A46567  11.798  22.054  27.003 -0.0255  0.0781  0.0339
 2059DPPE   C4A46568  11.643  21.749  27.307  0.2488  0.3311 -0.1266
 2059DPPE   C1B46569  11.194  22.123  26.033 -0.0841 -0.0685  0.2371
 2059DPPE   C2B46570  10.779  21.999  26.170  0.4151  0.0384 -0.0267
 2059DPPE   C3B46571  10.401  21.843  26.101 -0.2569  0.0441  0.1106
 2059DPPE   C4B46572  10.022  21.948  26.241  0.5043  0.1351 -0.0781
 2060DPPE   NH346573   7.695  26.049   4.381 -0.0207 -0.1251 -0.1990
 2060DPPE   PO446574   8.156  25.910   4.528 -0.1836  0.3542 -0.0786
 2060DPPE   GL146575   8.381  26.001   4.283 -0.1986 -0.0774 -0.1202
 2060DPPE   GL246576   8.470  25.752   4.071 -0.0700 -0.2035  0.3024
 2060DPPE   C1A46577   8.370  26.292   3.948 -0.0277 -0.1665  0.1923
 2060DPPE   C2A46578   8.427  26.545   3.583 -0.2579 -0.1791 -0.0433
 2060DPPE   C3A46579   8.470  26.768   3.212 -0.1839 -0.2371  0.0766
 2060DPPE   C4A46580   8.704  26.719   2.920  0.2535  0.2247  0.2318
 2060DPPE   C1B46581   8.555  25.922   3.648  0.0988  0.0626 -0.0169
 2060DPPE   C2B46582   8.815  26.092   3.455  0.1970 -0.0830  0.0826
 2060DPPE   C3B46583   8.975  26.596   3.388 -0.1617  0.4357 -0.1772
 2060DPPE   C4B46584   9.241  26.984   3.593  0.0316  0.3588 -0.2219
 2061DPPE   NH346585  32.429  11.916  12.147 -0.0038  0.1276 -0.2596
 2061DPPE   PO446586  32.308  12.034  11.737  0.0847 -0.1698  0.0736
 2061DPPE   GL146587  32.531  12.316  11.851  0.2073 -0.1982 -0.0997
 2061DPPE   GL246588  32.661  12.301  12.255 -0.2448 -0.0663  0.2766
 2061DPPE   C1A46589  32.679  12.716  11.987  0.2737 -0.2069 -0.1313
 2061DPPE   C2A46590  32.821  13.048  11.901 -0.1742  0.0416 -0.0680
 2061DPPE   C3A46591  33.045  13.102  11.542 -0.0330 -0.0323  0.0121
 2061DPPE   C4A46592  33.386  12.814  11.552  0.2096  0.0880 -0.0726
 2061DPPE   C1B46593  32.673  12.548  12.621  0.2099  0.0748  0.0243
 2061DPPE   C2B46594  32.684  12.928  12.888  0.0554 -0.1849  0.1210
 2061DPPE   C3B46595  32.726  13.163  13.239 -0.1717 -0.4344 -0.0354
 2061DPPE   C4B46596  32.978  13.542  13.415 -0.1372  0.0326 -0.1532
 2062DPPE   NH346597  29.605  22.235   7.661 -0.2269 -0.2589  0.4227
 2062DPPE   PO446598  29.639  22.404   7.226  0.1761 -0.0875 -0.0608
 2062DPPE   GL146599  29.909  22.152   7.226 -0.4605  0.3106  0.1449
 2062DPPE   GL246600  29.805  21.841   7.393 -0.0389 -0.0065  0.0125
 2062DPPE   C1A46601  30.259  22.078   7.539 -0.0264  0.0707  0.2311
 2062DPPE   C2A46602  30.639  21.772   7.593  0.0073  0.3224  0.0537
 2062DPPE   C3A46603  30.917  21.529   7.553 -0.2733 -0.0593 -0.0309
 2062DPPE   C4A46604  30.887  21.076   7.481 -0.0645  0.1692 -0.0399
 2062DPPE   C1B46605  30.217  21.626   7.273 -0.3223  0.1242 -0.2359
 2062DPPE   C2B46606  30.444  21.283   7.222  0.0069 -0.1826  0.1988
 2062DPPE   C3B46607  30.581  20.835   7.159  0.1956 -0.1544 -0.0546
 2062DPPE   C4B46608  30.913  20.515   7.236  0.2060 -0.2550  0.0291
 2063DPPE   NH346609   1.556   9.362   2.195  0.2271 -0.0351  0.2622
 2063DPPE   PO446610   1.596   8.961   2.418  0.0862 -0.2819 -0.2185
 2063DPPE   GL146611   1.473   9.135   2.693  0.0742 -0.2025  0.1452
 2063DPPE   GL246612   1.415   9.507   2.777  0.0353  0.1807  0.0824
 2063DPPE   C1A46613   1.419   9.199   3.123 -0.1475 -0.1084  0.0813
 2063DPPE   C2A46614   1.651   9.457   3.467  0.1652  0.2287  0.1251
 2063DPPE   C3A46615   1.996   9.470   3.721  0.2762 -0.0427 -0.0693
 2063DPPE   C4A46616   2.157   9.771   3.906 -0.1572 -0.1485  0.1084
 2063DPPE   C1B46617   1.799   9.569   3.041  0.2551  0.1470 -0.1982
 2063DPPE   C2B46618   2.101   9.665   3.239 -0.1966  0.0072 -0.1217
 2063DPPE   C3B46619   2.110  10.043   3.466  0.3266  0.2868 -0.0307
 2063DPPE   C4B46620   2.099  10.471   3.512  0.3259  0.1243  0.4876
 2064DPPE   NH346621   5.969  21.856  24.402  0.1164 -0.0408 -0.1565
 2064DPPE   PO446622   5.825  21.377  24.451 -0.2683 -0.3475  0.0802
 2064DPPE   GL146623   5.895  21.458  24.886  0.0996 -0.0257 -0.0336
 2064DPPE   GL246624   6.020  21.297  24.993 -0.0364  0.3921 -0.0639
 2064DPPE   C1A46625   5.879  21.638  25.256  0.0421 -0.1026  0.0558
 2064DPPE   C2A46626   5.997  21.675  25.765  0.0430  0.0888  0.1338
 2064DPPE   C3A46627   5.915  21.520  26.083  0.0030  0.2834  0.2344
 2064DPPE   C4A46628   5.972  21.133  26.390  0.0009 -0.1309  0.0878
 2064DPPE   C1B46629   5.821  20.988  25.210  0.0860 -0.0801  0.0995
 2064DPPE   C2B46630   5.869  20.568  25.385 -0.0280 -0.1277  0.3106
 2064DPPE   C3B46631   5.832  20.382  25.756 -0.0776  0.1838 -0.1235
 2064DPPE   C4B46632   5.673  20.314  26.049 -0.2060 -0.1390  0.0149
 2065DPPE   NH346633  29.081  22.773  12.338  0.0758 -0.0020 -0.0281
 2065DPPE   PO446634  29.216  23.066  12.523  0.0587  0.0741 -0.1794
 2065DPPE   GL146635  29.676  23.166  12.488 -0.0018 -0.1096  0.1477
 2065DPPE   GL246636  29.934  23.288  12.709  0.0589  0.2225 -0.1357
 2065DPPE   C1A46637  29.984  23.067  12.249  0.2842 -0.0268  0.1287
 2065DPPE   C2A46638  30.373  23.072  12.072  0.5937  0.1879  0.0652
 2065DPPE   C3A46639  30.654  22.776  11.801 -0.1833 -0.1541 -0.0773
 2065DPPE   C4A46640  31.080  22.548  11.651 -0.0780 -0.1525  0.1045
 2065DPPE   C1B46641  30.000  22.860  12.819 -0.1136 -0.4033 -0.0034
 2065DPPE   C2B46642  30.365  22.457  12.846  0.0716  0.0836 -0.2772
 2065DPPE   C3B46643  30.713  22.300  12.749  0.0659 -0.0833 -0.0704
 2065DPPE   C4B46644  31.091  22.296  12.471  0.1025  0.0365 -0.0344
 2066DPPE   NH346645   2.150  25.937   5.576 -0.0239 -0.1269 -0.2555
 2066DPPE   PO446646   2.369  26.275   5.762 -0.2499 -0.2050  0.3493
 2066DPPE   GL146647   2.514  26.677   5.773 -0.0539  0.3331  0.0628
 2066DPPE   GL246648   2.588  26.932   6.026 -0.1079 -0.0995  0.0985
 2066DPPE   C1A46649   2.754  27.034   5.523 -0.2759  0.1615  0.2105
 2066DPPE   C2A46650   2.863  27.432   5.237  0.0636  0.0502 -0.0759
 2066DPPE   C3A46651   2.774  27.778   4.914  0.1507  0.0435 -0.3171
 2066DPPE   C4A46652   2.583  27.899   4.609 -0.2429  0.0227  0.3443
 2066DPPE   C1B46653   2.579  27.332   5.836  0.4758 -0.1007 -0.1607
 2066DPPE   C2B46654   2.612  27.784   5.504  0.1748  0.0680 -0.1954
 2066DPPE   C3B46655   2.508  28.229   5.361 -0.3202 -0.2397  0.0218
 2066DPPE   C4B46656   2.170  28.495   5.312 -0.1578  0.4156  0.0834
 2067DPPE   NH346657  18.583  24.915   7.508  0.0257 -0.1958  0.1599
 2067DPPE   PO446658  18.440  25.286   7.317 -0.3511  0.0230 -0.0201
 2067DPPE   GL146659  18.104  25.133   7.400  0.2386  0.2491  0.1530
 2067DPPE   GL246660  17.781  25.146   7.203 -0.2047  0.1394 -0.1458
 2067DPPE   C1A46661  17.825  24.794   7.573 -0.2666 -0.1586 -0.2811
 2067DPPE   C2A46662  17.606  24.697   7.852  0.2750  0.1420  0.0633
 2067DPPE   C3A46663  17.616  24.809   8.351  0.0098  0.1108  0.0990
 2067DPPE   C4A46664  17.852  24.900   8.672 -0.1938  0.0505 -0.2134
 2067DPPE   C1B46665  17.358  25.149   7.089  0.1012 -0.0511  0.1920
 2067DPPE   C2B46666  16.897  25.061   7.175 -0.1618 -0.1443 -0.0892
 2067DPPE   C3B46667  16.555  24.914   7.449  0.0592 -0.0184  0.0836
 2067DPPE   C4B46668  16.397  24.578   7.704  0.0942  0.0918 -0.1225
 2068DPPE   NH346669  33.754  11.284  16.572  0.3008  0.1525 -0.1152
 2068DPPE   PO446670  33.409  11.515  16.607  0.1892  0.1504 -0.2507
 2068DPPE   GL146671  33.575  11.843  16.471  0.0502 -0.1832  0.1194
 2068DPPE   GL246672  33.653  11.760  16.166 -0.1370 -0.0781  0.0328
 2068DPPE   C1A46673  33.998  12.122  16.422  0.2943 -0.1345  0.1163
 2068DPPE   C2A46674  34.178  12.446  16.166 -0.2483  0.3845 -0.1075
 2068DPPE   C3A46675  34.485  12.600  15.889  0.2553 -0.2453  0.2510
 2068DPPE   C4A46676  34.615  12.954  15.644 -0.1542 -0.0964 -0.0011
 2068DPPE   C1B46677  33.747  12.155  15.900  0.1854  0.1368  0.0912
 2068DPPE   C2B46678  34.069  12.352  15.647  0.1211  0.1465 -0.0339
 2068DPPE   C3B46679  34.270  12.572  15.383 -0.0189  0.0584  0.1441
 2068DPPE   C4B46680  34.530  12.679  15.124 -0.0401  0.0274 -0.0905
 2069DPPE   NH346681   4.692  11.883   2.070 -0.2495  0.1742 -0.3711
 2069DPPE   PO446682   5.127  11.754   2.001  0.1261 -0.0290  0.1460
 2069DPPE   GL146683   5.117  11.931   2.383  0.2660 -0.1310 -0.0309
 2069DPPE   GL246684   4.894  11.789   2.538  0.3940  0.1423  0.4016
 2069DPPE   C1A46685   5.383  12.190   2.668  0.1093  0.4208 -0.5409
 2069DPPE   C2A46686   5.591  12.499   2.688 -0.2707  0.1593  0.0857
 2069DPPE   C3A46687   5.961  12.631   2.911  0.0041  0.0661  0.2545
 2069DPPE   C4A46688   6.369  12.755   3.014  0.2026 -0.0030  0.2094
 2069DPPE   C1B46689   4.854  12.268   2.604  0.1066  0.0584  0.1727
 2069DPPE   C2B46690   4.828  12.620   2.650  0.1300  0.0424  0.0519
 2069DPPE   C3B46691   4.722  12.791   3.060 -0.0689 -0.2824 -0.2050
 2069DPPE   C4B46692   4.766  13.176   3.282 -0.0765  0.2590  0.1871
 2070DPPE   NH346693  16.430  22.189  17.871  0.1150  0.0859 -0.3532
 2070DPPE   PO446694  16.797  22.064  17.554 -0.0402 -0.0289 -0.0289
 2070DPPE   GL146695  16.414  22.032  17.370 -0.0137 -0.1374  0.0765
 2070DPPE   GL246696  16.138  22.198  17.420 -0.0751  0.2150  0.0590
 2070DPPE   C1A46697  16.214  21.727  17.163 -0.0252 -0.1982  0.0550
 2070DPPE   C2A46698  15.771  21.664  17.051 -0.2044  0.0105  0.3940
 2070DPPE   C3A46699  15.371  21.711  16.845  0.3170  0.2951 -0.0947
 2070DPPE   C4A46700  15.238  21.433  16.595  0.2017 -0.3049 -0.1548
 2070DPPE   C1B46701  15.898  22.196  17.223  0.2649 -0.0646  0.0636
 2070DPPE   C2B46702  15.582  22.142  16.902 -0.2224  0.0595  0.0666
 2070DPPE   C3B46703  15.239  22.244  16.593  0.2584 -0.0458  0.2096
 2070DPPE   C4B46704  15.251  22.488  16.183  0.2638 -0.2588 -0.0813
 2071DPPE   NH346705   4.909  14.086   8.804 -0.2785 -0.0131 -0.0355
 2071DPPE   PO446706   4.718  14.528   8.869  0.1390 -0.0129 -0.0853
 2071DPPE   GL146707   4.313  14.283   8.745 -0.0355 -0.0402  0.0447
 2071DPPE   GL246708   4.373  14.083   9.077 -0.1591 -0.2815 -0.0374
 2071DPPE   C1A46709   3.870  14.265   9.063  0.2834 -0.0579  0.1561
 2071DPPE   C2A46710   3.576  14.011   8.926 -0.1682  0.0192  0.1924
 2071DPPE   C3A46711   3.628  13.947   8.422  0.2178 -0.2620 -0.0156
 2071DPPE   C4A46712   3.460  14.225   8.090 -0.0381 -0.0441 -0.3927
 2071DPPE   C1B46713   4.069  13.816   8.945  0.1027  0.2668  0.0513
 2071DPPE   C2B46714   3.833  13.542   8.702 -0.0732 -0.0542 -0.2799
 2071DPPE   C3B46715   3.692  13.130   8.781  0.2418 -0.2239  0.0335
 2071DPPE   C4B46716   3.509  12.722   8.949  0.0857 -0.1978  0.1440
 2072DPPE   NH346717  34.745  10.546  15.852 -0.1119  0.2498 -0.1955
 2072DPPE   PO446718  34.754  10.472  16.405 -0.1679 -0.1075  0.0994
 2072DPPE   GL146719  34.928  10.760  16.674 -0.2462  0.0555 -0.2769
 2072DPPE   GL246720  34.945  10.831  16.973  0.2448  0.1732 -0.0464
 2072DPPE   C1A46721  35.420  10.830  16.604  0.2972  0.2008  0.0092
 2072DPPE   C2A46722  35.876  10.831  16.791 -0.0195  0.0632 -0.1856
 2072DPPE   C3A46723  36.310  11.017  16.598 -0.0820  0.0038 -0.1980
 2072DPPE   C4A46724  36.530  11.143  16.259  0.1357  0.0497  0.0209
 2072DPPE   C1B46725  35.138  11.140  16.916 -0.1686  0.3254  0.1182
 2072DPPE   C2B46726  35.552  11.405  16.800 -0.0613 -0.0860 -0.0584
 2072DPPE   C3B46727  35.714  11.716  16.627 -0.1377  0.3702 -0.2534
 2072DPPE   C4B46728  35.769  12.087  16.405 -0.2026  0.1566 -0.2771
 2073DPPE   NH346729   6.083  13.335  12.106 -0.0084  0.0082 -0.0390
 2073DPPE   PO446730   5.946  13.308  12.547 -0.2620  0.1563 -0.0190
 2073DPPE   GL146731   5.648  12.916  12.656  0.0830  0.1223 -0.1515
 2073DPPE   GL246732   5.631  12.660  12.434  0.2414 -0.5137  0.0436
 2073DPPE   C1A46733   5.217  12.695  12.702 -0.0485 -0.2287  0.0034
 2073DPPE   C2A46734   5.189  12.420  13.114 -0.0141  0.0053  0.1314
 2073DPPE   C3A46735   4.869  12.026  13.125  0.0931 -0.2640  0.0606
 2073DPPE   C4A46736   4.700  11.700  12.893  0.0017 -0.2548  0.1722
 2073DPPE   C1B46737   5.404  12.228  12.591 -0.1364 -0.0013  0.0936
 2073DPPE   C2B46738   5.276  11.873  12.673 -0.2595 -0.1656  0.1281
 2073DPPE   C3B46739   5.285  11.638  13.071  0.0486  0.0073  0.1241
 2073DPPE   C4B46740   5.475  11.275  13.216 -0.1833 -0.0248  0.2115
 2074DPPE   NH346741  10.494  16.045  20.483  0.4963 -0.1289 -0.0207
 2074DPPE   PO446742  10.766  15.772  20.328 -0.2032  0.2766  0.3533
 2074DPPE   GL146743  10.467  15.797  19.910  0.0634  0.0114  0.2274
 2074DPPE   GL246744  10.101  15.688  19.881 -0.0293 -0.4007 -0.3278
 2074DPPE   C1A46745  10.280  16.002  19.494 -0.3489  0.1055 -0.1992
 2074DPPE   C2A46746   9.958  16.066  19.234 -0.2037  0.0255 -0.2844
 2074DPPE   C3A46747   9.703  16.428  19.246 -0.2954 -0.1521 -0.1198
 2074DPPE   C4A46748   9.350  16.691  19.279  0.2590  0.1244  0.0702
 2074DPPE   C1B46749   9.742  15.437  19.747 -0.1741 -0.1978 -0.1103
 2074DPPE   C2B46750   9.479  15.464  19.472 -0.0136  0.0807  0.1373
 2074DPPE   C3B46751   9.208  15.243  19.294  0.0757  0.0591  0.2192
 2074DPPE   C4B46752   9.145  15.197  18.930  0.2221  0.1969 -0.4633
 2075DPPE   NH346753   2.736  16.816  12.476 -0.1900 -0.2088 -0.2289
 2075DPPE   PO446754   2.739  16.462  12.130  0.2087 -0.2387 -0.4817
 2075DPPE   GL146755   2.492  16.338  12.388  0.2999  0.0292  0.1874
 2075DPPE   GL246756   2.270  16.622  12.459 -0.0855  0.3250  0.1133
 2075DPPE   C1A46757   2.352  16.105  12.683 -0.1586 -0.0080  0.4527
 2075DPPE   C2A46758   1.963  15.911  12.810 -0.0360 -0.0445 -0.1840
 2075DPPE   C3A46759   1.530  15.941  12.783  0.0131 -0.0216  0.1461
 2075DPPE   C4A46760   1.190  15.857  12.941  0.4268 -0.0476 -0.1384
 2075DPPE   C1B46761   1.878  16.373  12.490 -0.2321 -0.3550  0.0901
 2075DPPE   C2B46762   1.817  16.050  12.291  0.0512  0.0613 -0.1297
 2075DPPE   C3B46763   1.677  15.626  12.141 -0.0244  0.2518  0.2079
 2075DPPE   C4B46764   1.518  15.191  12.239  0.3595  0.4047  0.0484
 2076DPPE   NH346765  17.224  24.467   4.573 -0.1848  0.1895  0.1125
 2076DPPE   PO446766  17.012  24.896   4.583 -0.1008  0.1424 -0.3699
 2076DPPE   GL146767  16.685  24.670   4.709 -0.0732  0.1425  0.2641
 2076DPPE   GL246768  16.489  24.674   4.448 -0.0150 -0.0903 -0.0188
 2076DPPE   C1A46769  16.401  24.497   5.032 -0.0728  0.1585  0.2621
 2076DPPE   C2A46770  16.374  24.277   5.473 -0.1937 -0.3714  0.0232
 2076DPPE   C3A46771  15.982  24.209   5.740  0.0320  0.1366 -0.0939
 2076DPPE   C4A46772  15.710  24.309   6.117  0.2706 -0.1621  0.1507
 2076DPPE   C1B46773  16.401  24.245   4.594  0.2065 -0.2445 -0.4152
 2076DPPE   C2B46774  16.136  23.990   4.873 -0.0429  0.1545  0.1429
 2076DPPE   C3B46775  16.078  23.587   4.887 -0.4702 -0.0235 -0.3937
 2076DPPE   C4B46776  16.301  23.214   5.162 -0.1002  0.3838 -0.3857
 2077DPPE   NH346777  11.223  25.863  15.609 -0.0574  0.0162 -0.0939
 2077DPPE   PO446778  10.954  26.171  15.829 -0.1168 -0.2771  0.2356
 2077DPPE   GL146779  11.275  26.346  16.048 -0.0545 -0.0029 -0.4163
 2077DPPE   GL246780  11.551  26.126  15.990  0.4311  0.0822  0.1056
 2077DPPE   C1A46781  11.638  26.639  16.171  0.0562 -0.2184  0.1079
 2077DPPE   C2A46782  11.681  27.069  15.973 -0.0730 -0.2733  0.2053
 2077DPPE   C3A46783  11.630  27.399  15.823  0.3231  0.3012  0.1569
 2077DPPE   C4A46784  11.819  27.731  15.762  0.0533  0.0286  0.2516
 2077DPPE   C1B46785  11.886  26.139  16.239 -0.0156 -0.0404 -0.1374
 2077DPPE   C2B46786  12.193  26.380  16.483 -0.1604 -0.3345  0.1035
 2077DPPE   C3B46787  12.186  26.787  16.784  0.1726  0.0807 -0.1719
 2077DPPE   C4B46788  12.379  27.125  16.989 -0.1945  0.1046 -0.0685
 2078DPPE   NH346789   2.039  17.800   8.310  0.4380  0.0801  0.1673
 2078DPPE   PO446790   2.218  17.705   8.012 -0.3828  0.0667  0.2024
 2078DPPE   GL146791   2.124  17.342   7.746 -0.1549 -0.1574  0.0686
 2078DPPE   GL246792   2.132  17.055   7.824 -0.1747  0.3105 -0.2208
 2078DPPE   C1A46793   1.835  17.173   7.468 -0.0874 -0.3149  0.0802
 2078DPPE   C2A46794   1.525  16.962   7.355 -0.4141  0.2525  0.0490
 2078DPPE   C3A46795   1.225  16.990   7.089 -0.0086  0.2155 -0.3351
 2078DPPE   C4A46796   1.023  16.904   6.697  0.0510 -0.2441  0.0436
 2078DPPE   C1B46797   2.169  16.727   7.412  0.1179  0.0825  0.3723
 2078DPPE   C2B46798   1.893  16.760   7.014 -0.2782 -0.3961 -0.1506
 2078DPPE   C3B46799   1.508  16.735   6.705  0.4525 -0.1661  0.0106
 2078DPPE   C4B46800   1.216  16.383   6.740 -0.1250 -0.2563  0.2333
 2079DPPE   NH346801   3.165  16.180  10.448  0.2372 -0.0417  0.2212
 2079DPPE   PO446802   2.803  15.887  10.611 -0.1608 -0.1567 -0.1275
 2079DPPE   GL146803   2.613  15.749  10.903 -0.0309 -0.0661  0.0523
 2079DPPE   GL246804   2.550  15.827  11.162 -0.1490 -0.3694  0.0228
 2079DPPE   C1A46805   2.380  15.331  10.825 -0.0912 -0.0615 -0.0048
 2079DPPE   C2A46806   1.953  15.266  10.601 -0.1849  0.2969 -0.2901
 2079DPPE   C3A46807   1.507  15.043  10.650  0.1014  0.4377 -0.1906
 2079DPPE   C4A46808   1.248  14.705  10.843  0.0775  0.1968 -0.0385
 2079DPPE   C1B46809   2.178  15.814  11.444  0.0385  0.0984  0.0934
 2079DPPE   C2B46810   1.743  15.551  11.515  0.1294 -0.2258 -0.1203
 2079DPPE   C3B46811   1.345  15.438  11.527 -0.2381 -0.0251  0.0462
 2079DPPE   C4B46812   0.925  15.270  11.651 -0.1472 -0.2050 -0.3590
 2080DPPE   NH346813  13.191  25.162   7.408 -0.2569  0.3682 -0.0972
 2080DPPE   PO446814  13.570  25.065   7.627 -0.1098 -0.3398  0.2620
 2080DPPE   GL146815  13.962  25.361   7.552 -0.0174 -0.0052  0.3235
 2080DPPE   GL246816  14.064  25.315   7.787 -0.4654 -0.4331  0.0292
 2080DPPE   C1A46817  14.157  25.659   7.258  0.0040  0.2530 -0.3173
 2080DPPE   C2A46818  14.293  25.784   6.844  0.1247  0.1734  0.2255
 2080DPPE   C3A46819  14.506  26.025   6.488  0.0790 -0.2942 -0.0172
 2080DPPE   C4A46820  14.860  26.193   6.335  0.1408 -0.1444  0.3457
 2080DPPE   C1B46821  14.357  25.672   7.747 -0.1145  0.0884  0.1734
 2080DPPE   C2B46822  14.755  25.842   7.790 -0.0494  0.1761 -0.0840
 2080DPPE   C3B46823  14.739  26.243   7.636 -0.1121 -0.2110 -0.2343
 2080DPPE   C4B46824  14.663  26.619   7.519 -0.2377  0.1089  0.2044
 2081DPPE   NH346825  11.333  28.302   1.645  0.0418  0.0614 -0.1024
 2081DPPE   PO446826  10.785  28.305   1.550 -0.1376  0.0930 -0.2639
 2081DPPE   GL146827  10.754  28.238   2.067  0.0955 -0.1992 -0.1286
 2081DPPE   GL246828  10.703  28.456   2.280  0.1795  0.2453  0.0765
 2081DPPE   C1A46829  10.564  27.863   2.376 -0.1057  0.0115 -0.1582
 2081DPPE   C2A46830  10.293  27.655   2.612  0.2758 -0.0744 -0.1195
 2081DPPE   C3A46831   9.942  27.377   2.752 -0.0664 -0.6362 -0.0602
 2081DPPE   C4A46832   9.699  27.111   2.980 -0.1261  0.2319 -0.4665
 2081DPPE   C1B46833  10.486  28.353   2.572 -0.0713 -0.2410  0.0026
 2081DPPE   C2B46834  10.122  28.100   2.636  0.0647 -0.1453  0.2763
 2081DPPE   C3B46835   9.880  27.923   2.994  0.2436 -0.0701  0.0245
 2081DPPE   C4B46836   9.686  27.649   3.269 -0.0228 -0.0908  0.2238
 2082DPPE   NH346837  14.202  19.324   5.085  0.2020  0.2097  0.0681
 2082DPPE   PO446838  14.376  18.967   5.061  0.1006  0.1962 -0.3245
 2082DPPE   GL146839  14.552  18.785   4.596 -0.0785 -0.2015 -0.0750
 2082DPPE   GL246840  14.258  18.515   4.666  0.1942  0.0345 -0.4518
 2082DPPE   C1A46841  14.538  18.673   4.214  0.0660 -0.2593  0.0832
 2082DPPE   C2A46842  14.733  18.413   4.029 -0.2839  0.0468 -0.2115
 2082DPPE   C3A46843  14.812  17.950   4.091 -0.2949 -0.2401 -0.0503
 2082DPPE   C4A46844  14.924  17.567   3.980 -0.2813  0.0485 -0.3229
 2082DPPE   C1B46845  14.675  18.334   4.687  0.1842 -0.0617  0.0703
 2082DPPE   C2B46846  14.756  17.876   4.632 -0.1154 -0.0954 -0.1274
 2082DPPE   C3B46847  14.598  17.471   4.649 -0.1507  0.0716 -0.1028
 2082DPPE   C4B46848  14.905  17.059   4.730 -0.2994  0.0371  0.1059
 2083DPPE   NH346849  12.965  12.374   3.159  0.0582 -0.2018  0.1332
 2083DPPE   PO446850  12.820  12.752   2.981 -0.2887  0.1772  0.2308
 2083DPPE   GL146851  12.621  13.105   3.006  0.1013 -0.0862 -0.1152
 2083DPPE   GL246852  12.321  13.131   2.870 -0.0795 -0.2858 -0.0485
 2083DPPE   C1A46853  12.699  13.470   3.125 -0.0100 -0.0772 -0.0335
 2083DPPE   C2A46854  12.508  13.840   3.149  0.0879 -0.0327 -0.1217
 2083DPPE   C3A46855  12.511  14.199   2.909  0.0273  0.1713  0.1963
 2083DPPE   C4A46856  12.313  14.615   3.111 -0.1301 -0.2165 -0.1911
 2083DPPE   C1B46857  12.183  13.541   2.885 -0.1992  0.0026 -0.0329
 2083DPPE   C2B46858  11.991  13.835   3.146  0.0283  0.1861 -0.1330
 2083DPPE   C3B46859  11.938  14.164   3.376 -0.2993 -0.1000 -0.0392
 2083DPPE   C4B46860  12.001  14.433   3.650  0.0618  0.1065  0.1972
 2084DPPE   NH346861   8.087  13.203   9.437  0.0492  0.0334 -0.4654
 2084DPPE   PO446862   7.926  12.828   9.406 -0.1806 -0.2381  0.0316
 2084DPPE   GL146863   7.958  12.399   9.500  0.0510  0.2693  0.1130
 2084DPPE   GL246864   8.084  12.411   9.778  0.1493 -0.0168 -0.0879
 2084DPPE   C1A46865   8.192  12.205   9.288 -0.1161  0.0812  0.2768
 2084DPPE   C2A46866   8.274  11.741   9.265  0.0960  0.2944 -0.4693
 2084DPPE   C3A46867   8.380  11.352   9.553 -0.2283 -0.1879  0.0734
 2084DPPE   C4A46868   8.637  11.068   9.567  0.2875 -0.2883  0.0320
 2084DPPE   C1B46869   7.862  11.966   9.701 -0.0591 -0.0681 -0.1492
 2084DPPE   C2B46870   8.009  11.536   9.839 -0.0794 -0.2385  0.1213
 2084DPPE   C3B46871   7.938  11.114   9.769 -0.0059 -0.2085  0.0307
 2084DPPE   C4B46872   7.878  10.702   9.647  0.0101 -0.2480 -0.1058
 2085DPPE   NH346873  13.254  16.737   6.784 -0.0564 -0.1363  0.0159
 2085DPPE   PO446874  13.071  16.973   6.354 -0.0837  0.0686 -0.4831
 2085DPPE   GL146875  13.417  16.838   6.191 -0.3232  0.2161 -0.2251
 2085DPPE   GL246876  13.637  16.630   6.523  0.1763  0.1305 -0.0856
 2085DPPE   C1A46877  13.743  16.749   5.975  0.2566 -0.1196 -0.1890
 2085DPPE   C2A46878  14.029  16.954   5.850 -0.0681 -0.2353 -0.1889
 2085DPPE   C3A46879  14.388  16.825   5.673 -0.0309  0.0938 -0.0550
 2085DPPE   C4A46880  14.744  16.493   5.704  0.2060  0.1329 -0.0389
 2085DPPE   C1B46881  13.763  16.338   6.296 -0.0573 -0.0515 -0.0293
 2085DPPE   C2B46882  14.061  16.060   6.394 -0.3855  0.5285 -0.0673
 2085DPPE   C3B46883  14.524  15.889   6.521 -0.1795 -0.0457  0.1185
 2085DPPE   C4B46884  14.922  15.853   6.349  0.0401 -0.0210  0.0828
 2086DPPE   NH346885  38.042  25.345   8.574  0.4582 -0.2220  0.0012
 2086DPPE   PO446886  37.997  25.489   8.921 -0.2560  0.1015  0.0131
 2086DPPE   GL146887  37.779  25.816   8.612  0.0036  0.2339 -0.1709
 2086DPPE   GL246888  38.053  25.922   8.478  0.0027 -0.0315 -0.0234
 2086DPPE   C1A46889  37.401  25.906   8.737  0.1214  0.2686 -0.0886
 2086DPPE   C2A46890  36.997  25.984   8.608 -0.1957 -0.1917  0.2588
 2086DPPE   C3A46891  36.809  26.355   8.560 -0.2354 -0.1544 -0.0258
 2086DPPE   C4A46892  36.687  26.766   8.535 -0.1846  0.0384 -0.2432
 2086DPPE   C1B46893  37.890  26.203   8.213  0.0705  0.3933 -0.3238
 2086DPPE   C2B46894  37.541  26.355   7.958 -0.2313 -0.0647 -0.3185
 2086DPPE   C3B46895  37.170  26.555   7.758 -0.1822  0.0762 -0.1880
 2086DPPE   C4B46896  37.157  26.708   7.470 -0.0687 -0.0462  0.0814
 2087DPPE   NH346897   8.132  14.777  14.100 -0.2907 -0.4472  0.0125
 2087DPPE   PO446898   8.188  14.346  13.956  0.1355 -0.1312 -0.1321
 2087DPPE   GL146899   8.251  14.030  14.273 -0.0350  0.2282  0.1462
 2087DPPE   GL246900   8.203  13.781  14.231  0.2767 -0.0767  0.0466
 2087DPPE   C1A46901   8.506  13.825  14.654  0.2633 -0.0526  0.2579
 2087DPPE   C2A46902   8.711  13.387  14.809 -0.2028  0.0951  0.4169
 2087DPPE   C3A46903   9.099  13.299  14.969 -0.1206 -0.0607 -0.1213
 2087DPPE   C4A46904   9.234  13.217  15.416 -0.0509  0.1017  0.0296
 2087DPPE   C1B46905   8.196  13.416  14.476  0.1483  0.2675  0.0511
 2087DPPE   C2B46906   7.876  13.141  14.570 -0.1434 -0.0345  0.2603
 2087DPPE   C3B46907   7.499  13.011  14.417 -0.0369  0.0246  0.0987
 2087DPPE   C4B46908   7.105  12.701  14.467  0.0692 -0.0574  0.0622
 2088DPPE   NH346909   3.653   7.509  13.346  0.0314 -0.1851 -0.1741
 2088DPPE   PO446910   3.764   7.545  13.781  0.0842 -0.1509 -0.1394
 2088DPPE   GL146911   3.621   7.914  13.824  0.0183 -0.0465 -0.1628
 2088DPPE   GL246912   3.951   8.096  13.599  0.1402 -0.1536 -0.3127
 2088DPPE   C1A46913   3.534   8.381  13.966 -0.0302  0.0027 -0.3759
 2088DPPE   C2A46914   3.519   8.757  13.780  0.1970 -0.0294  0.0913
 2088DPPE   C3A46915   3.390   8.944  13.491 -0.0042  0.3713 -0.2540
 2088DPPE   C4A46916   3.127   8.985  13.063 -0.0726 -0.0175 -0.0413
 2088DPPE   C1B46917   3.893   8.494  13.529 -0.0844 -0.2796  0.2688
 2088DPPE   C2B46918   3.871   8.784  13.251  0.1688  0.1023  0.1672
 2088DPPE   C3B46919   3.923   9.089  12.839  0.3422  0.1399 -0.0260
 2088DPPE   C4B46920   3.803   9.041  12.332 -0.2032  0.2717  0.0922
 2089DPPE   NH346921   1.270  17.800  12.831 -0.0362  0.1193  0.3185
 2089DPPE   PO446922   1.407  17.981  13.298  0.0101  0.0577  0.3209
 2089DPPE   GL146923   1.132  17.608  13.401  0.1694  0.2390 -0.2151
 2089DPPE   GL246924   0.875  17.770  13.632  0.1373  0.0509  0.4072
 2089DPPE   C1A46925   0.789  17.302  13.188 -0.4263 -0.0874 -0.1059
 2089DPPE   C2A46926   0.509  16.903  13.172 -0.3348  0.0155  0.0642
 2089DPPE   C3A46927   0.026  16.701  13.047 -0.1941  0.1945 -0.0520
 2089DPPE   C4A46928  -0.468  16.754  12.934  0.2036 -0.3036 -0.0437
 2089DPPE   C1B46929   0.714  17.264  13.657  0.1934  0.5165 -0.0284
 2089DPPE   C2B46930   0.498  17.048  13.988  0.1006 -0.1147  0.0671
 2089DPPE   C3B46931   0.488  16.895  14.383  0.4667 -0.3348  0.2588
 2089DPPE   C4B46932   0.757  17.006  14.710 -0.0219 -0.2454 -0.1220
 2090DPPE   NH346933   2.218  25.351  16.128  0.2711 -0.1156 -0.0432
 2090DPPE   PO446934   2.011  24.953  16.329 -0.1421  0.0665  0.3108
 2090DPPE   GL146935   1.660  25.129  16.571 -0.3556  0.1604  0.5085
 2090DPPE   GL246936   1.833  25.144  16.847  0.4021  0.0195  0.0351
 2090DPPE   C1A46937   1.243  25.328  16.608 -0.1744  0.2298  0.0078
 2090DPPE   C2A46938   1.064  25.681  16.757  0.1187 -0.0845  0.4541
 2090DPPE   C3A46939   1.030  25.998  17.100  0.4568  0.2272  0.1418
 2090DPPE   C4A46940   0.856  26.077  17.487  0.0555 -0.2131  0.3032
 2090DPPE   C1B46941   1.630  25.471  16.980  0.3095  0.0254  0.0947
 2090DPPE   C2B46942   1.380  25.632  17.171 -0.0381 -0.2026 -0.0831
 2090DPPE   C3B46943   1.034  25.597  17.465 -0.0537 -0.2182 -0.1444
 2090DPPE   C4B46944   0.785  25.453  17.689  0.0573 -0.0420  0.1896
 2091DPPE   NH346945   8.920  11.224  16.578 -0.0372 -0.1449 -0.0973
 2091DPPE   PO446946   8.948  11.278  16.159  0.0121 -0.2452  0.0240
 2091DPPE   GL146947   8.907  11.479  15.717 -0.4333  0.2909 -0.0223
 2091DPPE   GL246948   8.651  11.561  15.833 -0.1316 -0.0062 -0.0855
 2091DPPE   C1A46949   9.014  11.920  15.543 -0.1010 -0.0467  0.2194
 2091DPPE   C2A46950   9.126  12.289  15.406  0.0505  0.0056 -0.1224
 2091DPPE   C3A46951   9.270  12.786  15.112 -0.0854 -0.1764  0.2365
 2091DPPE   C4A46952   9.566  13.121  14.977  0.2458 -0.0218 -0.2434
 2091DPPE   C1B46953   8.515  11.884  15.655  0.4179 -0.2007  0.0672
 2091DPPE   C2B46954   8.649  12.241  15.233 -0.0840 -0.1221 -0.0230
 2091DPPE   C3B46955   8.810  12.647  15.146  0.1435  0.1325  0.0293
 2091DPPE   C4B46956   8.861  12.856  14.760  0.1147 -0.1935  0.0128
 2092DPPE   NH346957  38.323  20.714  11.565 -0.0894  0.0196  0.0809
 2092DPPE   PO446958  38.384  20.761  11.166  0.4706  0.0553  0.2301
 2092DPPE   GL146959  37.900  20.731  11.259 -0.4995 -0.0143 -0.0072
 2092DPPE   GL246960  37.689  20.956  11.147 -0.2916  0.0677 -0.0640
 2092DPPE   C1A46961  37.495  20.688  11.505 -0.0597 -0.1591 -0.6435
 2092DPPE   C2A46962  37.105  20.496  11.512  0.0319 -0.0776  0.5103
 2092DPPE   C3A46963  36.680  20.360  11.484 -0.1307 -0.3192 -0.4440
 2092DPPE   C4A46964  36.411  20.101  11.180 -0.0405  0.1988  0.1914
 2092DPPE   C1B46965  37.369  21.087  10.851  0.3217 -0.0786 -0.2618
 2092DPPE   C2B46966  37.168  21.008  10.515  0.1799  0.0580 -0.0246
 2092DPPE   C3B46967  36.832  21.143  10.192 -0.0645 -0.0185  0.0529
 2092DPPE   C4B46968  36.835  21.198   9.803  0.1369 -0.2203 -0.1565
 2093DPPE   NH346969  16.273  15.908   3.668  0.0337 -0.0880  0.3819
 2093DPPE   PO446970  16.487  16.284   3.889 -0.0294 -0.0304 -0.0853
 2093DPPE   GL146971  16.159  16.561   3.971  0.0209  0.0275 -0.0158
 2093DPPE   GL246972  16.187  16.592   4.347 -0.2809 -0.0367  0.0250
 2093DPPE   C1A46973  15.843  16.939   3.872 -0.0510 -0.0937  0.1006
 2093DPPE   C2A46974  15.523  17.240   3.824  0.1008 -0.1114  0.2154
 2093DPPE   C3A46975  15.431  17.690   3.806 -0.4409  0.1225 -0.2101
 2093DPPE   C4A46976  15.233  18.099   3.841  0.0607 -0.0171 -0.0641
 2093DPPE   C1B46977  15.889  16.695   4.373 -0.1222  0.3103 -0.1814
 2093DPPE   C2B46978  15.392  16.750   4.448  0.0387 -0.2167 -0.1534
 2093DPPE   C3B46979  14.955  16.680   4.386  0.0085  0.0895  0.2724
 2093DPPE   C4B46980  14.764  16.338   4.453 -0.0295 -0.1031 -0.0051
 2094DPPE   NH346981   1.508  25.371   5.768  0.1666  0.2089 -0.1060
 2094DPPE   PO446982   1.738  25.385   5.462 -0.0491 -0.1567  0.2386
 2094DPPE   GL146983   1.576  25.740   5.292 -0.3529 -0.0055  0.1721
 2094DPPE   GL246984   1.800  25.946   5.246  0.0502  0.1106  0.0607
 2094DPPE   C1A46985   1.209  25.781   5.163 -0.4221  0.1386 -0.1352
 2094DPPE   C2A46986   0.822  25.851   4.922 -0.1284 -0.1198  0.1762
 2094DPPE   C3A46987   0.453  25.805   4.959 -0.0003  0.1884  0.5601
 2094DPPE   C4A46988   0.245  25.377   4.812 -0.0078 -0.1359 -0.0279
 2094DPPE   C1B46989   1.772  26.333   5.086  0.4480  0.3605  0.2993
 2094DPPE   C2B46990   2.004  26.709   4.928 -0.1296 -0.0071 -0.4144
 2094DPPE   C3B46991   2.243  26.945   4.788  0.0614  0.0162  0.3702
 2094DPPE   C4B46992   2.265  27.338   4.522  0.2263  0.0601  0.0425
 2095DPPE   NH346993   1.239  18.346   8.505  0.0927 -0.0039 -0.2543
 2095DPPE   PO446994   0.970  18.591   8.712  0.0254 -0.2528 -0.0127
 2095DPPE   GL146995   0.728  18.277   8.467  0.1078  0.3351 -0.1238
 2095DPPE   GL246996   0.690  18.011   8.601 -0.0188  0.1426  0.2740
 2095DPPE   C1A46997   0.361  18.209   8.246 -0.0326 -0.1175 -0.0433
 2095DPPE   C2A46998   0.078  18.120   7.785  0.1026 -0.4166  0.0957
 2095DPPE   C3A46999  -0.077  18.163   7.467 -0.1215  0.0232  0.1315
 2095DPPE   C4A47000  -0.201  18.266   7.005 -0.2493 -0.3632  0.1638
 2095DPPE   C1B47001   0.204  17.931   8.654  0.0370  0.0371  0.0074
 2095DPPE   C2B47002  -0.144  17.677   8.808 -0.0935  0.3267 -0.1416
 2095DPPE   C3B47003  -0.561  17.574   8.858 -0.0387  0.2353 -0.1533
 2095DPPE   C4B47004  -0.771  17.238   8.762 -0.0993  0.0067 -0.1095
 2096DPPE   NH347005  30.539  19.742  17.518 -0.2165  0.1996  0.1666
 2096DPPE   PO447006  30.237  19.481  17.338 -0.0708 -0.0353 -0.0795
 2096DPPE   GL147007  30.578  19.509  17.077  0.0407  0.0160  0.0214
 2096DPPE   GL247008  30.508  19.524  16.746  0.6171  0.1700  0.1687
 2096DPPE   C1A47009  30.958  19.318  16.907 -0.0411  0.0982  0.0150
 2096DPPE   C2A47010  30.864  18.994  16.647 -0.2604  0.2245 -0.0199
 2096DPPE   C3A47011  30.708  18.629  16.501  0.0616  0.1972 -0.1705
 2096DPPE   C4A47012  30.844  18.245  16.428 -0.1213  0.2150  0.0573
 2096DPPE   C1B47013  30.559  19.554  16.390  0.2142  0.4038 -0.1940
 2096DPPE   C2B47014  30.768  19.672  16.005  0.1804  0.3626  0.2919
 2096DPPE   C3B47015  30.604  19.706  15.613  0.1160 -0.2344  0.1423
 2096DPPE   C4B47016  30.577  19.521  15.204 -0.4238  0.0595  0.0276
 2097DPPE   NH347017  15.236  23.149   0.394  0.2541  0.0854  0.6696
 2097DPPE   PO447018  14.826  23.342   0.662  0.0240 -0.0992 -0.1945
 2097DPPE   GL147019  14.873  23.609   1.067  0.0590 -0.1066 -0.1326
 2097DPPE   GL247020  15.173  23.442   1.198 -0.0841 -0.1869 -0.0570
 2097DPPE   C1A47021  14.918  23.868   1.369  0.3409  0.3042 -0.1152
 2097DPPE   C2A47022  14.452  23.799   1.604  0.1596  0.1011  0.0610
 2097DPPE   C3A47023  14.067  23.745   1.656  0.0434  0.3131 -0.0350
 2097DPPE   C4A47024  13.688  23.942   1.676  0.0035 -0.3564 -0.0639
 2097DPPE   C1B47025  14.931  23.305   1.540 -0.1173 -0.2015  0.0050
 2097DPPE   C2B47026  15.011  22.905   1.622 -0.1110  0.0443  0.0103
 2097DPPE   C3B47027  14.921  22.468   1.577  0.2120  0.2251 -0.0847
 2097DPPE   C4B47028  15.236  22.148   1.699 -0.0112  0.0544  0.3022
 2098DPPE   NH347029   6.251  18.894  24.410  0.2955 -0.1947  0.1570
 2098DPPE   PO447030   6.446  18.580  24.653 -0.0201 -0.0767 -0.3271
 2098DPPE   GL147031   6.637  18.783  24.980  0.0409  0.2752  0.5565
 2098DPPE   GL247032   6.726  19.074  24.950 -0.3125 -0.2196 -0.0054
 2098DPPE   C1A47033   6.803  18.787  25.381  0.2356  0.1755 -0.0094
 2098DPPE   C2A47034   7.092  19.056  25.615  0.0418  0.1738  0.1084
 2098DPPE   C3A47035   7.456  19.303  25.778  0.0331  0.1877 -0.1211
 2098DPPE   C4A47036   7.722  19.359  26.117 -0.1495  0.2271 -0.1370
 2098DPPE   C1B47037   6.930  19.333  25.207 -0.0759  0.1657  0.1539
 2098DPPE   C2B47038   6.924  19.544  25.562  0.2084 -0.1623  0.1940
 2098DPPE   C3B47039   7.098  19.687  25.934 -0.1311  0.1546 -0.0596
 2098DPPE   C4B47040   6.899  19.664  26.261 -0.0550 -0.2595 -0.2570
 2099DPPE   NH347041   1.865  17.580   9.017  0.0370  0.2022  0.1649
 2099DPPE   PO447042   1.688  17.165   8.897  0.2642 -0.1140  0.2136
 2099DPPE   GL147043   1.585  16.741   8.818 -0.0495  0.3484  0.1775
 2099DPPE   GL247044   1.521  16.862   8.486 -0.1539 -0.1297  0.2477
 2099DPPE   C1A47045   1.249  16.466   8.733  0.1981  0.1858 -0.0437
 2099DPPE   C2A47046   0.864  16.177   8.668  0.1034 -0.0740  0.3482
 2099DPPE   C3A47047   0.456  15.931   8.541 -0.1650 -0.1373  0.1632
 2099DPPE   C4A47048   0.141  15.632   8.597 -0.0869 -0.4195 -0.2386
 2099DPPE   C1B47049   1.150  16.809   8.448  0.0140 -0.2410  0.2466
 2099DPPE   C2B47050   0.926  16.605   8.122 -0.0925  0.0576  0.0223
 2099DPPE   C3B47051   0.741  16.430   7.685  0.0782  0.0150  0.1510
 2099DPPE   C4B47052   0.228  16.357   7.535  0.2372  0.0631  0.4190
 2100DPPE   NH347053   1.453  17.643  10.050  0.2321 -0.0403  0.0816
 2100DPPE   PO447054   1.334  17.752  10.507 -0.0955  0.2572 -0.2535
 2100DPPE   GL147055   1.019  17.457  10.323 -0.1312 -0.1995 -0.3698
 2100DPPE   GL247056   1.119  17.183  10.154  0.3081 -0.4758 -0.0604
 2100DPPE   C1A47057   0.667  17.333  10.435  0.7323  0.1100 -0.0220
 2100DPPE   C2A47058   0.222  17.109  10.541 -0.1140  0.1122  0.2272
 2100DPPE   C3A47059  -0.063  16.807  10.416 -0.1572 -0.0903  0.1265
 2100DPPE   C4A47060  -0.384  16.726  10.218 -0.1937  0.1502  0.3568
 2100DPPE   C1B47061   0.973  16.850  10.004  0.0130  0.0095  0.3153
 2100DPPE   C2B47062   0.637  16.751   9.867  0.0805  0.4389  0.1389
 2100DPPE   C3B47063   0.235  16.697   9.763 -0.1274  0.1430  0.0497
 2100DPPE   C4B47064  -0.212  16.580   9.639 -0.0934 -0.0530 -0.2956
 2101DPPE   NH347065  14.834  19.535  10.939  0.2097 -0.0387  0.2157
 2101DPPE   PO447066  15.108  19.757  10.602  0.0747 -0.2100  0.2163
 2101DPPE   GL147067  15.585  19.699  10.571  0.1115  0.0150 -0.2311
 2101DPPE   GL247068  15.778  19.395  10.413  0.1196 -0.0146  0.4719
 2101DPPE   C1A47069  16.004  19.691  10.742  0.0812  0.0088  0.3763
 2101DPPE   C2A47070  16.411  19.566  10.700 -0.0019  0.3814  0.0700
 2101DPPE   C3A47071  16.729  19.494  10.821  0.1700 -0.1748  0.0081
 2101DPPE   C4A47072  17.093  19.631  10.979 -0.2433 -0.0608 -0.2110
 2101DPPE   C1B47073  16.288  19.337  10.274 -0.1624  0.2048 -0.2335
 2101DPPE   C2B47074  16.627  19.015  10.468  0.0661 -0.0176 -0.1523
 2101DPPE   C3B47075  16.940  19.023  10.708  0.0716  0.2219  0.1234
 2101DPPE   C4B47076  17.317  19.040  10.963 -0.1605  0.0556 -0.1430
 2102DPPE   NH347077   2.110   8.710  16.788  0.3428  0.0631  0.0136
 2102DPPE   PO447078   2.134   8.453  16.381  0.3800 -0.1068  0.1762
 2102DPPE   GL147079   2.062   8.865  16.299 -0.0422  0.2437 -0.1390
 2102DPPE   GL247080   1.755   8.951  16.482  0.0263  0.0735  0.1279
 2102DPPE   C1A47081   2.219   9.172  15.802  0.1067  0.2250 -0.1518
 2102DPPE   C2A47082   2.090   9.538  15.569  0.1859  0.4065 -0.0688
 2102DPPE   C3A47083   2.135  10.010  15.477  0.5559  0.2459  0.0365
 2102DPPE   C4A47084   1.940  10.144  15.029  0.1371  0.1153  0.2709
 2102DPPE   C1B47085   1.451   9.277  16.371 -0.1904 -0.0907  0.0654
 2102DPPE   C2B47086   1.305   9.590  16.122  0.1401 -0.0075 -0.0242
 2102DPPE   C3B47087   1.261  10.000  16.071 -0.1407 -0.2229 -0.1133
 2102DPPE   C4B47088   1.461  10.322  15.947  0.0875 -0.0248  0.0748
 2103DPPE   NH347089   4.532  14.215   9.672 -0.0391 -0.0486  0.3312
 2103DPPE   PO447090   4.322  14.476  10.011 -0.2244  0.0009  0.0354
 2103DPPE   GL147091   3.958  14.403   9.662 -0.1162  0.2335 -0.4579
 2103DPPE   GL247092   3.956  14.164   9.941 -0.1592 -0.0509 -0.1554
 2103DPPE   C1A47093   3.558  14.404   9.434 -0.2282  0.0901 -0.0602
 2103DPPE   C2A47094   3.337  14.409   9.056 -0.1715  0.0602 -0.0277
 2103DPPE   C3A47095   3.363  14.400   8.658  0.3146 -0.3021  0.0679
 2103DPPE   C4A47096   3.232  14.701   8.360 -0.2202  0.1288  0.4056
 2103DPPE   C1B47097   3.582  14.080   9.921  0.3041  0.0212 -0.1500
 2103DPPE   C2B47098   3.171  14.013   9.872 -0.1281  0.0237 -0.0570
 2103DPPE   C3B47099   2.689  14.155   9.803  0.0976 -0.3979  0.1429
 2103DPPE   C4B47100   2.278  14.214   9.976  0.1486 -0.1584  0.1202
 2104DPPE   NH347101  38.389  20.250  10.937 -0.0166  0.0471  0.0789
 2104DPPE   PO447102  38.056  20.288  11.151  0.2991  0.0756  0.1598
 2104DPPE   GL147103  37.764  19.946  10.985  0.3848  0.1045  0.0368
 2104DPPE   GL247104  37.775  19.646  11.142  0.1521 -0.3303  0.0876
 2104DPPE   C1A47105  37.266  19.844  10.937 -0.0014  0.0256 -0.0176
 2104DPPE   C2A47106  36.976  19.701  11.027 -0.2909  0.6343 -0.3735
 2104DPPE   C3A47107  36.516  19.663  10.938 -0.2532  0.1923  0.0203
 2104DPPE   C4A47108  36.201  19.539  10.588 -0.0926  0.0098 -0.0387
 2104DPPE   C1B47109  37.453  19.560  11.362 -0.1570 -0.0817 -0.1690
 2104DPPE   C2B47110  36.986  19.463  11.484  0.2332 -0.1302  0.0772
 2104DPPE   C3B47111  36.553  19.456  11.417  0.0734 -0.1121 -0.3245
 2104DPPE   C4B47112  36.173  19.645  11.330 -0.1183  0.1341  0.2255
 2105DPPE   NH347113   6.360  13.221  12.838 -0.2944  0.2041  0.0270
 2105DPPE   PO447114   6.685  13.426  12.933 -0.1319 -0.1194  0.2636
 2105DPPE   GL147115   7.013  13.117  13.127  0.1206  0.0742  0.4069
 2105DPPE   GL247116   6.920  12.771  13.035  0.2741 -0.0271 -0.3757
 2105DPPE   C1A47117   6.983  12.913  13.511 -0.1789 -0.0240 -0.3221
 2105DPPE   C2A47118   6.994  12.997  13.986 -0.3753 -0.2185 -0.2013
 2105DPPE   C3A47119   6.904  13.239  14.381  0.0600  0.1548 -0.1475
 2105DPPE   C4A47120   7.088  13.504  14.562  0.0486 -0.1070  0.0302
 2105DPPE   C1B47121   6.853  12.407  12.810  0.2858  0.0467  0.1069
 2105DPPE   C2B47122   6.405  12.241  12.785 -0.1139 -0.1859  0.1389
 2105DPPE   C3B47123   6.284  11.753  12.672 -0.0071 -0.1422 -0.0517
 2105DPPE   C4B47124   6.386  11.438  12.811  0.1410  0.0229 -0.0974
 2106DPPE   NH347125  36.227  23.685   2.033 -0.0560 -0.0283 -0.1138
 2106DPPE   PO447126  36.011  23.978   2.310  0.1887 -0.2251  0.0804
 2106DPPE   GL147127  36.057  23.587   2.549 -0.4650  0.3343  0.1610
 2106DPPE   GL247128  36.358  23.819   2.701  0.3098 -0.0675 -0.1262
 2106DPPE   C1A47129  36.230  23.326   2.824 -0.0297  0.1489 -0.1553
 2106DPPE   C2A47130  36.188  23.196   3.145  0.0709 -0.4140  0.3465
 2106DPPE   C3A47131  35.819  23.130   3.411  0.3205  0.0783  0.1467
 2106DPPE   C4A47132  35.704  22.680   3.619  0.1150 -0.3007 -0.1967
 2106DPPE   C1B47133  36.570  23.585   3.014  0.1062  0.0261 -0.1032
 2106DPPE   C2B47134  36.716  23.240   3.256  0.0259 -0.1110 -0.0506
 2106DPPE   C3B47135  36.774  22.976   3.580 -0.1154 -0.0971 -0.1371
 2106DPPE   C4B47136  37.041  22.570   3.701  0.2230 -0.1261 -0.1635
 2107DPPE   NH347137   5.903  28.230  13.037  0.2480 -0.0278  0.3193
 2107DPPE   PO447138   6.098  28.483  13.448 -0.2588 -0.4219  0.0249
 2107DPPE   GL147139   6.069  28.889  13.385 -0.6127 -0.0687 -0.1196
 2107DPPE   GL247140   6.155  29.036  13.731 -0.0103  0.0463  0.1545
 2107DPPE   C1A47141   6.041  29.357  13.304 -0.0173  0.1522 -0.1019
 2107DPPE   C2A47142   6.036  29.792  13.210  0.3167  0.1162 -0.1095
 2107DPPE   C3A47143   5.898  30.254  13.132 -0.0546  0.0756 -0.2143
 2107DPPE   C4A47144   6.326  30.603  12.978  0.0382 -0.1540 -0.0179
 2107DPPE   C1B47145   6.225  29.392  13.916 -0.1398 -0.0861 -0.2455
 2107DPPE   C2B47146   6.147  29.619  14.246  0.1721  0.1671 -0.4469
 2107DPPE   C3B47147   6.132  29.767  14.591 -0.0234 -0.2047 -0.1782
 2107DPPE   C4B47148   6.404  30.035  14.820 -0.1176 -0.0155 -0.1126
 2108DPPE   NH347149   0.581  19.961  12.369 -0.1495 -0.2517  0.1683
 2108DPPE   PO447150   0.216  19.811  12.300 -0.1649 -0.0313  0.5795
 2108DPPE   GL147151  -0.102  19.690  12.528 -0.1206 -0.3551 -0.0216
 2108DPPE   GL247152  -0.065  19.336  12.650 -0.0850  0.2104 -0.2899
 2108DPPE   C1A47153  -0.622  19.624  12.655 -0.1335 -0.1191  0.2079
 2108DPPE   C2A47154  -0.999  19.656  12.859 -0.0888  0.2742 -0.0018
 2108DPPE   C3A47155  -1.339  19.445  13.048 -0.0698 -0.2760  0.1357
 2108DPPE   C4A47156  -1.690  19.223  13.162  0.0317  0.0821  0.2373
 2108DPPE   C1B47157  -0.461  19.168  12.826  0.0614 -0.4050 -0.1234
 2108DPPE   C2B47158  -0.884  19.251  13.112 -0.1028 -0.0303  0.0992
 2108DPPE   C3B47159  -0.882  18.996  13.444 -0.1851  0.2711 -0.0041
 2108DPPE   C4B47160  -0.884  18.670  13.811 -0.0106  0.0378  0.1769
 2109DPPE   NH347161  38.386  23.958   9.933 -0.2674  0.3376 -0.0423
 2109DPPE   PO447162  37.918  23.912   9.666  0.3112  0.1588  0.3288
 2109DPPE   GL147163  37.552  23.590   9.682 -0.0744  0.2193  0.0434
 2109DPPE   GL247164  37.604  23.238   9.896  0.0833 -0.2555  0.3698
 2109DPPE   C1A47165  37.180  23.500   9.488  0.4488  0.1765  0.0852
 2109DPPE   C2A47166  36.784  23.157   9.407  0.0167  0.1535  0.0335
 2109DPPE   C3A47167  36.482  22.989   9.353 -0.0690 -0.0122  0.1845
 2109DPPE   C4A47168  36.076  22.833   9.586  0.2829 -0.0252  0.1203
 2109DPPE   C1B47169  37.368  22.968  10.217  0.0649  0.0882  0.2367
 2109DPPE   C2B47170  37.007  22.988  10.282  0.0656 -0.2392 -0.1429
 2109DPPE   C3B47171  36.609  23.156  10.440  0.1954  0.4454 -0.0256
 2109DPPE   C4B47172  36.198  23.223  10.594 -0.0271  0.1684  0.0743
 2110DPPE   NH347173   5.323  13.093   7.881  0.1332  0.1167  0.1444
 2110DPPE   PO447174   5.069  13.472   8.087  0.1459 -0.2116 -0.2395
 2110DPPE   GL147175   4.673  13.364   8.367  0.0930  0.0802  0.2198
 2110DPPE   GL247176   4.626  13.199   8.667  0.1935 -0.0653 -0.2591
 2110DPPE   C1A47177   4.354  13.147   8.017  0.0284 -0.0325 -0.3557
 2110DPPE   C2A47178   4.074  12.761   7.974 -0.0436  0.4387 -0.3656
 2110DPPE   C3A47179   4.097  12.316   8.134 -0.0338  0.0838  0.0554
 2110DPPE   C4A47180   4.393  12.000   8.441  0.3360  0.0720  0.1899
 2110DPPE   C1B47181   4.212  13.209   8.552  0.2688 -0.0236 -0.0100
 2110DPPE   C2B47182   3.855  13.026   8.307 -0.1291  0.1019  0.0816
 2110DPPE   C3B47183   3.430  12.951   8.351 -0.0721  0.0814 -0.1618
 2110DPPE   C4B47184   3.134  12.621   8.504  0.1434 -0.1851 -0.2112
 2111DPPE   NH347185   3.059  25.936   4.853 -0.0707 -0.2220  0.0617
 2111DPPE   PO447186   3.172  26.165   5.274 -0.0317 -0.2844 -0.0750
 2111DPPE   GL147187   3.252  26.451   4.840 -0.1425 -0.0149 -0.2927
 2111DPPE   GL247188   3.257  26.720   4.883 -0.0804  0.1104 -0.1142
 2111DPPE   C1A47189   3.346  26.523   4.358  0.0718  0.3144 -0.0825
 2111DPPE   C2A47190   3.469  26.338   4.045  0.3714  0.1260 -0.2746
 2111DPPE   C3A47191   3.383  26.523   3.551  0.2511  0.1891 -0.0795
 2111DPPE   C4A47192   3.083  26.729   3.408 -0.0638 -0.0764 -0.2417
 2111DPPE   C1B47193   3.120  27.041   4.555 -0.0236  0.1992  0.0137
 2111DPPE   C2B47194   3.100  27.258   4.155  0.1328  0.1722 -0.0237
 2111DPPE   C3B47195   3.436  26.900   3.998 -0.3967  0.1514 -0.0525
 2111DPPE   C4B47196   3.762  26.722   4.213  0.2739 -0.2543  0.0359
 2112DPPE   NH347197   3.834  16.471  15.792 -0.2374  0.1774  0.2688
 2112DPPE   PO447198   3.374  16.433  15.641  0.0895  0.0014  0.1164
 2112DPPE   GL147199   2.995  16.421  15.857  0.1022  0.3898  0.0897
 2112DPPE   GL247200   2.851  16.611  16.013  0.0087  0.2374  0.0431
 2112DPPE   C1A47201   2.706  16.149  16.023 -0.2284 -0.0998  0.1545
 2112DPPE   C2A47202   2.458  16.245  15.749 -0.2174  0.1016 -0.0690
 2112DPPE   C3A47203   2.610  16.279  15.422 -0.2804  0.0238 -0.0075
 2112DPPE   C4A47204   2.777  16.631  15.447  0.1666 -0.0209  0.2017
 2112DPPE   C1B47205   2.423  16.599  16.041 -0.3503  0.0442 -0.0819
 2112DPPE   C2B47206   2.029  16.754  15.973 -0.0522  0.4404  0.1369
 2112DPPE   C3B47207   1.934  17.038  15.751  0.2354 -0.0048  0.2590
 2112DPPE   C4B47208   1.779  17.352  15.473 -0.0422 -0.4525 -0.0796
 2113DPPE   NH347209  32.617  26.690   9.893 -0.0480 -0.2091 -0.3809
 2113DPPE   PO447210  32.529  26.525  10.312 -0.0487  0.0263  0.3864
 2113DPPE   GL147211  32.906  26.259  10.156  0.2245 -0.1717 -0.2425
 2113DPPE   GL247212  33.190  26.437  10.079 -0.1703 -0.0471 -0.0575
 2113DPPE   C1A47213  33.080  25.896  10.206  0.1150  0.0472 -0.1439
 2113DPPE   C2A47214  33.439  25.672  10.193 -0.0406  0.0832  0.2162
 2113DPPE   C3A47215  33.631  25.264  10.358  0.2733 -0.0960  0.2771
 2113DPPE   C4A47216  33.616  24.838  10.367 -0.2894 -0.1312  0.0035
 2113DPPE   C1B47217  33.610  26.160  10.174  0.2294 -0.1710  0.1057
 2113DPPE   C2B47218  33.970  25.865  10.205  0.0954 -0.0588  0.3604
 2113DPPE   C3B47219  33.939  25.502   9.984  0.0510 -0.3205 -0.1841
 2113DPPE   C4B47220  33.960  25.078  10.061 -0.2524  0.2068 -0.1043
 2114DPPE   NH347221  19.234  22.674   9.184 -0.0038  0.0503 -0.1256
 2114DPPE   PO447222  19.205  23.162   9.377 -0.2915 -0.0082  0.0004
 2114DPPE   GL147223  18.838  22.894   9.496 -0.0148 -0.0946  0.0292
 2114DPPE   GL247224  18.728  23.094   9.249 -0.0631 -0.0969  0.2159
 2114DPPE   C1A47225  18.621  22.515   9.518 -0.1129  0.1293  0.0243
 2114DPPE   C2A47226  18.311  22.306   9.322  0.5220 -0.0728  0.2827
 2114DPPE   C3A47227  18.135  21.909   9.153  0.0045  0.1532  0.1526
 2114DPPE   C4A47228  18.481  21.541   9.264 -0.0463 -0.1088 -0.0661
 2114DPPE   C1B47229  18.329  23.247   9.272  0.2609 -0.2700  0.1228
 2114DPPE   C2B47230  17.902  23.097   9.044  0.2324 -0.2020 -0.1004
 2114DPPE   C3B47231  17.528  23.404   9.127 -0.1452  0.1737 -0.1794
 2114DPPE   C4B47232  17.203  23.619   9.173 -0.0050 -0.1479 -0.3466
 2115DPPE   NH347233  10.735  27.988   9.994  0.1575 -0.0569  0.1347
 2115DPPE   PO447234  10.718  27.906  10.496 -0.2852 -0.2301  0.1877
 2115DPPE   GL147235  10.825  28.319  10.333 -0.0224 -0.1332 -0.0507
 2115DPPE   GL247236  10.927  28.514  10.622 -0.1419 -0.0981 -0.1736
 2115DPPE   C1A47237  10.934  28.778  10.179  0.1315 -0.3330 -0.2471
 2115DPPE   C2A47238  11.271  29.044  10.210  0.2901  0.0429  0.1875
 2115DPPE   C3A47239  11.569  29.402  10.129 -0.0306  0.0346 -0.2805
 2115DPPE   C4A47240  11.822  29.829  10.037  0.1283 -0.0848  0.0420
 2115DPPE   C1B47241  11.114  28.888  10.640 -0.1117  0.0224 -0.2348
 2115DPPE   C2B47242  11.214  29.317  10.774  0.0081 -0.0635  0.1314
 2115DPPE   C3B47243  11.495  29.466  11.091 -0.1185 -0.0008 -0.0613
 2115DPPE   C4B47244  11.824  29.792  11.049  0.0322  0.1420 -0.0458
 2116DPPE   NH347245   5.131   8.089   7.731  0.1207  0.1448 -0.1445
 2116DPPE   PO447246   4.841   8.452   7.728 -0.0469 -0.1020  0.2329
 2116DPPE   GL147247   4.419   8.446   7.620  0.3418 -0.1738 -0.2772
 2116DPPE   GL247248   4.210   8.263   7.583  0.3124  0.0934  0.4777
 2116DPPE   C1A47249   4.131   8.611   8.003 -0.0313  0.0395  0.1534
 2116DPPE   C2A47250   3.940   8.706   8.384  0.3943  0.0755  0.2666
 2116DPPE   C3A47251   4.228   8.789   8.726  0.1028  0.2698  0.3900
 2116DPPE   C4A47252   4.281   9.166   8.828 -0.3489  0.2606 -0.0643
 2116DPPE   C1B47253   3.789   8.312   7.609 -0.2263 -0.0871  0.0233
 2116DPPE   C2B47254   3.428   8.140   7.870 -0.3593  0.3082  0.4259
 2116DPPE   C3B47255   3.000   7.879   8.051  0.1554 -0.1473 -0.2143
 2116DPPE   C4B47256   3.012   7.519   8.336 -0.0749  0.1726  0.0145
 2117DPPE   NH347257  33.287  20.885   0.823  0.1626  0.3192  0.2229
 2117DPPE   PO447258  33.560  21.210   0.867  0.2567  0.1209  0.1458
 2117DPPE   GL147259  33.827  20.951   1.106 -0.1379  0.3876 -0.0353
 2117DPPE   GL247260  33.947  20.615   1.155  0.2084 -0.3387  0.0217
 2117DPPE   C1A47261  33.993  21.031   1.500 -0.0858 -0.1284 -0.1314
 2117DPPE   C2A47262  33.964  21.199   1.901 -0.1315 -0.1636 -0.0728
 2117DPPE   C3A47263  34.056  21.430   2.224 -0.0569  0.2639 -0.2359
 2117DPPE   C4A47264  34.282  21.874   2.501  0.0829  0.2684 -0.0459
 2117DPPE   C1B47265  34.371  20.739   1.542 -0.2885  0.0389  0.4328
 2117DPPE   C2B47266  34.492  20.787   1.956 -0.1823  0.1623  0.1484
 2117DPPE   C3B47267  34.196  20.689   2.303 -0.1642  0.1091  0.1029
 2117DPPE   C4B47268  34.470  20.526   2.694 -0.0025 -0.0943 -0.1085
 2118DPPE   NH347269  10.060  11.066  15.444  0.0246 -0.5173  0.1023
 2118DPPE   PO447270  10.350  11.085  15.209 -0.0508  0.2579 -0.1833
 2118DPPE   GL147271  10.480  11.221  14.827 -0.0499  0.1758  0.0894
 2118DPPE   GL247272  10.610  11.512  14.864  0.0168 -0.1599 -0.2150
 2118DPPE   C1A47273  10.269  11.488  14.486  0.0302  0.3587 -0.1294
 2118DPPE   C2A47274   9.996  11.541  14.105 -0.1525  0.0565 -0.1940
 2118DPPE   C3A47275   9.882  11.826  13.898 -0.1093  0.0588 -0.0016
 2118DPPE   C4A47276   9.843  12.038  13.480 -0.0491  0.1660  0.0463
 2118DPPE   C1B47277  10.419  11.892  14.813 -0.0592 -0.1148 -0.0545
 2118DPPE   C2B47278  10.247  12.261  14.839  0.0729 -0.1584  0.1391
 2118DPPE   C3B47279  10.215  12.674  14.968  0.4358 -0.1538 -0.4592
 2118DPPE   C4B47280  10.048  13.091  14.885  0.0555 -0.1915 -0.4922
 2119DPPE   NH347281  35.240   7.910   9.325 -0.0837  0.2490  0.1090
 2119DPPE   PO447282  35.397   8.230   9.727  0.4953 -0.0658  0.2376
 2119DPPE   GL147283  35.584   8.385  10.119  0.3434  0.1561 -0.2674
 2119DPPE   GL247284  35.819   8.417  10.402 -0.0343  0.0086 -0.1225
 2119DPPE   C1A47285  35.593   8.881  10.240 -0.3597  0.0699 -0.0618
 2119DPPE   C2A47286  35.678   9.368  10.176  0.0772 -0.2339  0.3229
 2119DPPE   C3A47287  36.018   9.625   9.867  0.0198  0.0988 -0.2056
 2119DPPE   C4A47288  35.910   9.765   9.453  0.4534 -0.0746  0.0298
 2119DPPE   C1B47289  36.140   8.738  10.413 -0.0559 -0.1979 -0.0296
 2119DPPE   C2B47290  36.079   9.120  10.321 -0.1922 -0.3013  0.2573
 2119DPPE   C3B47291  36.450   9.529  10.302  0.0053  0.2292 -0.1165
 2119DPPE   C4B47292  36.719   9.827  10.286  0.1408 -0.2956 -0.0813
 2120DPPE   NH347293   7.406  18.767   2.282 -0.0630 -0.2379  0.4405
 2120DPPE   PO447294   7.337  19.213   2.100  0.0262 -0.1233 -0.0636
 2120DPPE   GL147295   7.297  19.020   1.736  0.1684  0.2741 -0.0885
 2120DPPE   GL247296   7.013  19.200   1.518 -0.3115  0.4380  0.1535
 2120DPPE   C1A47297   7.447  18.951   1.363 -0.0199 -0.0274  0.1556
 2120DPPE   C2A47298   7.706  18.831   1.106  0.2242 -0.2536 -0.0385
 2120DPPE   C3A47299   7.752  18.490   0.866  0.2710 -0.0362  0.1306
 2120DPPE   C4A47300   8.162  18.350   0.721 -0.2913  0.1157  0.0934
 2120DPPE   C1B47301   7.050  19.221   1.140  0.0181  0.2942  0.5114
 2120DPPE   C2B47302   7.252  18.946   0.894 -0.0843  0.1342  0.0115
 2120DPPE   C3B47303   7.524  18.850   0.593  0.1093 -0.0150 -0.1807
 2120DPPE   C4B47304   7.951  18.727   0.495 -0.1861 -0.1769  0.0332
 2121DPPE   NH347305   3.806   7.259  10.545 -0.1732 -0.0771 -0.1928
 2121DPPE   PO447306   3.459   7.075  10.318 -0.0095 -0.0201  0.1732
 2121DPPE   GL147307   3.243   7.260   9.939 -0.0752 -0.0304  0.1036
 2121DPPE   GL247308   2.927   7.146  10.065 -0.3419 -0.3816  0.1003
 2121DPPE   C1A47309   3.086   7.597   9.555  0.1087  0.0435 -0.4555
 2121DPPE   C2A47310   2.866   7.993   9.366 -0.1968  0.3110 -0.1537
 2121DPPE   C3A47311   3.118   8.286   9.337 -0.1108 -0.1651  0.0788
 2121DPPE   C4A47312   3.451   8.326   9.105 -0.0186  0.2226 -0.1119
 2121DPPE   C1B47313   2.793   7.533  10.036  0.2124  0.1862  0.1317
 2121DPPE   C2B47314   2.749   7.852  10.302 -0.1714 -0.2628 -0.0865
 2121DPPE   C3B47315   2.639   7.521  10.523  0.0236  0.0433  0.0109
 2121DPPE   C4B47316   2.541   7.453  10.904  0.0903 -0.2779  0.0587
 2122DPPE   NH347317   2.646  17.205   7.089  0.2340 -0.1309  0.0085
 2122DPPE   PO447318   2.893  16.806   6.867 -0.0591  0.0261 -0.1108
 2122DPPE   GL147319   2.454  16.690   6.876 -0.0335 -0.1653 -0.5036
 2122DPPE   GL247320   2.633  16.346   7.055 -0.0640  0.0264 -0.0997
 2122DPPE   C1A47321   2.229  16.459   6.645 -0.2923  0.1770  0.4131
 2122DPPE   C2A47322   1.825  16.342   6.742  0.2604  0.2495  0.1351
 2122DPPE   C3A47323   1.559  16.035   6.991  0.4480 -0.1984  0.1221
 2122DPPE   C4A47324   1.077  16.059   7.048 -0.0390  0.0875 -0.1335
 2122DPPE   C1B47325   2.226  16.188   7.074  0.0907  0.2756  0.5112
 2122DPPE   C2B47326   1.993  15.811   7.297 -0.1596  0.0717  0.0535
 2122DPPE   C3B47327   2.289  15.497   7.496 -0.1592  0.2289  0.2081
 2122DPPE   C4B47328   2.651  15.569   7.699  0.0724 -0.3739  0.1529
 2123DPPE   NH347329  10.882  21.730   2.616  0.3001 -0.2865  0.3420
 2123DPPE   PO447330  10.531  21.477   2.448 -0.0471  0.2486 -0.2166
 2123DPPE   GL147331  10.747  21.403   2.107  0.1117 -0.0593 -0.2092
 2123DPPE   GL247332  11.000  21.541   2.158  0.1442 -0.2575 -0.0719
 2123DPPE   C1A47333  10.846  21.266   1.722 -0.1766 -0.0134  0.0837
 2123DPPE   C2A47334  10.939  21.531   1.444  0.2595  0.1642 -0.1501
 2123DPPE   C3A47335  10.739  21.655   0.947 -0.1478 -0.0599  0.0695
 2123DPPE   C4A47336  10.714  21.656   0.469 -0.0787 -0.0118  0.0557
 2123DPPE   C1B47337  11.321  21.377   1.899 -0.0217  0.0518  0.1196
 2123DPPE   C2B47338  11.797  21.490   1.802  0.0525  0.0473 -0.2441
 2123DPPE   C3B47339  12.176  21.779   1.620 -0.1098 -0.1290  0.0083
 2123DPPE   C4B47340  12.464  21.985   1.881 -0.0691  0.4463 -0.1843
 2124DPPE   NH347341  33.797  10.206   9.413  0.0236 -0.1423 -0.0932
 2124DPPE   PO447342  33.544  10.325   9.048  0.4465  0.2532  0.0473
 2124DPPE   GL147343  33.784  10.682   9.168  0.3137  0.0780 -0.2528
 2124DPPE   GL247344  33.837  11.004   8.983 -0.1355 -0.1004 -0.0464
 2124DPPE   C1A47345  34.218  10.715   9.325 -0.0974  0.0882  0.3091
 2124DPPE   C2A47346  34.634  10.760   9.303 -0.2134  0.2371 -0.2411
 2124DPPE   C3A47347  34.954  10.387   9.407  0.2823 -0.1364  0.3262
 2124DPPE   C4A47348  35.278  10.436   9.335  0.0549 -0.2702 -0.2794
 2124DPPE   C1B47349  34.252  11.028   8.772 -0.0312 -0.0719 -0.0014
 2124DPPE   C2B47350  34.412  11.371   8.636  0.3785 -0.0279 -0.0774
 2124DPPE   C3B47351  34.678  11.722   8.765 -0.0860  0.0315  0.2206
 2124DPPE   C4B47352  34.868  12.152   8.686 -0.0476  0.0677  0.3171
 2125DPPE   NH347353   0.826  19.097   8.653  0.5418 -0.1999 -0.2268
 2125DPPE   PO447354   0.943  19.381   8.302 -0.1981 -0.0073 -0.1718
 2125DPPE   GL147355   0.504  19.099   8.271 -0.0553 -0.0878  0.2183
 2125DPPE   GL247356   0.554  18.738   8.424  0.2327 -0.1268  0.3248
 2125DPPE   C1A47357   0.240  18.973   8.036 -0.2707  0.0827 -0.0844
 2125DPPE   C2A47358   0.162  18.590   7.993  0.1899 -0.1759 -0.3041
 2125DPPE   C3A47359  -0.120  18.180   8.283 -0.1798 -0.3809  0.2338
 2125DPPE   C4A47360  -0.370  17.910   8.457 -0.3270 -0.0981  0.1860
 2125DPPE   C1B47361   0.718  18.511   8.026  0.0372 -0.2042 -0.1022
 2125DPPE   C2B47362   0.834  18.077   7.974  0.0832  0.1938  0.3859
 2125DPPE   C3B47363   0.511  17.917   7.752 -0.2349  0.1313  0.1018
 2125DPPE   C4B47364   0.098  17.713   7.504  0.1559  0.1372 -0.2409
 2126DPPE   NH347365   0.521  18.600  12.832  0.0665  0.1053 -0.2547
 2126DPPE   PO447366   0.508  18.251  12.687  0.0089  0.1581 -0.1533
 2126DPPE   GL147367   0.101  18.210  12.644  0.0607 -0.0699  0.2325
 2126DPPE   GL247368  -0.018  18.481  12.796 -0.0585 -0.0766 -0.4091
 2126DPPE   C1A47369  -0.221  17.991  12.775 -0.3072  0.1397 -0.0153
 2126DPPE   C2A47370  -0.540  17.715  12.667 -0.1455 -0.2649  0.1709
 2126DPPE   C3A47371  -0.717  17.436  12.395  0.4164 -0.3020  0.1176
 2126DPPE   C4A47372  -0.873  16.969  12.594 -0.4029  0.0365  0.0413
 2126DPPE   C1B47373  -0.364  18.421  13.055 -0.2381 -0.1376 -0.0055
 2126DPPE   C2B47374  -0.772  18.397  13.127 -0.1607  0.0516  0.2850
 2126DPPE   C3B47375  -1.163  18.514  13.323 -0.0676 -0.0351 -0.3974
 2126DPPE   C4B47376  -1.500  18.449  13.158  0.2868  0.0523 -0.3365
 2127DPPE   NH347377  29.087  18.331  15.156  0.3866 -0.0929  0.1939
 2127DPPE   PO447378  29.543  18.374  15.076  0.0223 -0.1322  0.3718
 2127DPPE   GL147379  29.957  18.387  15.193 -0.3485 -0.3957 -0.1263
 2127DPPE   GL247380  30.194  18.643  15.261  0.3219  0.1250  0.2406
 2127DPPE   C1A47381  30.221  18.101  15.049 -0.0774 -0.2213 -0.0267
 2127DPPE   C2A47382  30.304  18.065  14.647 -0.1890  0.1695  0.1089
 2127DPPE   C3A47383  30.452  17.848  14.297  0.2090  0.2168  0.0719
 2127DPPE   C4A47384  30.175  17.667  13.954 -0.0284  0.0646 -0.2725
 2127DPPE   C1B47385  30.344  18.597  14.853 -0.2234 -0.1501 -0.2307
 2127DPPE   C2B47386  30.852  18.720  14.705 -0.1126 -0.0460 -0.0620
 2127DPPE   C3B47387  31.049  18.799  14.300  0.0354  0.1696  0.0344
 2127DPPE   C4B47388  31.046  19.084  14.043 -0.1677 -0.1394 -0.2173
 2128DPPE   NH347389  13.437  13.902  16.264 -0.0567  0.3903  0.0229
 2128DPPE   PO447390  13.268  13.797  15.882  0.0961  0.1148 -0.4237
 2128DPPE   GL147391  13.318  14.091  15.404 -0.1639 -0.0534  0.0700
 2128DPPE   GL247392  13.374  13.949  15.037  0.2070  0.1830  0.1029
 2128DPPE   C1A47393  13.075  14.377  15.198  0.0403 -0.0560 -0.2760
 2128DPPE   C2A47394  12.865  14.541  14.902  0.0905 -0.0314 -0.0701
 2128DPPE   C3A47395  12.594  14.661  14.559 -0.1957 -0.1693 -0.0471
 2128DPPE   C4A47396  12.619  14.722  14.118 -0.1226 -0.0120  0.6286
 2128DPPE   C1B47397  13.094  14.017  14.741  0.0523 -0.1308  0.3832
 2128DPPE   C2B47398  12.854  14.227  14.420  0.3554 -0.0242  0.2550
 2128DPPE   C3B47399  12.674  14.210  14.126  0.3351  0.2571  0.0024
 2128DPPE   C4B47400  12.454  14.327  13.816  0.2279  0.0522  0.0238
 2129DPPE   NH347401  18.993  22.332  12.707 -0.1412  0.0987  0.0512
 2129DPPE   PO447402  18.985  22.505  12.246  0.0349 -0.1245 -0.1517
 2129DPPE   GL147403  18.789  22.104  12.259 -0.0990 -0.1406  0.1245
 2129DPPE   GL247404  18.623  21.980  12.505 -0.3587 -0.3113  0.0211
 2129DPPE   C1A47405  18.421  21.954  12.014 -0.1840 -0.2245  0.2411
 2129DPPE   C2A47406  18.162  21.638  11.942  0.2417 -0.0952 -0.1165
 2129DPPE   C3A47407  17.670  21.572  12.108 -0.1036 -0.0545 -0.1488
 2129DPPE   C4A47408  17.333  21.794  12.149 -0.2535  0.0739 -0.0102
 2129DPPE   C1B47409  18.151  22.007  12.464 -0.1291  0.1868 -0.1865
 2129DPPE   C2B47410  17.679  22.001  12.466 -0.1438  0.2115  0.3342
 2129DPPE   C3B47411  17.287  22.111  12.734  0.0472  0.0972  0.1597
 2129DPPE   C4B47412  16.879  22.039  12.625  0.2728  0.1337 -0.0886
 2130DPPE   NH347413   4.895  32.926  10.329 -0.0434  0.0050  0.0241
 2130DPPE   PO447414   4.540  32.940  10.124  0.0400 -0.2256  0.3155
 2130DPPE   GL147415   4.635  32.565   9.958 -0.2746 -0.0499  0.3198
 2130DPPE   GL247416   4.734  32.465  10.166 -0.1510  0.1703  0.0573
 2130DPPE   C1A47417   4.603  32.112   9.831 -0.0452  0.3245 -0.2846
 2130DPPE   C2A47418   4.628  31.778  10.005 -0.0700  0.2577 -0.0696
 2130DPPE   C3A47419   4.702  31.410  10.169 -0.1101 -0.4879 -0.2056
 2130DPPE   C4A47420   4.993  31.064  10.238 -0.1620  0.0123 -0.0781
 2130DPPE   C1B47421   4.592  32.165  10.323 -0.1275 -0.0114  0.1133
 2130DPPE   C2B47422   4.652  31.805  10.501 -0.0386  0.1753 -0.0301
 2130DPPE   C3B47423   4.749  31.402  10.623  0.2321 -0.0587  0.0174
 2130DPPE   C4B47424   4.753  30.983  10.764  0.1507 -0.0130  0.0640
 2131DPPE   NH347425  10.229  10.795  14.838 -0.0961 -0.0285  0.3287
 2131DPPE   PO447426  10.291  10.855  14.521  0.4674  0.0411  0.0174
 2131DPPE   GL147427  10.106  10.974  14.165  0.1362  0.0415  0.3345
 2131DPPE   GL247428   9.763  10.811  14.278 -0.2365 -0.2730  0.0880
 2131DPPE   C1A47429  10.090  11.195  13.697  0.2047  0.1925 -0.0435
 2131DPPE   C2A47430  10.123  11.650  13.483  0.3546  0.0260 -0.0753
 2131DPPE   C3A47431  10.265  11.937  13.138  0.0635 -0.2125  0.0008
 2131DPPE   C4A47432  10.425  12.233  12.872  0.0098  0.1633  0.0317
 2131DPPE   C1B47433   9.598  11.058  14.227  0.0728 -0.0801  0.1717
 2131DPPE   C2B47434   9.308  11.368  14.083 -0.0293  0.1577  0.1205
 2131DPPE   C3B47435   9.138  11.762  14.007  0.3087  0.0819 -0.3577
 2131DPPE   C4B47436   9.139  12.149  13.820 -0.0791  0.1479 -0.1457
 2132DPPE   NH347437   1.173  28.989   2.765 -0.0542  0.3041 -0.0773
 2132DPPE   PO447438   0.952  28.735   3.096  0.0798  0.0869 -0.1505
 2132DPPE   GL147439   1.024  28.400   3.358 -0.0673 -0.1892  0.0018
 2132DPPE   GL247440   0.910  28.083   3.339 -0.0589 -0.3558 -0.2035
 2132DPPE   C1A47441   1.517  28.267   3.315  0.1970  0.4868 -0.1345
 2132DPPE   C2A47442   1.862  28.047   3.383 -0.0816  0.2298  0.1615
 2132DPPE   C3A47443   2.056  27.943   3.788  0.1282  0.1403 -0.0864
 2132DPPE   C4A47444   2.173  27.923   4.211 -0.0113  0.0465 -0.1354
 2132DPPE   C1B47445   1.383  27.753   3.358  0.4297 -0.2383 -0.2745
 2132DPPE   C2B47446   1.527  27.226   3.362  0.2316 -0.2379 -0.0694
 2132DPPE   C3B47447   1.696  26.979   3.749  0.1939  0.1021  0.3310
 2132DPPE   C4B47448   2.001  27.006   3.993 -0.5469  0.3153 -0.2565
 2133DPPE   NH347449   3.075  15.644  10.229  0.0264 -0.0591 -0.2413
 2133DPPE   PO447450   2.965  15.908  10.058 -0.0211 -0.1054 -0.4516
 2133DPPE   GL147451   2.612  15.630  10.003  0.3869 -0.2189 -0.0891
 2133DPPE   GL247452   2.579  15.507  10.369  0.0948  0.1062  0.1623
 2133DPPE   C1A47453   2.190  15.438   9.776  0.1607 -0.2307 -0.2236
 2133DPPE   C2A47454   1.999  14.989   9.559  0.0443 -0.0288  0.1366
 2133DPPE   C3A47455   1.720  14.631   9.664  0.0690 -0.0880 -0.2392
 2133DPPE   C4A47456   1.768  14.312  10.075 -0.1597  0.1633 -0.1486
 2133DPPE   C1B47457   2.379  15.092  10.290 -0.0506  0.2898 -0.1694
 2133DPPE   C2B47458   2.278  14.773  10.448  0.0811 -0.3041  0.0903
 2133DPPE   C3B47459   1.966  14.423  10.641 -0.2538 -0.0676  0.1299
 2133DPPE   C4B47460   1.882  14.033  10.859  0.1031 -0.0633  0.0321
 2134DPPE   NH347461  37.414  23.768  11.665 -0.0103  0.0089 -0.1468
 2134DPPE   PO447462  37.356  23.518  11.969  0.0440  0.2095  0.0668
 2134DPPE   GL147463  37.002  23.195  11.912  0.0865  0.0158  0.1432
 2134DPPE   GL247464  36.713  23.291  11.973  0.2290 -0.2864 -0.1299
 2134DPPE   C1A47465  36.756  22.911  11.561  0.0686  0.3080 -0.2483
 2134DPPE   C2A47466  36.598  23.138  11.140 -0.0270 -0.1564 -0.1070
 2134DPPE   C3A47467  36.742  23.491  10.795 -0.1309  0.1211  0.2911
 2134DPPE   C4A47468  36.655  23.656  10.285 -0.0247 -0.3375  0.0421
 2134DPPE   C1B47469  36.265  23.261  12.059 -0.0448  0.1690 -0.0914
 2134DPPE   C2B47470  35.751  23.150  12.056  0.0264 -0.4242 -0.1473
 2134DPPE   C3B47471  35.296  23.081  11.899 -0.1459 -0.1455 -0.1783
 2134DPPE   C4B47472  35.001  22.942  11.719 -0.0187  0.0273  0.1391
 2135DPPE   NH347473  10.131  17.766  21.970  0.2235  0.2633 -0.3132
 2135DPPE   PO447474  10.431  17.637  21.573  0.0134  0.1269 -0.1022
 2135DPPE   GL147475  10.141  17.883  21.272 -0.1347 -0.1074 -0.3026
 2135DPPE   GL247476  10.044  18.237  21.195  0.1118 -0.2434 -0.2034
 2135DPPE   C1A47477   9.825  17.821  20.875 -0.1154 -0.0638 -0.2229
 2135DPPE   C2A47478   9.525  17.907  20.469 -0.0910 -0.2415 -0.3477
 2135DPPE   C3A47479   9.336  17.935  20.073  0.2222 -0.2286  0.3374
 2135DPPE   C4A47480   9.241  17.673  19.651  0.1081 -0.2369 -0.1164
 2135DPPE   C1B47481  10.249  18.311  20.875 -0.0631  0.5064  0.4795
 2135DPPE   C2B47482  10.402  18.356  20.450  0.1040  0.2229  0.0325
 2135DPPE   C3B47483  10.642  18.421  20.149 -0.2216 -0.0108 -0.3410
 2135DPPE   C4B47484  10.709  18.617  19.777 -0.4161 -0.0594  0.0979
 2136DPPE   NH347485   6.329  20.905  22.827 -0.1531 -0.2978  0.0486
 2136DPPE   PO447486   6.410  20.632  23.066 -0.0032 -0.1601  0.0445
 2136DPPE   GL147487   6.708  20.350  22.725 -0.0654  0.0782  0.0176
 2136DPPE   GL247488   6.994  20.427  22.660  0.0786  0.0859  0.2641
 2136DPPE   C1A47489   6.625  20.152  22.403 -0.3001 -0.2914  0.2174
 2136DPPE   C2A47490   6.258  20.215  22.153  0.0214  0.3231  0.1073
 2136DPPE   C3A47491   5.939  20.015  21.911 -0.0056  0.1454 -0.0370
 2136DPPE   C4A47492   5.796  20.274  21.558  0.3379  0.1189 -0.3957
 2136DPPE   C1B47493   7.037  20.676  22.222  0.1569 -0.3391  0.2438
 2136DPPE   C2B47494   6.888  20.739  21.795 -0.3265 -0.0997  0.2127
 2136DPPE   C3B47495   6.909  20.576  21.360  0.2096  0.1067  0.1854
 2136DPPE   C4B47496   6.761  20.570  21.026  0.0672 -0.1164  0.0101
 2137DPPE   NH347497  35.843  26.892   4.680 -0.0232 -0.0643  0.0286
 2137DPPE   PO447498  35.981  26.525   4.410  0.3824 -0.0449 -0.0498
 2137DPPE   GL147499  36.306  26.341   4.617 -0.3500 -0.2871 -0.2901
 2137DPPE   GL247500  36.406  26.195   4.381  0.2309  0.0053 -0.0905
 2137DPPE   C1A47501  36.131  25.993   4.858 -0.2901 -0.3130  0.2166
 2137DPPE   C2A47502  36.055  25.795   5.255 -0.0785  0.1317  0.4516
 2137DPPE   C3A47503  35.819  25.653   5.645 -0.0277  0.3082  0.4502
 2137DPPE   C4A47504  35.620  25.302   5.955  0.1147 -0.0308 -0.3735
 2137DPPE   C1B47505  36.591  25.894   4.701 -0.1407 -0.4244  0.1136
 2137DPPE   C2B47506  36.734  26.095   5.059  0.0870  0.2312  0.1427
 2137DPPE   C3B47507  37.158  26.304   5.139  0.4366  0.0687  0.0499
 2137DPPE   C4B47508  37.483  25.994   5.133  0.0021  0.0956  0.1432
 2138DPPE   NH347509  29.319  16.921  13.373  0.0297  0.0545 -0.2617
 2138DPPE   PO447510  29.346  16.870  12.960 -0.2091 -0.0342 -0.1178
 2138DPPE   GL147511  29.735  16.740  13.134 -0.2467 -0.1986  0.4443
 2138DPPE   GL247512  29.888  16.969  13.243  0.1768  0.0492 -0.4020
 2138DPPE   C1A47513  30.155  16.340  13.178 -0.2675 -0.0067 -0.0203
 2138DPPE   C2A47514  30.551  16.350  13.414  0.1190  0.0743  0.2471
 2138DPPE   C3A47515  30.909  16.404  13.352  0.1658 -0.2036  0.3525
 2138DPPE   C4A47516  31.172  16.364  13.042  0.0128  0.1702  0.2325
 2138DPPE   C1B47517  30.168  16.793  13.527 -0.3085  0.0425  0.3348
 2138DPPE   C2B47518  30.580  16.776  13.734  0.1582  0.1722 -0.2138
 2138DPPE   C3B47519  30.976  16.816  13.720 -0.1477  0.4580  0.0976
 2138DPPE   C4B47520  31.348  17.043  13.803  0.1239 -0.1270  0.0955
 2139DPPE   NH347521   7.619   9.826  13.727 -0.0169 -0.0340  0.3468
 2139DPPE   PO447522   7.302   9.694  13.859 -0.0571  0.3517  0.0518
 2139DPPE   GL147523   7.208  10.139  13.696 -0.3014  0.1414  0.3239
 2139DPPE   GL247524   7.531  10.358  13.740  0.3586 -0.1601  0.2119
 2139DPPE   C1A47525   7.112  10.641  13.898 -0.0296 -0.1075 -0.0315
 2139DPPE   C2A47526   7.077  11.039  13.837  0.0706 -0.0175 -0.2446
 2139DPPE   C3A47527   7.000  11.413  13.660 -0.3657  0.2598  0.0179
 2139DPPE   C4A47528   7.038  11.686  13.353 -0.0643 -0.2920  0.4786
 2139DPPE   C1B47529   7.389  10.472  13.295 -0.2362  0.3165 -0.1549
 2139DPPE   C2B47530   7.424  10.762  12.996  0.1632  0.1603  0.1449
 2139DPPE   C3B47531   7.233  11.186  12.995 -0.1122  0.1993 -0.0468
 2139DPPE   C4B47532   7.352  11.360  12.604 -0.0016 -0.1822  0.0367
 2140DPPE   NH347533   1.856  17.117   9.437 -0.1479  0.0766  0.1907
 2140DPPE   PO447534   1.529  17.431   9.408 -0.2646 -0.2281 -0.1107
 2140DPPE   GL147535   1.181  17.334   9.178 -0.0361  0.2309  0.0428
 2140DPPE   GL247536   1.273  17.375   8.861 -0.0867  0.0976 -0.1689
 2140DPPE   C1A47537   0.716  17.302   9.130  0.0639  0.1837 -0.2583
 2140DPPE   C2A47538   0.420  17.005   8.978  0.2235  0.1479  0.1204
 2140DPPE   C3A47539   0.182  16.736   8.730 -0.2436 -0.0186  0.0224
 2140DPPE   C4A47540  -0.171  16.485   8.726 -0.1326 -0.0492  0.2115
 2140DPPE   C1B47541   0.966  17.260   8.665 -0.2598 -0.0600 -0.0245
 2140DPPE   C2B47542   0.677  17.060   8.454  0.0293  0.1848 -0.0218
 2140DPPE   C3B47543   0.229  17.012   8.164 -0.0483  0.0578  0.3780
 2140DPPE   C4B47544  -0.115  16.670   8.240  0.0612 -0.0957 -0.0578
 2141DPPE   NH347545   2.793  18.438   4.842  0.0064 -0.1095 -0.1694
 2141DPPE   PO447546   2.440  18.750   4.763 -0.3032  0.2466 -0.1482
 2141DPPE   GL147547   2.225  18.451   4.611 -0.2502 -0.2986  0.0558
 2141DPPE   GL247548   2.340  18.198   4.859 -0.0118 -0.0038  0.2149
 2141DPPE   C1A47549   1.829  18.329   4.237 -0.0477  0.5105  0.0656
 2141DPPE   C2A47550   1.817  18.069   3.831  0.0678  0.0648  0.0461
 2141DPPE   C3A47551   1.903  17.929   3.523  0.0979  0.3690  0.0648
 2141DPPE   C4A47552   2.002  17.579   3.196 -0.1298 -0.3455 -0.1481
 2141DPPE   C1B47553   2.177  18.071   5.275 -0.1137  0.0434 -0.2053
 2141DPPE   C2B47554   1.903  17.745   5.505 -0.0230 -0.1250 -0.1425
 2141DPPE   C3B47555   1.686  17.446   5.431  0.1095 -0.1352  0.0748
 2141DPPE   C4B47556   1.379  17.202   5.357 -0.0899 -0.3219 -0.4022
 2142DPPE   NH347557   2.275   7.712   4.301 -0.1217  0.0312 -0.0106
 2142DPPE   PO447558   1.916   7.983   4.328  0.1039  0.0761  0.1154
 2142DPPE   GL147559   1.659   8.295   4.367 -0.3974 -0.1027 -0.2729
 2142DPPE   GL247560   1.337   8.423   4.113 -0.2921  0.3823 -0.0926
 2142DPPE   C1A47561   1.469   8.542   4.620 -0.0247 -0.0251  0.2102
 2142DPPE   C2A47562   1.350   8.768   4.928 -0.2496  0.4974 -0.0024
 2142DPPE   C3A47563   1.088   9.107   5.058 -0.0900 -0.1346 -0.0331
 2142DPPE   C4A47564   1.087   8.962   5.516  0.3956 -0.1773  0.1413
 2142DPPE   C1B47565   1.292   8.820   4.163 -0.3171  0.1846 -0.2565
 2142DPPE   C2B47566   1.452   9.107   4.541  0.0241  0.0495 -0.0307
 2142DPPE   C3B47567   1.799   9.339   4.560 -0.0186 -0.1696 -0.1075
 2142DPPE   C4B47568   2.009   9.790   4.521  0.0908  0.1499 -0.1218
 2143DPPE   NH347569   2.388  18.076  14.999  0.2877  0.0200 -0.1413
 2143DPPE   PO447570   2.363  17.934  15.372 -0.5388  0.2103 -0.0700
 2143DPPE   GL147571   1.963  17.895  15.602  0.0535 -0.2241 -0.0059
 2143DPPE   GL247572   1.919  17.656  15.900 -0.1691 -0.1581 -0.1684
 2143DPPE   C1A47573   1.515  17.722  15.516 -0.1292 -0.0832  0.0235
 2143DPPE   C2A47574   1.277  17.365  15.501  0.1569  0.0683  0.1262
 2143DPPE   C3A47575   1.142  17.019  15.713  0.0648  0.2043 -0.3607
 2143DPPE   C4A47576   0.856  16.842  15.966  0.1555  0.0175  0.5589
 2143DPPE   C1B47577   1.532  17.472  15.999 -0.0881 -0.1574  0.1192
 2143DPPE   C2B47578   1.518  16.936  15.992  0.1029  0.2537 -0.3795
 2143DPPE   C3B47579   1.600  16.556  16.040 -0.1215 -0.0684 -0.0986
 2143DPPE   C4B47580   1.416  16.234  15.839 -0.4252 -0.1987  0.1250
 2144DPPE   NH347581  37.120   8.646   4.424  0.0202 -0.0452  0.0769
 2144DPPE   PO447582  37.089   8.313   4.834  0.1097  0.1435 -0.0848
 2144DPPE   GL147583  37.022   8.779   4.909  0.0388  0.1997  0.0502
 2144DPPE   GL247584  36.903   9.018   4.761 -0.2645  0.0250  0.0627
 2144DPPE   C1A47585  37.269   9.103   5.101  0.3338  0.2286 -0.0324
 2144DPPE   C2A47586  37.390   9.469   5.255 -0.1835  0.1030  0.0376
 2144DPPE   C3A47587  37.502   9.706   5.690  0.0869  0.0217 -0.0674
 2144DPPE   C4A47588  37.936   9.753   5.856 -0.5204  0.4185  0.0980
 2144DPPE   C1B47589  37.202   9.266   4.512 -0.2106  0.1300  0.0629
 2144DPPE   C2B47590  37.519   9.589   4.793 -0.0376 -0.1334 -0.1637
 2144DPPE   C3B47591  37.817   9.672   5.092 -0.0737 -0.2331  0.1865
 2144DPPE   C4B47592  38.242   9.576   5.203 -0.0206  0.0790 -0.1509
 2145DPPE   NH347593  38.153   7.529  15.223  0.0510  0.1014  0.1525
 2145DPPE   PO447594  37.867   7.805  15.460 -0.4933 -0.3834 -0.0455
 2145DPPE   GL147595  38.267   8.045  15.274 -0.0039  0.2331 -0.2320
 2145DPPE   GL247596  38.466   7.843  15.051 -0.0278 -0.0311  0.5240
 2145DPPE   C1A47597  38.292   8.350  14.928 -0.2389 -0.2522 -0.4712
 2145DPPE   C2A47598  38.396   8.495  14.520  0.0865 -0.2042 -0.0472
 2145DPPE   C3A47599  38.598   8.803  14.305  0.1384 -0.0385 -0.0324
 2145DPPE   C4A47600  38.852   9.133  14.574 -0.0372 -0.1287 -0.0652
 2145DPPE   C1B47601  38.448   7.990  14.578  0.0200 -0.0259 -0.1833
 2145DPPE   C2B47602  38.512   8.147  14.171 -0.1708  0.1144  0.4573
 2145DPPE   C3B47603  38.761   8.398  14.015  0.2971 -0.0025  0.1782
 2145DPPE   C4B47604  38.874   8.647  13.815 -0.3879  0.0411  0.2893
 2146DPPE   NH347605  30.680  14.912  14.759 -0.0415  0.0328  0.2956
 2146DPPE   PO447606  30.600  14.848  15.208 -0.1174 -0.0057  0.0849
 2146DPPE   GL147607  30.996  15.132  15.167 -0.3447 -0.0000  0.0422
 2146DPPE   GL247608  30.888  15.349  14.960  0.1917 -0.2190  0.2555
 2146DPPE   C1A47609  31.424  15.295  15.319 -0.1786 -0.0523  0.0392
 2146DPPE   C2A47610  31.843  15.292  15.214 -0.1726  0.3209  0.3369
 2146DPPE   C3A47611  32.133  15.461  15.066 -0.0093  0.1206 -0.0161
 2146DPPE   C4A47612  32.528  15.395  14.902 -0.1156  0.1903 -0.1612
 2146DPPE   C1B47613  31.348  15.458  14.832 -0.1030 -0.4472  0.1687
 2146DPPE   C2B47614  31.680  15.690  14.671 -0.0550 -0.3752 -0.0765
 2146DPPE   C3B47615  31.836  15.902  14.263 -0.2567 -0.0765  0.3079
 2146DPPE   C4B47616  31.649  16.102  13.903  0.0604 -0.1357 -0.2903
 2147DPPE   NH347617  36.732  15.693  25.730 -0.0506 -0.1174  0.0934
 2147DPPE   PO447618  36.491  16.081  25.917  0.0108 -0.3119 -0.2706
 2147DPPE   GL147619  36.795  15.813  26.201 -0.1701 -0.3280  0.2168
 2147DPPE   GL247620  36.614  15.824  26.537 -0.1819 -0.1393  0.1154
 2147DPPE   C1A47621  37.087  15.858  26.566 -0.3356 -0.0792 -0.0184
 2147DPPE   C2A47622  37.228  15.840  26.973  0.0016 -0.2229 -0.0349
 2147DPPE   C3A47623  37.615  15.814  27.193 -0.0501 -0.0721  0.0046
 2147DPPE   C4A47624  37.914  15.650  27.577 -0.2577  0.1324  0.2443
 2147DPPE   C1B47625  36.715  15.510  26.954 -0.0906  0.1272 -0.0112
 2147DPPE   C2B47626  36.899  15.537  27.274 -0.0479  0.1395  0.1937
 2147DPPE   C3B47627  36.811  15.621  27.723  0.0273 -0.0102 -0.0678
 2147DPPE   C4B47628  37.055  15.629  28.099 -0.2415  0.2627  0.0948
 2148DPPE   NH347629   0.500  21.460   5.231 -0.0482  0.0502 -0.4136
 2148DPPE   PO447630   0.706  21.883   5.198  0.1627 -0.0080 -0.0855
 2148DPPE   GL147631   0.238  21.889   4.925 -0.3061 -0.5040  0.0636
 2148DPPE   GL247632   0.052  21.856   5.064 -0.4449  0.0516  0.0790
 2148DPPE   C1A47633   0.055  21.880   4.531 -0.1848  0.1841  0.0292
 2148DPPE   C2A47634  -0.220  21.990   4.269 -0.1710  0.0138 -0.1003
 2148DPPE   C3A47635  -0.479  22.341   4.096 -0.1421  0.1529 -0.4197
 2148DPPE   C4A47636  -0.924  22.453   3.950 -0.3473  0.0922  0.2033
 2148DPPE   C1B47637  -0.220  22.139   4.876 -0.3443  0.4955  0.1687
 2148DPPE   C2B47638  -0.491  22.272   4.645 -0.0283 -0.0917  0.2028
 2148DPPE   C3B47639  -0.865  22.108   4.391  0.0282 -0.2922  0.1797
 2148DPPE   C4B47640  -0.704  21.910   3.940 -0.1715 -0.2419  0.0946
 2149DPPE   NH347641  36.341  26.460   3.484 -0.1484  0.1929  0.0556
 2149DPPE   PO447642  36.364  26.069   3.228  0.2782  0.0367 -0.2425
 2149DPPE   GL147643  36.558  25.973   3.594 -0.1434  0.1392  0.0135
 2149DPPE   GL247644  36.637  26.277   3.856 -0.3437 -0.1978 -0.1856
 2149DPPE   C1A47645  36.912  25.792   3.557  0.5550 -0.0645 -0.1139
 2149DPPE   C2A47646  37.171  25.484   3.580 -0.1456  0.1580  0.0604
 2149DPPE   C3A47647  37.487  25.450   3.885 -0.3537 -0.0244 -0.0527
 2149DPPE   C4A47648  37.932  25.522   3.801 -0.1725  0.1800 -0.0744
 2149DPPE   C1B47649  36.683  25.956   4.138 -0.0466 -0.0378 -0.2883
 2149DPPE   C2B47650  36.945  25.582   4.334  0.1151  0.1246 -0.0266
 2149DPPE   C3B47651  37.152  25.334   4.552 -0.2370 -0.2702 -0.2714
 2149DPPE   C4B47652  37.183  25.069   4.979 -0.3412  0.4256 -0.0566
 2150DPPE   NH347653   0.256  20.226   9.979  0.1783  0.1465  0.0630
 2150DPPE   PO447654   0.253  19.850  10.252 -0.1490 -0.1455 -0.0503
 2150DPPE   GL147655  -0.155  19.541  10.195 -0.1293 -0.0022  0.1077
 2150DPPE   GL247656  -0.213  19.486   9.932  0.1658 -0.3138  0.0069
 2150DPPE   C1A47657  -0.533  19.357  10.252 -0.1172  0.0228  0.1417
 2150DPPE   C2A47658  -0.949  19.274  10.143  0.0530 -0.0377 -0.2063
 2150DPPE   C3A47659  -1.212  19.043  10.071  0.0636  0.0070 -0.2518
 2150DPPE   C4A47660  -1.632  18.800  10.100  0.0896  0.1001  0.0171
 2150DPPE   C1B47661  -0.604  19.398   9.673 -0.2015 -0.2160 -0.0228
 2150DPPE   C2B47662  -0.815  19.286   9.208  0.0048  0.2189  0.0362
 2150DPPE   C3B47663  -1.176  19.437   9.001  0.0565 -0.0778  0.1247
 2150DPPE   C4B47664  -1.634  19.628   9.045  0.1002  0.0187  0.0327
 2151DPPE   NH347665   5.116  32.357   5.921 -0.1017  0.0055 -0.1589
 2151DPPE   PO447666   5.245  32.103   5.567  0.2722 -0.4379  0.0433
 2151DPPE   GL147667   4.857  31.851   5.761  0.1456  0.1752 -0.1299
 2151DPPE   GL247668   4.720  31.994   5.944 -0.0370 -0.1512 -0.0649
 2151DPPE   C1A47669   4.761  31.451   5.902 -0.1829 -0.0408  0.0032
 2151DPPE   C2A47670   4.852  31.135   6.193 -0.0723 -0.4539  0.0047
 2151DPPE   C3A47671   4.814  30.864   6.432 -0.1475 -0.1745  0.1225
 2151DPPE   C4A47672   4.471  30.711   6.695  0.0886 -0.1644  0.4106
 2151DPPE   C1B47673   5.009  31.715   6.222  0.0584  0.0560  0.0530
 2151DPPE   C2B47674   4.997  31.447   6.563 -0.1997  0.1061 -0.0147
 2151DPPE   C3B47675   5.188  31.132   6.860  0.2695  0.0475 -0.1120
 2151DPPE   C4B47676   5.423  30.857   7.081 -0.3156 -0.1433  0.1690
 2152DPPE   NH347677   0.740   8.757  17.424 -0.3730  0.2225  0.1185
 2152DPPE   PO447678   1.086   8.847  17.678  0.3273  0.4772 -0.2039
 2152DPPE   GL147679   1.203   9.062  17.336  0.0988  0.1299  0.0504
 2152DPPE   GL247680   1.045   9.088  17.192  0.1607 -0.1207  0.0998
 2152DPPE   C1A47681   1.267   9.571  17.273 -0.0823 -0.2729  0.3060
 2152DPPE   C2A47682   1.441  10.023  17.142 -0.0856  0.3059 -0.2311
 2152DPPE   C3A47683   1.643  10.347  17.394  0.4042  0.2739 -0.0608
 2152DPPE   C4A47684   1.638  10.728  17.321 -0.1230 -0.2712  0.2141
 2152DPPE   C1B47685   0.853   9.418  16.948  0.0820 -0.2636  0.1150
 2152DPPE   C2B47686   0.939   9.872  16.985 -0.2040 -0.2792  0.1124
 2152DPPE   C3B47687   0.638  10.237  16.726 -0.1838  0.1714 -0.2652
 2152DPPE   C4B47688   0.455  10.620  16.705  0.2195  0.0812 -0.0226
 2153DPPE   NH347689  18.474  21.049  13.714  0.0455 -0.0034  0.0141
 2153DPPE   PO447690  18.495  21.338  13.356 -0.1309 -0.0436 -0.0697
 2153DPPE   GL147691  18.086  21.093  13.388  0.2749  0.1778  0.0806
 2153DPPE   GL247692  18.010  20.808  13.647  0.2178 -0.2183 -0.2222
 2153DPPE   C1A47693  17.677  21.272  13.472 -0.0800 -0.0974 -0.0647
 2153DPPE   C2A47694  17.266  21.466  13.566 -0.0486 -0.1013  0.1262
 2153DPPE   C3A47695  16.917  21.583  13.514  0.0308  0.2382  0.2469
 2153DPPE   C4A47696  16.654  21.213  13.406 -0.0022  0.2343  0.1446
 2153DPPE   C1B47697  17.554  20.790  13.419 -0.0114  0.5315 -0.0549
 2153DPPE   C2B47698  17.121  21.046  13.368 -0.1018  0.0270 -0.4411
 2153DPPE   C3B47699  17.019  21.129  12.963  0.0764 -0.1379 -0.2292
 2153DPPE   C4B47700  16.866  21.115  12.480 -0.3987  0.0808  0.1800
 2154DPPE   NH347701   1.231  19.142  14.557 -0.3900 -0.1912 -0.4529
 2154DPPE   PO447702   1.337  18.903  14.205  0.1603 -0.0726 -0.0895
 2154DPPE   GL147703   0.914  18.766  14.369  0.1211  0.1333 -0.2819
 2154DPPE   GL247704   0.735  18.520  14.370  0.2363  0.0727 -0.0036
 2154DPPE   C1A47705   0.628  18.816  14.694  0.3920 -0.0667  0.2974
 2154DPPE   C2A47706   0.246  18.639  14.863 -0.0785 -0.2373  0.0229
 2154DPPE   C3A47707  -0.103  18.655  15.093 -0.1472  0.0724  0.2004
 2154DPPE   C4A47708  -0.291  18.442  15.350 -0.1512  0.1170  0.4630
 2154DPPE   C1B47709   0.392  18.214  14.402  0.0216 -0.0615  0.2328
 2154DPPE   C2B47710   0.091  17.850  14.393  0.0473  0.0961 -0.3412
 2154DPPE   C3B47711  -0.323  17.598  14.364  0.0285  0.0728 -0.2564
 2154DPPE   C4B47712  -0.630  17.450  14.513  0.2293 -0.0356 -0.0935
 2155DPPE   NH347713  31.905  23.372  16.811  0.2134  0.0911  0.1068
 2155DPPE   PO447714  31.380  23.199  16.736 -0.2870 -0.1889 -0.0711
 2155DPPE   GL147715  31.725  23.167  16.340 -0.1595 -0.1805  0.0416
 2155DPPE   GL247716  32.101  23.163  16.348  0.2388 -0.2773 -0.0322
 2155DPPE   C1A47717  31.837  22.808  16.139  0.1931  0.1472 -0.0763
 2155DPPE   C2A47718  32.002  22.469  16.297 -0.2309 -0.2574 -0.3157
 2155DPPE   C3A47719  32.403  22.253  16.370  0.1550 -0.0026  0.0207
 2155DPPE   C4A47720  32.829  22.103  16.427 -0.1173 -0.1140  0.0979
 2155DPPE   C1B47721  32.468  22.845  16.216  0.4018 -0.1652  0.0287
 2155DPPE   C2B47722  32.610  22.475  15.882 -0.0522 -0.0629 -0.0213
 2155DPPE   C3B47723  32.913  22.129  15.898  0.0808 -0.1512  0.0116
 2155DPPE   C4B47724  33.328  21.919  16.033 -0.1884 -0.0571  0.1723
 2156DPPE   NH347725   3.833  15.461  10.092  0.1511 -0.0641 -0.0271
 2156DPPE   PO447726   3.498  15.360  10.296 -0.2337  0.3532  0.0133
 2156DPPE   GL147727   3.367  15.133  10.089 -0.0243  0.0894  0.3609
 2156DPPE   GL247728   3.492  15.223   9.784  0.0352 -0.0916  0.1159
 2156DPPE   C1A47729   3.132  14.832  10.232  0.0988 -0.3926  0.4053
 2156DPPE   C2A47730   2.909  14.648  10.542 -0.2147 -0.3958  0.0065
 2156DPPE   C3A47731   2.558  14.415  10.572  0.1049  0.1675 -0.3059
 2156DPPE   C4A47732   2.323  14.056  10.731  0.0069  0.1642 -0.1939
 2156DPPE   C1B47733   3.768  14.912   9.733 -0.2925  0.2354 -0.0254
 2156DPPE   C2B47734   3.968  14.794   9.280  0.3948 -0.0158  0.2239
 2156DPPE   C3B47735   3.758  14.715   8.893  0.0484 -0.1094  0.0574
 2156DPPE   C4B47736   3.865  14.467   8.579  0.1912 -0.1670 -0.2266
 2157DPPE   NH347737  38.216  19.569  12.035 -0.2388 -0.1604 -0.3795
 2157DPPE   PO447738  38.367  19.015  12.087  0.2528 -0.2052 -0.2117
 2157DPPE   GL147739  38.007  19.008  12.019  0.1474 -0.0286  0.0138
 2157DPPE   GL247740  37.875  19.319  12.292 -0.2168 -0.0241 -0.1361
 2157DPPE   C1A47741  37.492  18.900  11.987 -0.1316  0.0185  0.0028
 2157DPPE   C2A47742  37.110  18.511  11.977  0.1715  0.0035 -0.0025
 2157DPPE   C3A47743  36.645  18.497  11.757  0.0669  0.1177  0.3658
 2157DPPE   C4A47744  36.212  18.406  11.708  0.1143  0.3504  0.0566
 2157DPPE   C1B47745  37.415  19.251  12.411 -0.3202  0.0445  0.3527
 2157DPPE   C2B47746  36.981  19.046  12.566 -0.2507 -0.0537 -0.0162
 2157DPPE   C3B47747  36.752  18.743  12.406 -0.2101  0.0628 -0.4021
 2157DPPE   C4B47748  36.430  18.736  12.114  0.1103  0.0985  0.0449
 2158DPPE   NH347749  36.479  28.924  14.694  0.1210  0.0085  0.0215
 2158DPPE   PO447750  36.867  29.009  14.986 -0.0943 -0.0893 -0.2640
 2158DPPE   GL147751  37.066  28.683  14.793 -0.0070  0.1262 -0.0811
 2158DPPE   GL247752  37.429  28.747  14.928 -0.2676  0.0291  0.4413
 2158DPPE   C1A47753  37.424  28.535  14.392  0.0056  0.1099 -0.3783
 2158DPPE   C2A47754  37.503  28.293  14.067 -0.1309  0.0403 -0.1311
 2158DPPE   C3A47755  37.449  27.855  14.133 -0.2923  0.0608 -0.1561
 2158DPPE   C4A47756  37.586  27.536  14.315  0.0243 -0.1403 -0.0251
 2158DPPE   C1B47757  37.713  28.488  14.855 -0.2718 -0.0440 -0.1436
 2158DPPE   C2B47758  38.006  28.205  14.782 -0.4617  0.2568 -0.0042
 2158DPPE   C3B47759  38.433  28.044  14.853 -0.0567 -0.0069  0.1593
 2158DPPE   C4B47760  38.719  27.794  14.943  0.0003 -0.1432 -0.1657
 2159DPPE   NH347761   6.015   8.925   8.735 -0.3107 -0.2505  0.1354
 2159DPPE   PO447762   5.625   8.880   8.602  0.0247  0.1176 -0.0169
 2159DPPE   GL147763   5.590   9.250   8.705 -0.2792 -0.0264 -0.0631
 2159DPPE   GL247764   5.444   9.438   8.409 -0.4208  0.0569  0.0005
 2159DPPE   C1A47765   5.588   9.653   8.784  0.0182  0.0210 -0.2922
 2159DPPE   C2A47766   5.388   9.997   8.735 -0.1034  0.4552  0.3172
 2159DPPE   C3A47767   5.140   9.988   8.368 -0.1869 -0.3408  0.0544
 2159DPPE   C4A47768   4.932   9.786   8.004  0.1600 -0.0347 -0.3063
 2159DPPE   C1B47769   5.094   9.541   8.723  0.2783 -0.1767  0.2230
 2159DPPE   C2B47770   4.944   9.933   8.924 -0.3176  0.1616 -0.0201
 2159DPPE   C3B47771   4.792  10.283   9.181  0.2703  0.2219  0.0256
 2159DPPE   C4B47772   4.845  10.619   9.323  0.1297  0.1039 -0.1184
 2160DPPE   NH347773   0.666  21.385   6.553 -0.1223  0.1240  0.2103
 2160DPPE   PO447774   0.287  21.550   6.315  0.4178 -0.1187 -0.1185
 2160DPPE   GL147775  -0.176  21.459   6.245 -0.0917 -0.1858 -0.1200
 2160DPPE   GL247776  -0.217  21.717   6.461 -0.0413  0.2713 -0.4383
 2160DPPE   C1A47777  -0.650  21.486   6.103 -0.1228 -0.2476  0.2471
 2160DPPE   C2A47778  -1.071  21.541   5.907  0.0369 -0.0109 -0.0497
 2160DPPE   C3A47779  -1.475  21.627   5.629 -0.0468  0.3145 -0.1076
 2160DPPE   C4A47780  -1.926  21.752   5.524  0.1504  0.1285 -0.2152
 2160DPPE   C1B47781  -0.281  21.167   6.578  0.1581  0.0440  0.2930
 2160DPPE   C2B47782  -0.490  21.025   6.815 -0.1195 -0.0178  0.0170
 2160DPPE   C3B47783  -0.659  20.692   7.014 -0.2719 -0.2160  0.0575
 2160DPPE   C4B47784  -1.030  20.531   7.189 -0.2321 -0.4874 -0.2006
 2161DPPE   NH347785  12.837  24.352   5.709  0.1401  0.0235 -0.0459
 2161DPPE   PO447786  12.397  24.181   5.652  0.0905  0.1023 -0.2621
 2161DPPE   GL147787  12.547  24.620   5.350  0.2081 -0.2077  0.0098
 2161DPPE   GL247788  12.746  24.427   5.218 -0.0727 -0.2133  0.0854
 2161DPPE   C1A47789  12.593  24.928   5.084  0.0822 -0.0797 -0.0814
 2161DPPE   C2A47790  12.639  25.303   4.747 -0.2758 -0.4449 -0.1064
 2161DPPE   C3A47791  13.010  25.550   4.764 -0.1457  0.1738  0.1037
 2161DPPE   C4A47792  13.124  25.777   4.502 -0.0253 -0.2683  0.0764
 2161DPPE   C1B47793  12.998  24.462   4.905  0.1491  0.0044  0.4661
 2161DPPE   C2B47794  13.295  24.529   4.560 -0.3815  0.0784  0.1714
 2161DPPE   C3B47795  13.562  24.760   4.315  0.0776 -0.2582 -0.5002
 2161DPPE   C4B47796  14.025  24.765   4.168 -0.2141 -0.2384 -0.4116
 2162DPPE   NH347797   7.618  12.975   8.114  0.1979 -0.1094 -0.0348
 2162DPPE   PO447798   7.189  12.888   7.915  0.1363 -0.2172 -0.2337
 2162DPPE   GL147799   7.562  12.630   7.771 -0.1346  0.1823 -0.0459
 2162DPPE   GL247800   7.819  12.491   8.047 -0.3883 -0.1556  0.1271
 2162DPPE   C1A47801   7.656  12.257   7.536  0.0574  0.1311 -0.0654
 2162DPPE   C2A47802   7.584  11.762   7.513  0.1304  0.0108 -0.0285
 2162DPPE   C3A47803   7.523  11.324   7.668  0.0761 -0.1128  0.0491
 2162DPPE   C4A47804   7.349  11.187   7.999 -0.1959  0.2188  0.2030
 2162DPPE   C1B47805   8.041  12.095   7.792  0.0002  0.0078  0.0051
 2162DPPE   C2B47806   8.109  11.744   7.420 -0.1654  0.0581 -0.0144
 2162DPPE   C3B47807   7.936  11.374   7.338  0.0449  0.0686 -0.0185
 2162DPPE   C4B47808   7.910  10.937   7.517  0.0827 -0.0923  0.1131
 2163DPPE   NH347809   3.893  26.783   5.977  0.4404 -0.1908 -0.3020
 2163DPPE   PO447810   3.761  26.433   6.069  0.0885  0.0262  0.4883
 2163DPPE   GL147811   3.375  26.643   5.867 -0.0664  0.1380 -0.0257
 2163DPPE   GL247812   3.471  26.592   5.581  0.0228  0.0014  0.1949
 2163DPPE   C1A47813   3.186  27.015   5.904 -0.0380 -0.0175  0.1850
 2163DPPE   C2A47814   3.015  27.518   5.699  0.1155 -0.0187 -0.0108
 2163DPPE   C3A47815   3.001  27.974   5.731 -0.1425 -0.3301 -0.1633
 2163DPPE   C4A47816   2.816  28.308   6.023 -0.1759  0.1090  0.0018
 2163DPPE   C1B47817   3.387  26.889   5.356 -0.3330  0.1022  0.0771
 2163DPPE   C2B47818   3.232  27.164   5.135 -0.2392  0.0787  0.1724
 2163DPPE   C3B47819   3.136  27.442   4.801 -0.0697 -0.0861  0.1603
 2163DPPE   C4B47820   3.270  27.618   4.433  0.1413 -0.5273 -0.0125
 2164DPPE   NH347821   3.531  15.605  13.155 -0.1363  0.0904  0.0020
 2164DPPE   PO447822   3.544  15.375  13.556 -0.1895 -0.0748 -0.1925
 2164DPPE   GL147823   3.211  15.495  13.502 -0.0853 -0.0340 -0.2222
 2164DPPE   GL247824   3.010  15.276  13.292 -0.1338  0.3948 -0.1343
 2164DPPE   C1A47825   2.844  15.739  13.312  0.5572 -0.3979 -0.0974
 2164DPPE   C2A47826   2.340  15.821  13.210  0.2564  0.1972 -0.0145
 2164DPPE   C3A47827   1.993  15.705  13.523  0.2002  0.4356  0.1988
 2164DPPE   C4A47828   2.013  15.508  13.816 -0.2725 -0.2199 -0.0194
 2164DPPE   C1B47829   3.034  14.835  13.296  0.3263 -0.1089 -0.1862
 2164DPPE   C2B47830   2.970  14.579  13.590 -0.1466 -0.2446  0.0750
 2164DPPE   C3B47831   3.281  14.236  13.697 -0.0808 -0.0671 -0.2244
 2164DPPE   C4B47832   3.416  13.682  13.739 -0.1252 -0.0457 -0.0560
 2165DPPE   NH347833  35.499  14.810  21.185 -0.1622 -0.1983  0.0186
 2165DPPE   PO447834  35.641  14.407  21.189 -0.3096  0.0484  0.1799
 2165DPPE   GL147835  35.589  14.491  20.773  0.0331  0.1019 -0.2442
 2165DPPE   GL247836  35.744  14.686  20.761  0.0836 -0.0326  0.2087
 2165DPPE   C1A47837  35.378  14.302  20.443  0.0821 -0.0447  0.0755
 2165DPPE   C2A47838  35.165  14.255  20.036 -0.0520  0.0360 -0.2354
 2165DPPE   C3A47839  35.086  14.010  19.712 -0.2276  0.4440 -0.0344
 2165DPPE   C4A47840  35.176  13.677  19.444 -0.1185  0.0692  0.3789
 2165DPPE   C1B47841  35.916  14.402  20.396 -0.1019  0.0714 -0.5348
 2165DPPE   C2B47842  36.090  14.478  19.955 -0.0075  0.0811 -0.3892
 2165DPPE   C3B47843  36.220  14.573  19.617  0.0454  0.2175 -0.0768
 2165DPPE   C4B47844  36.166  14.828  19.212 -0.1236  0.1743 -0.3215
 2166DPPE   NH347845   7.950  17.091  22.185  0.0075 -0.2524 -0.0682
 2166DPPE   PO447846   8.071  16.907  21.695  0.0466  0.1459 -0.3417
 2166DPPE   GL147847   8.424  17.054  21.345 -0.2346 -0.0149  0.1571
 2166DPPE   GL247848   8.544  17.311  21.421  0.4457 -0.0845 -0.0597
 2166DPPE   C1A47849   8.284  16.923  20.901  0.0522  0.0771  0.2558
 2166DPPE   C2A47850   8.053  16.686  20.618 -0.2844 -0.0072  0.0815
 2166DPPE   C3A47851   7.678  16.664  20.537  0.0399 -0.2193  0.2979
 2166DPPE   C4A47852   7.307  16.353  20.647 -0.0969  0.0576 -0.1685
 2166DPPE   C1B47853   8.190  17.468  21.177  0.1627  0.2086  0.3687
 2166DPPE   C2B47854   8.024  17.686  20.841 -0.1285  0.0725  0.0339
 2166DPPE   C3B47855   7.971  17.797  20.444  0.1496 -0.1352  0.2595
 2166DPPE   C4B47856   7.775  18.076  20.113  0.2764 -0.0731  0.3117
 2167DPPE   NH347857   2.419  14.699  26.410 -0.1745 -0.0857 -0.2017
 2167DPPE   PO447858   2.881  14.642  26.566  0.4084  0.1748 -0.1185
 2167DPPE   GL147859   3.044  14.538  26.965 -0.2008 -0.1052 -0.3423
 2167DPPE   GL247860   2.920  14.245  26.994  0.1059 -0.0199 -0.3276
 2167DPPE   C1A47861   2.983  14.700  27.472 -0.1516  0.2759 -0.0502
 2167DPPE   C2A47862   3.268  14.883  27.845  0.1439  0.2044 -0.3685
 2167DPPE   C3A47863   3.258  15.323  28.092  0.1597  0.0284 -0.1019
 2167DPPE   C4A47864   3.004  15.688  28.187  0.0893 -0.0857 -0.0339
 2167DPPE   C1B47865   2.701  14.293  27.384  0.0652 -0.3404  0.1800
 2167DPPE   C2B47866   2.590  14.286  27.735 -0.1574  0.0645  0.0237
 2167DPPE   C3B47867   2.238  14.186  27.965  0.1473 -0.0697 -0.2166
 2167DPPE   C4B47868   2.066  14.109  28.405 -0.1676  0.1762 -0.0430
 2168DPPE   NH347869  37.329  24.622  11.433 -0.0602  0.1314 -0.4061
 2168DPPE   PO447870  37.526  24.247  11.400  0.1276 -0.1602  0.2538
 2168DPPE   GL147871  37.067  24.319  11.090 -0.0547 -0.1534  0.0360
 2168DPPE   GL247872  36.955  24.168  10.754  0.1774  0.1572 -0.0925
 2168DPPE   C1A47873  36.786  24.614  11.135 -0.2622 -0.2964  0.3115
 2168DPPE   C2A47874  36.398  24.585  11.055 -0.1049  0.0845 -0.0018
 2168DPPE   C3A47875  35.899  24.613  11.030  0.0945  0.1501  0.2325
 2168DPPE   C4A47876  35.593  24.850  11.042 -0.0337  0.0593  0.1926
 2168DPPE   C1B47877  36.536  24.074  10.815  0.3041  0.0148  0.2043
 2168DPPE   C2B47878  36.083  24.317  10.641  0.0594 -0.1399 -0.0636
 2168DPPE   C3B47879  35.767  24.548  10.524 -0.0944 -0.1136 -0.0170
 2168DPPE   C4B47880  35.411  24.681  10.371  0.0830 -0.1660 -0.2146
 2169DPPE   NH347881  31.826  12.566   8.667 -0.0269 -0.2946 -0.2140
 2169DPPE   PO447882  31.504  12.647   8.859 -0.1577 -0.2554  0.2859
 2169DPPE   GL147883  31.729  13.043   8.937  0.2125  0.2203 -0.1395
 2169DPPE   GL247884  32.020  13.014   8.674  0.1894 -0.0929 -0.2465
 2169DPPE   C1A47885  31.767  13.259   9.242 -0.0905 -0.1974  0.0063
 2169DPPE   C2A47886  31.872  13.424   9.594 -0.2589  0.0672 -0.0788
 2169DPPE   C3A47887  32.212  13.711   9.761 -0.1708 -0.3845  0.0505
 2169DPPE   C4A47888  32.267  14.097   9.445 -0.2104  0.0241 -0.4677
 2169DPPE   C1B47889  32.298  13.259   8.823  0.3050  0.0527  0.4219
 2169DPPE   C2B47890  32.173  13.556   9.123 -0.1461  0.2165  0.0369
 2169DPPE   C3B47891  31.781  13.799   9.330  0.0359 -0.1999  0.3068
 2169DPPE   C4B47892  31.734  13.926   9.704 -0.0898  0.0756  0.1842
 2170DPPE   NH347893  17.468  18.884   2.832 -0.0528 -0.0988 -0.2929
 2170DPPE   PO447894  17.320  19.080   2.674  0.0224  0.3058 -0.1297
 2170DPPE   GL147895  17.063  19.096   3.078  0.0554 -0.2063  0.0468
 2170DPPE   GL247896  17.315  19.212   3.229 -0.2822  0.1114 -0.1073
 2170DPPE   C1A47897  17.080  19.091   3.624  0.0027 -0.1487  0.0114
 2170DPPE   C2A47898  17.395  19.265   3.915  0.3849  0.0046 -0.1347
 2170DPPE   C3A47899  17.555  19.302   4.321  0.1428  0.0517  0.1641
 2170DPPE   C4A47900  17.667  19.411   4.659  0.2242  0.0614 -0.1497
 2170DPPE   C1B47901  16.935  19.488   3.362 -0.0169  0.2171  0.2652
 2170DPPE   C2B47902  16.464  19.689   3.490 -0.0567  0.1532  0.2526
 2170DPPE   C3B47903  16.136  19.350   3.681  0.1310  0.3813  0.0447
 2170DPPE   C4B47904  16.176  18.998   3.719 -0.0058  0.1843 -0.1464
 2171DPPE   NH347905   3.155  25.088  16.772 -0.0739  0.0410 -0.1378
 2171DPPE   PO447906   3.213  24.635  16.982  0.0150  0.1831  0.0197
 2171DPPE   GL147907   3.107  24.937  17.249 -0.0929 -0.0430  0.0928
 2171DPPE   GL247908   2.988  24.927  17.598  0.0359  0.0436  0.0347
 2171DPPE   C1A47909   3.016  25.396  17.386 -0.1454  0.0294 -0.0010
 2171DPPE   C2A47910   3.294  25.576  17.648 -0.0287 -0.0261  0.0336
 2171DPPE   C3A47911   3.418  25.620  18.093  0.0227 -0.0279  0.0408
 2171DPPE   C4A47912   3.513  25.673  18.410  0.0179 -0.3858 -0.0832
 2171DPPE   C1B47913   2.664  24.922  17.847 -0.0183 -0.0368  0.1898
 2171DPPE   C2B47914   2.677  25.037  18.315  0.1649  0.0666 -0.4507
 2171DPPE   C3B47915   2.668  25.489  18.612 -0.3892  0.2520 -0.3676
 2171DPPE   C4B47916   2.434  25.655  18.925 -0.3307 -0.0832 -0.2801
 2172DPPE   NH347917   5.071  27.224  16.002  0.0798 -0.0135 -0.1865
 2172DPPE   PO447918   5.422  27.336  16.029  0.1217 -0.0988 -0.1534
 2172DPPE   GL147919   5.319  27.640  15.880 -0.0192 -0.1084 -0.2099
 2172DPPE   GL247920   5.132  27.825  15.703 -0.0337 -0.0390  0.2955
 2172DPPE   C1A47921   5.137  27.997  16.173 -0.1505 -0.1280  0.2295
 2172DPPE   C2A47922   5.180  28.153  16.649 -0.3116 -0.0317 -0.0782
 2172DPPE   C3A47923   5.358  28.366  16.954 -0.1285  0.1320 -0.2508
 2172DPPE   C4A47924   5.527  28.511  17.345 -0.1130  0.5026 -0.1609
 2172DPPE   C1B47925   4.802  28.104  15.799 -0.0956 -0.1824  0.0982
 2172DPPE   C2B47926   4.860  28.493  16.017 -0.2792  0.0950  0.1248
 2172DPPE   C3B47927   5.014  28.861  15.870 -0.1917 -0.1168  0.0061
 2172DPPE   C4B47928   5.093  29.234  15.816  0.2650 -0.1980  0.0435
 2173DPPE   NH347929   6.054  16.555   3.087  0.2251 -0.1412  0.2654
 2173DPPE   PO447930   6.291  16.240   3.175 -0.0195  0.0256  0.4121
 2173DPPE   GL147931   6.205  15.886   2.924 -0.2016 -0.0230 -0.1177
 2173DPPE   GL247932   6.264  15.533   2.969  0.0086 -0.1582  0.0779
 2173DPPE   C1A47933   5.919  15.809   2.637  0.1237  0.0525 -0.0352
 2173DPPE   C2A47934   5.969  15.528   2.313  0.0759 -0.2381 -0.1513
 2173DPPE   C3A47935   6.039  15.272   1.981  0.0070 -0.0405 -0.2396
 2173DPPE   C4A47936   6.182  15.231   1.529 -0.3210  0.0819  0.2333
 2173DPPE   C1B47937   6.474  15.609   2.659  0.0182  0.0583  0.1710
 2173DPPE   C2B47938   6.481  15.228   2.254  0.1093  0.0805 -0.1313
 2173DPPE   C3B47939   6.601  15.019   1.976 -0.3183  0.2097  0.0458
 2173DPPE   C4B47940   6.486  14.822   1.670  0.2146 -0.0802 -0.0481
 2174DPPE   NH347941  36.455  16.553  25.751 -0.2888  0.0782  0.3363
 2174DPPE   PO447942  36.088  16.734  25.982  0.2972 -0.5641 -0.1441
 2174DPPE   GL147943  36.230  16.490  26.463  0.1271 -0.2270  0.1626
 2174DPPE   GL247944  36.385  16.334  26.341 -0.2187 -0.0945  0.0868
 2174DPPE   C1A47945  36.307  16.166  26.818 -0.3065 -0.2632  0.1791
 2174DPPE   C2A47946  36.671  16.048  27.098 -0.0447  0.0636  0.1935
 2174DPPE   C3A47947  36.787  16.116  27.455  0.2507  0.3951 -0.0492
 2174DPPE   C4A47948  36.610  16.144  27.915  0.0672 -0.4270  0.0463
 2174DPPE   C1B47949  36.801  16.329  26.541  0.1810  0.0475 -0.0498
 2174DPPE   C2B47950  37.047  16.400  26.983 -0.0571 -0.0471 -0.1681
 2174DPPE   C3B47951  37.283  16.172  27.374 -0.1236 -0.5194 -0.0473
 2174DPPE   C4B47952  37.685  16.116  27.616  0.5457 -0.1785  0.0492
 2175DPPE   NH347953  37.834  21.745  12.596  0.2489  0.3810 -0.0623
 2175DPPE   PO447954  38.037  21.572  12.925  0.2919 -0.2140  0.0172
 2175DPPE   GL147955  37.786  21.247  12.792  0.1639 -0.1509  0.0238
 2175DPPE   GL247956  37.555  21.400  13.021  0.0580 -0.0081  0.1448
 2175DPPE   C1A47957  37.480  20.924  12.619 -0.0826 -0.2536  0.0455
 2175DPPE   C2A47958  37.156  20.663  12.884 -0.1935 -0.2499 -0.0769
 2175DPPE   C3A47959  36.711  20.940  12.849  0.0929  0.0412  0.0646
 2175DPPE   C4A47960  36.518  21.382  12.920 -0.2479 -0.0681 -0.0756
 2175DPPE   C1B47961  37.145  21.326  12.855  0.1913  0.1383  0.1366
 2175DPPE   C2B47962  36.884  21.534  12.585 -0.2039 -0.2221 -0.0460
 2175DPPE   C3B47963  36.774  21.634  12.155 -0.1084  0.1159 -0.2653
 2175DPPE   C4B47964  36.971  21.867  11.888 -0.1117  0.0367  0.2474
 2176DPPE   NH347965   7.169  11.407  16.764 -0.5034 -0.0055 -0.2665
 2176DPPE   PO447966   6.834  11.241  16.614  0.2910  0.1829  0.1107
 2176DPPE   GL147967   6.856  11.572  16.407  0.0541 -0.1409 -0.2521
 2176DPPE   GL247968   6.579  11.713  16.215 -0.2075 -0.0018 -0.2501
 2176DPPE   C1A47969   7.045  12.019  16.309 -0.0589  0.1403 -0.0506
 2176DPPE   C2A47970   6.839  12.378  16.202 -0.0060  0.2331  0.0710
 2176DPPE   C3A47971   6.834  12.728  15.944  0.0681 -0.1290 -0.1718
 2176DPPE   C4A47972   6.689  12.821  15.510 -0.0274  0.1310 -0.0965
 2176DPPE   C1B47973   6.487  12.067  15.995  0.0775  0.0494  0.0051
 2176DPPE   C2B47974   6.720  12.322  15.688 -0.1062 -0.0456  0.2103
 2176DPPE   C3B47975   7.037  12.469  15.377 -0.1840  0.0347 -0.3089
 2176DPPE   C4B47976   6.970  12.572  14.930 -0.0531  0.0753 -0.1460
 2177DPPE   NH347977   2.747  17.220  15.977  0.0276 -0.5123 -0.2490
 2177DPPE   PO447978   2.926  17.347  15.686  0.1886 -0.4154 -0.0037
 2177DPPE   GL147979   2.533  17.023  15.568  0.0951 -0.0010  0.3020
 2177DPPE   GL247980   2.459  17.073  15.184  0.0557  0.0900  0.2249
 2177DPPE   C1A47981   2.283  16.633  15.503 -0.1600  0.2589 -0.1130
 2177DPPE   C2A47982   2.144  16.258  15.256  0.0907  0.1051  0.2681
 2177DPPE   C3A47983   2.228  15.934  15.364 -0.0637  0.2226 -0.2445
 2177DPPE   C4A47984   2.136  15.574  15.539 -0.0065  0.0485 -0.1219
 2177DPPE   C1B47985   2.049  16.931  15.046  0.2387 -0.2233 -0.1323
 2177DPPE   C2B47986   1.672  16.609  15.044 -0.1041 -0.2354  0.1885
 2177DPPE   C3B47987   1.332  16.343  14.886 -0.2084  0.1796  0.3177
 2177DPPE   C4B47988   0.907  16.536  14.782 -0.1212  0.1359  0.2235
 2178DPPE   NH347989   1.586  17.331  10.438 -0.3698  0.0214  0.2447
 2178DPPE   PO447990   1.573  16.914  10.411  0.0644  0.2894 -0.1055
 2178DPPE   GL147991   1.364  16.467  10.317 -0.0392 -0.1804  0.2311
 2178DPPE   GL247992   1.563  16.118  10.153  0.1894 -0.0630 -0.0237
 2178DPPE   C1A47993   1.034  16.298  10.112  0.2539 -0.0558  0.0936
 2178DPPE   C2A47994   0.610  16.207  10.033 -0.0778  0.3317 -0.1175
 2178DPPE   C3A47995   0.321  15.773  10.092  0.0439 -0.0924 -0.0085
 2178DPPE   C4A47996   0.054  15.338  10.093  0.0459 -0.1993 -0.0466
 2178DPPE   C1B47997   1.321  15.734  10.064 -0.2338  0.0302  0.0159
 2178DPPE   C2B47998   1.075  15.383   9.934  0.0487  0.1286  0.0462
 2178DPPE   C3B47999   0.936  14.992  10.007 -0.1742  0.0157 -0.1306
 2178DPPE   C4B48000   0.645  14.644  10.045  0.1871  0.0522  0.1378
 2179DPPE   NH348001   4.309  13.395  19.656  0.1193 -0.2121 -0.1170
 2179DPPE   PO448002   3.974  13.350  19.337 -0.1651 -0.1954 -0.3005
 2179DPPE   GL148003   4.170  13.619  19.227  0.2312  0.3955  0.0616
 2179DPPE   GL248004   4.224  13.889  19.472  0.2801  0.0851  0.1907
 2179DPPE   C1A48005   4.265  13.803  18.841 -0.0830  0.0843  0.2493
 2179DPPE   C2A48006   4.213  13.926  18.437  0.0672  0.2660  0.0059
 2179DPPE   C3A48007   4.084  14.133  18.105  0.0432 -0.2370  0.1647
 2179DPPE   C4A48008   3.753  14.167  17.778  0.1470 -0.2698  0.0287
 2179DPPE   C1B48009   4.381  14.187  19.191  0.0404  0.0869 -0.1387
 2179DPPE   C2B48010   4.433  14.339  18.765 -0.1535 -0.1587  0.0301
 2179DPPE   C3B48011   4.515  14.430  18.298 -0.1338  0.1508  0.1115
 2179DPPE   C4B48012   4.492  14.382  17.846  0.1400  0.0077 -0.0320
 2180DPPE   NH348013   6.471  17.576   2.557  0.2024 -0.2953  0.1351
 2180DPPE   PO448014   6.715  17.693   2.458  0.1156  0.1489 -0.1903
 2180DPPE   GL148015   6.615  17.349   2.126  0.0420 -0.0058  0.1698
 2180DPPE   GL248016   6.534  17.132   2.344 -0.1153  0.1654  0.2947
 2180DPPE   C1A48017   6.786  17.174   1.773 -0.1934  0.2543 -0.2252
 2180DPPE   C2A48018   6.946  16.940   1.414  0.0497 -0.3627 -0.0008
 2180DPPE   C3A48019   7.183  16.981   1.010  0.0414 -0.1039 -0.3339
 2180DPPE   C4A48020   7.228  16.710   0.744 -0.2181  0.1147 -0.1291
 2180DPPE   C1B48021   6.317  16.982   1.992  0.1984  0.2809  0.1626
 2180DPPE   C2B48022   6.344  16.965   1.512  0.0764 -0.2433 -0.2469
 2180DPPE   C3B48023   6.209  17.139   1.246  0.5568 -0.1432  0.0039
 2180DPPE   C4B48024   5.953  17.167   0.799 -0.1745 -0.1490  0.1993
 2181DPPE   NH348025  16.090  21.577   1.591 -0.0388  0.3105 -0.2623
 2181DPPE   PO448026  15.810  21.931   1.441  0.1791 -0.0729  0.0655
 2181DPPE   GL148027  15.625  21.859   1.825  0.0803  0.0639 -0.3951
 2181DPPE   GL248028  15.893  21.899   1.924 -0.0112 -0.0668  0.2729
 2181DPPE   C1A48029  15.414  21.882   2.143  0.0058  0.0006  0.0677
 2181DPPE   C2A48030  15.044  21.897   2.344  0.2505 -0.3233 -0.0505
 2181DPPE   C3A48031  14.753  21.865   2.715  0.2654  0.1134  0.0498
 2181DPPE   C4A48032  14.415  21.904   2.964  0.0292  0.0957  0.1227
 2181DPPE   C1B48033  15.859  21.873   2.384  0.0353  0.2268  0.1997
 2181DPPE   C2B48034  15.913  21.716   2.750  0.0314 -0.0529 -0.0873
 2181DPPE   C3B48035  15.940  21.422   3.089  0.0189 -0.2015  0.0497
 2181DPPE   C4B48036  15.840  21.037   3.358  0.0225 -0.2311 -0.3002
 2182DPPE   NH348037   4.244  12.022  18.180 -0.0809  0.1537  0.3046
 2182DPPE   PO448038   4.609  11.814  18.042  0.1291 -0.0488  0.0033
 2182DPPE   GL148039   4.554  12.185  17.771 -0.4245 -0.0289 -0.5101
 2182DPPE   GL248040   4.283  12.142  17.615  0.1715 -0.1431 -0.2696
 2182DPPE   C1A48041   4.439  12.649  17.697  0.1388  0.0496 -0.0608
 2182DPPE   C2A48042   4.337  12.876  17.296  0.0552 -0.0197 -0.1317
 2182DPPE   C3A48043   4.139  13.250  16.941 -0.1451 -0.0290 -0.0979
 2182DPPE   C4A48044   4.274  13.412  16.570 -0.3517  0.0824  0.1251
 2182DPPE   C1B48045   3.983  12.470  17.396 -0.2187 -0.1118 -0.3566
 2182DPPE   C2B48046   3.667  12.596  17.554 -0.3886 -0.2791  0.0201
 2182DPPE   C3B48047   3.261  12.583  17.616 -0.1079  0.2246  0.1358
 2182DPPE   C4B48048   2.966  12.333  17.994  0.0943 -0.0795  0.0293
 2183DPPE   NH348049   9.223  27.726   6.652 -0.0409 -0.0092  0.0649
 2183DPPE   PO448050   9.240  27.309   6.324  0.1500 -0.1715  0.1794
 2183DPPE   GL148051   9.423  27.604   6.199  0.1604  0.2420  0.3559
 2183DPPE   GL248052   9.344  27.935   6.219  0.2691  0.2336  0.2860
 2183DPPE   C1A48053   9.873  27.871   6.115  0.0712 -0.0829  0.0738
 2183DPPE   C2A48054  10.129  28.234   5.890  0.0728  0.0139 -0.2008
 2183DPPE   C3A48055  10.064  28.428   5.515 -0.1596 -0.4384  0.1948
 2183DPPE   C4A48056   9.823  28.834   5.406  0.1636 -0.0483  0.1805
 2183DPPE   C1B48057   9.559  28.183   5.945 -0.0843 -0.1347 -0.3192
 2183DPPE   C2B48058   9.698  28.490   5.897  0.1921 -0.0286 -0.1524
 2183DPPE   C3B48059   9.655  28.869   5.826 -0.0873  0.1731 -0.0042
 2183DPPE   C4B48060   9.383  29.113   5.626 -0.0176  0.2427  0.4844
 2184DPPE   NH348061   5.493   9.331   5.458  0.2934 -0.1341  0.1114
 2184DPPE   PO448062   5.335   8.993   5.358 -0.3734  0.2906 -0.0409
 2184DPPE   GL148063   5.018   9.242   5.682  0.0681  0.0296 -0.1805
 2184DPPE   GL248064   5.028   9.565   5.577  0.3383  0.0682  0.0324
 2184DPPE   C1A48065   4.697   9.330   5.922 -0.2145 -0.0026  0.0203
 2184DPPE   C2A48066   4.440   9.638   6.104  0.1717  0.0967  0.0633
 2184DPPE   C3A48067   4.250  10.050   6.351  0.1287 -0.1023  0.0298
 2184DPPE   C4A48068   3.927  10.305   6.278 -0.1186  0.1233  0.2170
 2184DPPE   C1B48069   4.566   9.704   5.571 -0.2983 -0.1865  0.1654
 2184DPPE   C2B48070   4.374  10.050   5.673 -0.1767  0.2350  0.1648
 2184DPPE   C3B48071   3.916  10.316   5.776 -0.1288  0.1645 -0.0784
 2184DPPE   C4B48072   3.793  10.682   5.960 -0.1820  0.0249 -0.1117
 2185DPPE   NH348073   3.797  15.138  14.014  0.0677 -0.1628  0.0748
 2185DPPE   PO448074   3.561  15.400  14.171  0.3954 -0.3023 -0.0623
 2185DPPE   GL148075   3.249  15.209  13.961 -0.1502  0.0548 -0.0759
 2185DPPE   GL248076   3.383  14.931  13.699  0.0380  0.0800 -0.3557
 2185DPPE   C1A48077   2.907  15.185  13.758  0.2729  0.0761  0.0207
 2185DPPE   C2A48078   2.445  15.005  13.822 -0.0439 -0.1432 -0.1354
 2185DPPE   C3A48079   2.220  15.236  14.202  0.0830  0.2082  0.1458
 2185DPPE   C4A48080   2.294  15.167  14.574 -0.2343  0.4103  0.1462
 2185DPPE   C1B48081   3.348  14.632  13.952 -0.0388  0.5228 -0.0645
 2185DPPE   C2B48082   3.356  14.641  14.359 -0.1357 -0.1928 -0.3552
 2185DPPE   C3B48083   3.551  14.610  14.816  0.0512 -0.2509 -0.0635
 2185DPPE   C4B48084   3.502  14.422  15.218 -0.1753  0.0575 -0.0874
 2186DPPE   NH348085   9.665  14.267  11.984  0.0515 -0.0394 -0.0957
 2186DPPE   PO448086  10.035  14.129  12.015  0.1746 -0.0617 -0.1086
 2186DPPE   GL148087  10.199  13.844  12.270 -0.2042  0.2962  0.1694
 2186DPPE   GL248088  10.564  13.914  12.327  0.2913  0.0292  0.1788
 2186DPPE   C1A48089  10.431  13.575  12.649 -0.1520  0.0310 -0.4744
 2186DPPE   C2A48090  10.772  13.362  12.822  0.1533  0.0209 -0.0306
 2186DPPE   C3A48091  11.031  12.920  12.776 -0.0858  0.1063  0.2045
 2186DPPE   C4A48092  11.102  12.592  12.494 -0.0782 -0.2169 -0.2077
 2186DPPE   C1B48093  10.786  13.552  12.282 -0.2393 -0.1070  0.0116
 2186DPPE   C2B48094  10.824  13.110  12.349 -0.1688 -0.0109 -0.2981
 2186DPPE   C3B48095  10.618  12.715  12.356 -0.0663  0.4098  0.0379
 2186DPPE   C4B48096  10.249  12.406  12.372 -0.2606 -0.0989 -0.2792
 2187DPPE   NH348097   3.119   6.675   9.956 -0.0937 -0.2339 -0.1931
 2187DPPE   PO448098   2.866   6.358  10.305  0.0829  0.2100  0.1981
 2187DPPE   GL148099   2.849   6.792  10.473  0.1561 -0.2571  0.0978
 2187DPPE   GL248100   2.539   6.701  10.322 -0.1835 -0.1694 -0.1727
 2187DPPE   C1A48101   2.961   7.151  10.717 -0.1535 -0.0885  0.0011
 2187DPPE   C2A48102   3.015   7.554  10.893  0.1378  0.0521 -0.0958
 2187DPPE   C3A48103   3.050   7.875  10.896 -0.2343 -0.3606 -0.2417
 2187DPPE   C4A48104   3.087   8.173  10.664  0.2291  0.1541  0.0880
 2187DPPE   C1B48105   2.450   7.132  10.169  0.0516  0.2199 -0.0889
 2187DPPE   C2B48106   2.263   7.548   9.958  0.0008 -0.1220  0.1867
 2187DPPE   C3B48107   2.527   7.853   9.635 -0.0670  0.0654 -0.0362
 2187DPPE   C4B48108   2.422   7.994   9.199  0.0502 -0.2283 -0.0607
 2188DPPE   NH348109   2.593  19.014   3.262 -0.0346 -0.1750  0.0452
 2188DPPE   PO448110   2.441  19.467   3.265 -0.0244 -0.0357  0.2108
 2188DPPE   GL148111   2.204  19.590   3.013 -0.0521 -0.1303 -0.1540
 2188DPPE   GL248112   1.818  19.522   3.088 -0.3185  0.1814 -0.3335
 2188DPPE   C1A48113   2.011  19.444   2.598  0.2375  0.2172 -0.2844
 2188DPPE   C2A48114   1.729  19.544   2.339 -0.1136  0.1716  0.4844
 2188DPPE   C3A48115   1.446  19.426   1.991  0.0599 -0.1075 -0.1772
 2188DPPE   C4A48116   1.274  19.428   1.608  0.2631 -0.1222  0.0581
 2188DPPE   C1B48117   1.522  19.457   2.811  0.2031  0.2222 -0.1960
 2188DPPE   C2B48118   0.966  19.417   2.651 -0.1464  0.3080 -0.2816
 2188DPPE   C3B48119   0.719  19.396   2.401 -0.0053  0.0734  0.2289
 2188DPPE   C4B48120   0.409  19.447   2.215  0.0341 -0.0520  0.2233
 2189DPPE   NH348121   3.009  16.048  12.532 -0.1999 -0.1115  0.1838
 2189DPPE   PO448122   3.215  15.783  12.840 -0.2406 -0.0012 -0.0418
 2189DPPE   GL148123   2.842  15.593  12.852 -0.0026 -0.1902  0.0618
 2189DPPE   GL248124   2.612  15.700  12.648 -0.1159  0.0328  0.0953
 2189DPPE   C1A48125   2.539  15.404  13.045  0.2078 -0.3123  0.5651
 2189DPPE   C2A48126   2.131  15.411  12.890  0.0376 -0.1389 -0.0905
 2189DPPE   C3A48127   1.779  15.479  12.663 -0.0865  0.0948 -0.0417
 2189DPPE   C4A48128   1.274  15.493  12.639  0.2513 -0.4102 -0.2167
 2189DPPE   C1B48129   2.570  15.294  12.530 -0.1271  0.0306 -0.0921
 2189DPPE   C2B48130   2.601  14.880  12.372  0.2458 -0.1200  0.1299
 2189DPPE   C3B48131   2.385  14.587  12.224  0.1069 -0.2756  0.1709
 2189DPPE   C4B48132   2.324  14.270  11.845  0.0718  0.1714  0.1604
 2190DPPE   NH348133   6.080   9.787  14.259 -0.0408 -0.1897  0.1819
 2190DPPE   PO448134   5.930   9.378  14.132  0.1062 -0.3361 -0.0529
 2190DPPE   GL148135   5.709   9.559  13.851  0.1460  0.2473  0.2322
 2190DPPE   GL248136   5.509   9.810  14.006 -0.1691 -0.2125  0.1537
 2190DPPE   C1A48137   5.267   9.666  13.646  0.4122 -0.0641 -0.1295
 2190DPPE   C2A48138   5.045  10.027  13.577 -0.0868 -0.2854  0.0754
 2190DPPE   C3A48139   4.790  10.374  13.499  0.0564  0.0290  0.1365
 2190DPPE   C4A48140   4.574  10.701  13.181  0.5691 -0.1250  0.0712
 2190DPPE   C1B48141   5.598  10.208  13.881 -0.0091 -0.3765  0.0461
 2190DPPE   C2B48142   5.815  10.475  13.671 -0.1306  0.1505 -0.0532
 2190DPPE   C3B48143   5.686  10.906  13.484  0.1248  0.3195 -0.2254
 2190DPPE   C4B48144   5.577  11.192  13.804 -0.2914  0.0617 -0.1099
 2191DPPE   NH348145  10.146  20.972  24.869  0.0911  0.4867  0.0622
 2191DPPE   PO448146  10.475  21.220  24.978  0.0922 -0.2379  0.0365
 2191DPPE   GL148147  10.441  20.991  25.409  0.0968 -0.2648 -0.0132
 2191DPPE   GL248148  10.625  21.175  25.672  0.1902  0.1315  0.0886
 2191DPPE   C1A48149  10.173  21.023  25.590  0.1651  0.1473 -0.1694
 2191DPPE   C2A48150   9.971  21.096  25.862  0.2446 -0.0699  0.0432
 2191DPPE   C3A48151   9.697  20.988  26.197 -0.0408 -0.1606  0.1717
 2191DPPE   C4A48152   9.491  21.028  26.476  0.2454  0.3127  0.1962
 2191DPPE   C1B48153  10.476  21.346  25.993  0.0014  0.0878 -0.3734
 2191DPPE   C2B48154  10.107  21.436  26.263 -0.0591 -0.0006 -0.0341
 2191DPPE   C3B48155   9.754  21.527  26.214  0.1095  0.1576  0.0138
 2191DPPE   C4B48156   9.240  21.529  26.248 -0.0205 -0.2522 -0.2870
 2192DPPE   NH348157  16.634  15.323  12.865  0.1145  0.3470 -0.1207
 2192DPPE   PO448158  16.664  15.679  13.033 -0.1863  0.1747 -0.0714
 2192DPPE   GL148159  16.350  15.755  12.738  0.0627  0.1018  0.0284
 2192DPPE   GL248160  16.177  15.462  12.646  0.0398  0.1310  0.1106
 2192DPPE   C1A48161  15.970  15.950  12.512  0.2525 -0.0953 -0.1360
 2192DPPE   C2A48162  15.756  16.188  12.250 -0.2211 -0.1989 -0.0419
 2192DPPE   C3A48163  15.592  16.468  11.960  0.3593  0.0923  0.1095
 2192DPPE   C4A48164  15.293  16.640  11.759 -0.1360 -0.0923  0.0756
 2192DPPE   C1B48165  15.911  15.253  12.378  0.1589 -0.0190 -0.0601
 2192DPPE   C2B48166  15.775  15.604  12.160 -0.0159 -0.0428  0.0308
 2192DPPE   C3B48167  16.211  15.649  12.122 -0.2514 -0.3325  0.2310
 2192DPPE   C4B48168  16.587  15.691  12.142 -0.1890  0.1647  0.0888
 2193DPPE   NH348169   4.282  27.675  14.483 -0.0671  0.6355 -0.0907
 2193DPPE   PO448170   4.703  27.748  14.344  0.1816 -0.0701  0.0514
 2193DPPE   GL148171   4.511  28.122  14.534 -0.1567  0.0833  0.0706
 2193DPPE   GL248172   4.408  28.361  14.230 -0.0137 -0.1731  0.0965
 2193DPPE   C1A48173   4.605  28.492  14.798  0.0798  0.0674  0.3717
 2193DPPE   C2A48174   4.771  28.927  15.119 -0.4674  0.3591  0.0711
 2193DPPE   C3A48175   5.116  29.210  15.234  0.2014  0.0946 -0.1712
 2193DPPE   C4A48176   5.136  29.590  15.388  0.0529  0.0046 -0.6097
 2193DPPE   C1B48177   4.324  28.780  14.455 -0.0213 -0.0371  0.1529
 2193DPPE   C2B48178   4.427  29.073  14.776  0.0673  0.4248  0.2612
 2193DPPE   C3B48179   4.202  29.189  15.179  0.0372  0.1690  0.0104
 2193DPPE   C4B48180   4.243  29.333  15.581  0.0488  0.1463  0.1060
 2194DPPE   NH348181   3.366  15.565   8.989 -0.1645  0.1360 -0.1524
 2194DPPE   PO448182   3.594  15.568   9.287  0.0058  0.0134 -0.3545
 2194DPPE   GL148183   3.212  15.418   9.414 -0.0436  0.1222  0.0189
 2194DPPE   GL248184   3.057  15.455   9.753 -0.0599 -0.2798 -0.1794
 2194DPPE   C1A48185   2.833  15.248   9.129 -0.2959 -0.1544  0.2466
 2194DPPE   C2A48186   2.754  14.805   9.227 -0.0037  0.1166 -0.0618
 2194DPPE   C3A48187   2.440  14.563   9.624  0.2140  0.3060  0.0120
 2194DPPE   C4A48188   2.096  14.257   9.515 -0.1955 -0.0653 -0.0182
 2194DPPE   C1B48189   2.623  15.436   9.529  0.0228  0.1850  0.0508
 2194DPPE   C2B48190   2.354  15.133   9.258  0.2181  0.1416 -0.2242
 2194DPPE   C3B48191   2.074  15.216   8.978 -0.0770 -0.1616 -0.3623
 2194DPPE   C4B48192   1.901  15.434   8.837 -0.4177 -0.0240  0.2010
 2195DPPE   NH348193  32.181  16.897   2.197  0.0615 -0.1417  0.1248
 2195DPPE   PO448194  32.316  16.754   1.800 -0.1621  0.0931  0.1571
 2195DPPE   GL148195  32.549  17.169   1.842 -0.2609 -0.2821  0.0334
 2195DPPE   GL248196  32.754  17.027   2.057 -0.0449 -0.0961 -0.2800
 2195DPPE   C1A48197  32.594  17.509   2.155 -0.0916  0.2337  0.0094
 2195DPPE   C2A48198  32.487  17.844   2.453  0.1588  0.1963 -0.1020
 2195DPPE   C3A48199  32.800  17.837   2.640  0.0078  0.2571 -0.0471
 2195DPPE   C4A48200  33.128  17.890   3.028  0.3224 -0.0613  0.0246
 2195DPPE   C1B48201  33.150  17.135   1.903  0.1331 -0.3222 -0.1523
 2195DPPE   C2B48202  33.480  17.066   2.146 -0.1278  0.1156 -0.1138
 2195DPPE   C3B48203  33.595  16.651   2.346  0.1828 -0.2162  0.1812
 2195DPPE   C4B48204  33.557  16.208   2.289 -0.1716 -0.2158  0.3702
 2196DPPE   NH348205  18.878  24.113  10.048  0.0131 -0.1328 -0.0051
 2196DPPE   PO448206  18.984  23.982   9.610  0.2300  0.2025  0.0306
 2196DPPE   GL148207  18.591  23.973   9.572 -0.4864  0.0132 -0.0458
 2196DPPE   GL248208  18.347  23.662   9.622 -0.0010 -0.1112 -0.1003
 2196DPPE   C1A48209  18.313  24.162   9.603 -0.1056  0.2227 -0.0467
 2196DPPE   C2A48210  17.953  24.358   9.517 -0.0262 -0.1772  0.6103
 2196DPPE   C3A48211  17.703  24.563   9.823  0.0374 -0.0060  0.0161
 2196DPPE   C4A48212  17.328  24.588  10.025  0.1479  0.0748 -0.2029
 2196DPPE   C1B48213  18.031  23.672   9.465 -0.1913 -0.2759 -0.1377
 2196DPPE   C2B48214  17.931  23.655   9.171 -0.1210  0.3565  0.2355
 2196DPPE   C3B48215  17.644  23.916   8.983 -0.1698  0.1995  0.1563
 2196DPPE   C4B48216  17.241  24.235   9.009  0.0807  0.1177 -0.1896
 2197DPPE   NH348217  10.927  19.302  16.550 -0.1143  0.0731 -0.0535
 2197DPPE   PO448218  11.269  19.062  16.917 -0.1615  0.1448  0.1313
 2197DPPE   GL148219  11.584  19.037  17.263  0.0260 -0.6288 -0.0741
 2197DPPE   GL248220  11.944  19.038  17.064 -0.5035  0.2514 -0.0247
 2197DPPE   C1A48221  11.521  19.045  17.712  0.0345 -0.2528 -0.0227
 2197DPPE   C2A48222  11.710  18.961  18.117 -0.0373 -0.0079  0.1232
 2197DPPE   C3A48223  11.932  18.841  18.528 -0.2055 -0.1477 -0.1160
 2197DPPE   C4A48224  12.221  18.750  18.780  0.3420 -0.1675  0.0828
 2197DPPE   C1B48225  12.369  19.061  17.294  0.2400 -0.3607  0.3079
 2197DPPE   C2B48226  12.759  19.020  17.310  0.0352  0.1435  0.0482
 2197DPPE   C3B48227  12.884  18.743  17.511 -0.2970  0.1712 -0.1203
 2197DPPE   C4B48228  12.849  18.506  17.842  0.0377 -0.2258  0.0482
 2198DPPE   NH348229  32.848  13.323   4.838 -0.1253 -0.0603 -0.0785
 2198DPPE   PO448230  32.584  13.643   5.209  0.1186  0.2302  0.1622
 2198DPPE   GL148231  32.851  13.829   5.445 -0.5346 -0.5557 -0.3315
 2198DPPE   GL248232  32.944  13.566   5.704  0.3088 -0.0663  0.1851
 2198DPPE   C1A48233  33.263  14.077   5.655 -0.1233  0.1282 -0.3128
 2198DPPE   C2A48234  33.384  14.546   5.435 -0.3357  0.3608 -0.1242
 2198DPPE   C3A48235  33.905  14.660   5.477 -0.3496  0.1632 -0.2513
 2198DPPE   C4A48236  34.270  14.981   5.418 -0.3866  0.1773  0.1613
 2198DPPE   C1B48237  33.158  13.620   5.992 -0.1837 -0.0561 -0.3858
 2198DPPE   C2B48238  33.690  13.764   5.992 -0.1098  0.0267 -0.0205
 2198DPPE   C3B48239  33.740  14.100   6.251 -0.0090  0.1400 -0.0929
 2198DPPE   C4B48240  34.111  14.292   6.400  0.1875  0.2379  0.1254
 2199DPPE   NH348241  12.749  21.270   4.218 -0.3153 -0.1026  0.2860
 2199DPPE   PO448242  13.021  21.469   3.869  0.0353 -0.2166  0.3863
 2199DPPE   GL148243  13.218  21.382   3.553 -0.2244  0.0799  0.3290
 2199DPPE   GL248244  12.933  21.090   3.301  0.0042  0.1256  0.0128
 2199DPPE   C1A48245  13.562  21.424   3.179  0.1512 -0.1276 -0.0342
 2199DPPE   C2A48246  13.838  21.416   2.875  0.0550 -0.0281 -0.2290
 2199DPPE   C3A48247  14.108  21.691   2.549 -0.0072 -0.1376 -0.0479
 2199DPPE   C4A48248  14.421  21.852   2.358 -0.0378  0.1426  0.1063
 2199DPPE   C1B48249  13.232  21.174   2.885  0.0499 -0.1534 -0.1053
 2199DPPE   C2B48250  13.450  21.186   2.547  0.2876  0.0646 -0.1905
 2199DPPE   C3B48251  13.723  21.324   2.320 -0.1778  0.5029 -0.0705
 2199DPPE   C4B48252  13.767  21.278   1.828  0.2445 -0.0987  0.2470
 2200DPPE   NH348253   0.777   9.493  18.686  0.0736  0.3428 -0.2341
 2200DPPE   PO448254   0.453   9.783  18.751 -0.2615  0.0535 -0.0084
 2200DPPE   GL148255   0.829  10.070  18.632  0.1851 -0.0337 -0.1037
 2200DPPE   GL248256   0.733  10.378  18.565  0.0399 -0.0422  0.0146
 2200DPPE   C1A48257   1.117  10.582  18.436  0.3073  0.0137 -0.1846
 2200DPPE   C2A48258   1.499  10.592  18.227  0.3147 -0.1305 -0.2453
 2200DPPE   C3A48259   1.575  10.231  17.899  0.4107 -0.2992  0.0770
 2200DPPE   C4A48260   1.760   9.847  17.520  0.0300  0.1927 -0.1366
 2200DPPE   C1B48261   0.302  10.533  18.542  0.1664 -0.0290  0.3727
 2200DPPE   C2B48262  -0.063  10.461  18.311 -0.2179 -0.3462  0.2338
 2200DPPE   C3B48263  -0.531  10.509  18.056 -0.0831 -0.1619 -0.0870
 2200DPPE   C4B48264  -0.576  10.393  17.709 -0.0369 -0.0577  0.1006
 2201DPPE   NH348265  12.292  24.670   5.783  0.2566  0.2172 -0.2390
 2201DPPE   PO448266  12.598  24.746   5.911 -0.2346 -0.2479  0.0684
 2201DPPE   GL148267  12.935  24.834   5.665  0.1398  0.1190 -0.1501
 2201DPPE   GL248268  13.072  25.038   5.781  0.2202  0.1151  0.0120
 2201DPPE   C1A48269  13.037  24.835   5.260  0.1602 -0.2426 -0.1614
 2201DPPE   C2A48270  13.171  25.046   4.804  0.4035 -0.0963 -0.1379
 2201DPPE   C3A48271  13.486  25.267   4.606  0.0083 -0.3581 -0.2647
 2201DPPE   C4A48272  13.709  25.252   4.274  0.0532 -0.2146  0.1857
 2201DPPE   C1B48273  13.247  25.237   5.459 -0.0634 -0.2379  0.2524
 2201DPPE   C2B48274  13.661  25.371   5.158  0.0287 -0.0248 -0.2658
 2201DPPE   C3B48275  14.059  25.405   4.943  0.0288 -0.1190  0.0107
 2201DPPE   C4B48276  14.323  25.475   4.619  0.2419 -0.3436  0.1737
 2202DPPE   NH348277   4.679  16.314   3.563 -0.2285 -0.0284 -0.3603
 2202DPPE   PO448278   4.502  16.128   3.878 -0.1381  0.1714 -0.0709
 2202DPPE   GL148279   4.394  15.884   3.530  0.1423  0.1581 -0.1845
 2202DPPE   GL248280   4.073  15.843   3.532  0.2278 -0.1242  0.0142
 2202DPPE   C1A48281   4.355  15.490   3.235 -0.0733 -0.1864  0.0258
 2202DPPE   C2A48282   4.318  15.302   2.817  0.1614  0.0961 -0.0265
 2202DPPE   C3A48283   4.443  15.349   2.431 -0.0527 -0.1580  0.0111
 2202DPPE   C4A48284   4.161  15.504   2.114 -0.1500 -0.0936 -0.0475
 2202DPPE   C1B48285   3.702  15.661   3.435  0.2243 -0.1860  0.0741
 2202DPPE   C2B48286   3.456  15.513   3.113 -0.0639 -0.0416 -0.4212
 2202DPPE   C3B48287   3.136  15.426   2.879  0.0484 -0.0736  0.0655
 2202DPPE   C4B48288   2.917  15.059   2.845  0.0109 -0.1982 -0.0687
 2203DPPE   NH348289  10.958  10.340   5.927  0.1662  0.3853  0.1409
 2203DPPE   PO448290  10.663  10.056   5.826 -0.0981 -0.3457 -0.0430
 2203DPPE   GL148291  10.476  10.547   5.915 -0.1621  0.0710  0.1233
 2203DPPE   GL248292  10.628  10.918   5.971 -0.0174  0.1536 -0.1175
 2203DPPE   C1A48293  10.129  10.918   5.995  0.0064 -0.0848 -0.1202
 2203DPPE   C2A48294   9.854  11.068   6.201  0.0263 -0.1156  0.1229
 2203DPPE   C3A48295   9.574  11.099   6.476  0.0557  0.0020 -0.1380
 2203DPPE   C4A48296   9.416  10.744   6.644  0.1150 -0.0593 -0.2111
 2203DPPE   C1B48297  10.616  11.209   6.152  0.1084  0.0220 -0.3033
 2203DPPE   C2B48298  10.483  11.602   6.314 -0.0090 -0.0008  0.0686
 2203DPPE   C3B48299  10.357  11.800   6.798 -0.0036 -0.0090 -0.4264
 2203DPPE   C4B48300  10.117  12.144   7.021 -0.2569  0.0345  0.0021
 2204DPPE   NH348301   9.750  10.564  14.786 -0.1655  0.0331 -0.1413
 2204DPPE   PO448302   9.703  10.757  15.192  0.2825  0.1897 -0.0422
 2204DPPE   GL148303   9.340  10.990  15.027 -0.2940 -0.2826 -0.1185
 2204DPPE   GL248304   9.139  11.051  15.241 -0.1099  0.3280  0.0011
 2204DPPE   C1A48305   9.317  11.262  14.625 -0.0656 -0.0654  0.1183
 2204DPPE   C2A48306   9.560  11.493  14.459  0.1003 -0.1047 -0.1043
 2204DPPE   C3A48307   9.532  11.878  14.213 -0.0860 -0.1926 -0.2441
 2204DPPE   C4A48308   9.672  12.236  13.881  0.0800  0.1480 -0.2894
 2204DPPE   C1B48309   8.847  11.201  14.967  0.1898 -0.0669  0.5673
 2204DPPE   C2B48310   8.637  11.273  14.623 -0.1077 -0.0111 -0.1697
 2204DPPE   C3B48311   8.335  11.643  14.437 -0.4087  0.0670 -0.2995
 2204DPPE   C4B48312   8.305  12.052  14.242  0.1595  0.0986 -0.2721
 2205DPPE   NH348313   4.712  22.671   2.679  0.0864  0.2458  0.0418
 2205DPPE   PO448314   5.104  22.447   2.564  0.1639  0.0224  0.0112
 2205DPPE   GL148315   5.195  22.285   2.085  0.0120  0.3498  0.0080
 2205DPPE   GL248316   5.036  21.902   1.963 -0.0225  0.0494 -0.0973
 2205DPPE   C1A48317   5.262  22.394   1.649  0.2938  0.2884 -0.1872
 2205DPPE   C2A48318   5.208  22.460   1.263  0.1614 -0.0301 -0.4538
 2205DPPE   C3A48319   5.026  22.414   0.856 -0.1869 -0.2773 -0.0822
 2205DPPE   C4A48320   4.822  22.711   0.512 -0.0969  0.1301 -0.1137
 2205DPPE   C1B48321   5.031  21.965   1.544  0.1864 -0.1692 -0.0304
 2205DPPE   C2B48322   4.848  21.999   1.159 -0.0733 -0.0583  0.0306
 2205DPPE   C3B48323   4.832  22.011   0.645 -0.2509 -0.2805 -0.1875
 2205DPPE   C4B48324   4.815  21.876   0.239  0.0288  0.0400  0.2567
 2206DPPE   NH348325   1.930  17.006  12.197  0.0602  0.2691  0.1240
 2206DPPE   PO448326   2.367  16.804  12.036 -0.2115  0.2272  0.0801
 2206DPPE   GL148327   2.012  16.466  12.008  0.2843 -0.0677  0.0643
 2206DPPE   GL248328   2.267  16.281  11.851  0.1900 -0.1713 -0.0101
 2206DPPE   C1A48329   1.710  16.260  11.659 -0.0434 -0.2232  0.0940
 2206DPPE   C2A48330   1.428  15.886  11.776  0.0703 -0.2379  0.2565
 2206DPPE   C3A48331   1.201  15.592  11.998 -0.0936 -0.2059 -0.1906
 2206DPPE   C4A48332   1.006  15.171  12.115 -0.1413  0.0066  0.1682
 2206DPPE   C1B48333   2.023  15.865  11.898  0.0633  0.1893 -0.1988
 2206DPPE   C2B48334   2.055  15.423  11.837 -0.0255  0.0440 -0.0004
 2206DPPE   C3B48335   1.813  15.080  11.665 -0.1102 -0.0853  0.2355
 2206DPPE   C4B48336   1.400  14.895  11.648 -0.0982 -0.0752  0.1187
 2207DPPE   NH348337  34.138  10.772   5.246  0.0483  0.1139 -0.0846
 2207DPPE   PO448338  34.156  11.180   5.298  0.4702 -0.0044 -0.2144
 2207DPPE   GL148339  34.573  11.161   5.339  0.0875 -0.1422 -0.1329
 2207DPPE   GL248340  34.617  10.869   5.319 -0.1204  0.1421 -0.2836
 2207DPPE   C1A48341  34.946  11.338   5.483  0.1856 -0.0277 -0.2941
 2207DPPE   C2A48342  35.266  11.644   5.464  0.1957  0.0768  0.1197
 2207DPPE   C3A48343  35.706  11.827   5.599 -0.0712 -0.0582  0.3112
 2207DPPE   C4A48344  36.125  11.834   5.924 -0.2125 -0.0615  0.1040
 2207DPPE   C1B48345  35.108  10.993   5.180 -0.1644 -0.0022  0.1418
 2207DPPE   C2B48346  35.498  11.311   5.238  0.1066  0.0989 -0.5299
 2207DPPE   C3B48347  35.767  11.478   4.992 -0.2536  0.1236 -0.3201
 2207DPPE   C4B48348  36.188  11.569   4.825 -0.0470  0.3047 -0.1320
 2208DPPE   NH348349   3.649  16.115   4.739 -0.0010 -0.2773  0.1142
 2208DPPE   PO448350   3.415  16.528   4.803  0.1304 -0.0058 -0.3319
 2208DPPE   GL148351   3.122  16.192   4.700  0.0924 -0.3839 -0.1421
 2208DPPE   GL248352   3.228  16.012   4.465 -0.1139 -0.1957  0.1994
 2208DPPE   C1A48353   3.114  15.752   4.860 -0.1947  0.2387  0.0162
 2208DPPE   C2A48354   3.010  15.260   4.726  0.1598  0.0730 -0.4712
 2208DPPE   C3A48355   2.689  15.414   4.450  0.0058 -0.1700  0.1538
 2208DPPE   C4A48356   2.363  15.461   4.041 -0.2531 -0.1140 -0.1222
 2208DPPE   C1B48357   2.984  15.876   4.171  0.3733  0.2546 -0.1018
 2208DPPE   C2B48358   2.898  15.878   3.692  0.4247  0.1147  0.1515
 2208DPPE   C3B48359   2.670  15.611   3.397 -0.1816  0.2588  0.1060
 2208DPPE   C4B48360   2.540  15.592   2.954 -0.0005 -0.0143 -0.3253
 2209DPPE   NH348361   0.734  20.728   5.464 -0.0226 -0.3093 -0.1510
 2209DPPE   PO448362   0.697  21.157   5.692 -0.0636 -0.2436  0.0607
 2209DPPE   GL148363   0.303  21.082   5.477  0.1273  0.0294 -0.0298
 2209DPPE   GL248364  -0.060  21.409   5.344  0.0624 -0.0137  0.0435
 2209DPPE   C1A48365  -0.197  20.958   5.536 -0.2653  0.0206 -0.0894
 2209DPPE   C2A48366  -0.258  20.550   5.675  0.0795 -0.1907 -0.0727
 2209DPPE   C3A48367  -0.358  20.199   5.798  0.2233 -0.1344  0.1142
 2209DPPE   C4A48368  -0.545  19.838   5.712 -0.0429  0.0810  0.3835
 2209DPPE   C1B48369  -0.190  21.495   4.932 -0.1750  0.0656  0.1640
 2209DPPE   C2B48370  -0.398  21.720   4.642  0.2076  0.1899  0.3198
 2209DPPE   C3B48371  -0.784  21.572   4.347 -0.0712 -0.1749  0.6872
 2209DPPE   C4B48372  -0.893  21.260   4.029  0.1391  0.1438  0.1063
 2210DPPE   NH348373  36.937  12.232   0.279  0.0441 -0.0922 -0.0765
 2210DPPE   PO448374  37.091  12.201   0.800  0.0198 -0.2001 -0.1086
 2210DPPE   GL148375  37.091  12.492   1.153 -0.0928 -0.0811  0.0986
 2210DPPE   GL248376  37.099  12.754   0.930 -0.2593 -0.0821  0.0485
 2210DPPE   C1A48377  37.265  12.443   1.656  0.0651 -0.4375 -0.0343
 2210DPPE   C2A48378  37.604  12.386   1.915 -0.0541 -0.1163 -0.2668
 2210DPPE   C3A48379  37.846  12.456   2.285 -0.3980 -0.2394  0.2839
 2210DPPE   C4A48380  37.576  12.741   2.529  0.1379  0.0615  0.0615
 2210DPPE   C1B48381  37.270  13.207   1.048 -0.1385 -0.3431 -0.0838
 2210DPPE   C2B48382  37.497  13.508   1.306  0.1157  0.3057 -0.0888
 2210DPPE   C3B48383  37.512  13.782   1.762  0.2172 -0.0445 -0.3206
 2210DPPE   C4B48384  37.484  13.776   2.158 -0.2476  0.2090  0.0485
 2211DPPE   NH348385   3.561  13.135  19.154  0.2157  0.0432  0.0217
 2211DPPE   PO448386   3.326  13.412  19.481  0.0362 -0.0350  0.2487
 2211DPPE   GL148387   3.373  13.596  19.142 -0.0704 -0.1124 -0.0644
 2211DPPE   GL248388   3.129  13.824  19.085 -0.0904  0.0993 -0.0936
 2211DPPE   C1A48389   3.674  13.928  18.905  0.2574  0.2056 -0.3587
 2211DPPE   C2A48390   3.701  14.099  18.485  0.3593 -0.1012 -0.1197
 2211DPPE   C3A48391   3.485  14.320  18.185  0.0106 -0.0348  0.2774
 2211DPPE   C4A48392   3.287  14.322  17.898 -0.3017  0.2910  0.4478
 2211DPPE   C1B48393   3.035  14.061  18.663  0.2220  0.3570  0.0918
 2211DPPE   C2B48394   3.172  13.964  18.204  0.3420 -0.0169 -0.1138
 2211DPPE   C3B48395   3.517  13.822  18.078 -0.6539 -0.3607  0.0903
 2211DPPE   C4B48396   3.842  13.635  18.334 -0.5598  0.1442 -0.0065
 2212DPPE   NH348397   5.376  16.480  16.826  0.4629 -0.2430  0.0965
 2212DPPE   PO448398   5.362  16.130  16.777 -0.1173  0.1502 -0.1205
 2212DPPE   GL148399   5.514  15.796  16.982  0.1001 -0.0795 -0.2363
 2212DPPE   GL248400   5.459  15.618  16.779  0.2410 -0.0723  0.0431
 2212DPPE   C1A48401   5.623  15.607  17.271  0.1910 -0.3206  0.0323
 2212DPPE   C2A48402   5.789  15.259  17.493  0.0563  0.0296 -0.1084
 2212DPPE   C3A48403   6.162  14.871  17.393  0.1372 -0.0251 -0.2543
 2212DPPE   C4A48404   6.677  14.765  17.355  0.0874  0.3112 -0.0194
 2212DPPE   C1B48405   5.306  15.259  16.955  0.2215  0.0561 -0.2603
 2212DPPE   C2B48406   5.045  14.940  16.829  0.0981 -0.0395 -0.1551
 2212DPPE   C3B48407   4.704  14.752  17.040  0.0881 -0.0566  0.2229
 2212DPPE   C4B48408   4.471  14.524  17.321 -0.1494  0.0932  0.0815
 2213DPPE   NH348409  32.778  11.891  15.054  0.0653  0.1490  0.2590
 2213DPPE   PO448410  32.781  11.754  14.692 -0.1745  0.1738 -0.2195
 2213DPPE   GL148411  32.783  12.172  14.627  0.2214  0.4283 -0.3492
 2213DPPE   GL248412  32.578  12.324  14.382 -0.1009 -0.1612  0.1440
 2213DPPE   C1A48413  33.005  12.462  14.626 -0.0579 -0.1244  0.1508
 2213DPPE   C2A48414  33.353  12.522  14.425  0.0907 -0.1418  0.0763
 2213DPPE   C3A48415  33.685  12.195  14.358  0.3044  0.2781 -0.1281
 2213DPPE   C4A48416  33.863  11.981  14.668  0.2780 -0.1492  0.3111
 2213DPPE   C1B48417  32.752  12.778  14.269 -0.2905  0.1630 -0.1492
 2213DPPE   C2B48418  32.942  13.104  14.417  0.1932  0.0209 -0.3998
 2213DPPE   C3B48419  33.262  13.383  14.644  0.2684  0.1953  0.2653
 2213DPPE   C4B48420  33.580  13.571  14.571  0.1521  0.1888  0.3234
 2214DPPE   NH348421   3.553  16.085   6.273 -0.0584 -0.0142 -0.3406
 2214DPPE   PO448422   3.592  15.946   6.629  0.0424 -0.1370  0.1285
 2214DPPE   GL148423   3.325  15.631   6.552  0.0616 -0.2313  0.2761
 2214DPPE   GL248424   3.094  15.730   6.381 -0.0029  0.2209 -0.1471
 2214DPPE   C1A48425   3.183  15.169   6.684  0.3354  0.0589 -0.2414
 2214DPPE   C2A48426   2.921  14.937   6.747 -0.2212  0.0955  0.2946
 2214DPPE   C3A48427   2.834  14.516   6.677 -0.1631  0.2396 -0.1951
 2214DPPE   C4A48428   2.600  14.351   6.433 -0.2973 -0.2624  0.0733
 2214DPPE   C1B48429   2.714  15.788   6.178 -0.3691 -0.3251 -0.4950
 2214DPPE   C2B48430   2.393  15.611   6.285  0.0197  0.2147 -0.0367
 2214DPPE   C3B48431   1.942  15.614   6.170 -0.1174 -0.0818  0.0246
 2214DPPE   C4B48432   1.456  15.611   6.181  0.2569 -0.3239 -0.2214
 2215DPPE   NH348433  12.830  23.835   5.612 -0.1013 -0.0321 -0.0012
 2215DPPE   PO448434  13.150  23.996   5.824 -0.1557  0.2363 -0.0514
 2215DPPE   GL148435  13.363  24.252   5.526 -0.1098  0.2377  0.1026
 2215DPPE   GL248436  13.277  24.393   5.307 -0.4234  0.0192 -0.0951
 2215DPPE   C1A48437  13.770  24.409   5.278  0.0433 -0.0210 -0.2560
 2215DPPE   C2A48438  14.174  24.429   5.372 -0.0534 -0.2196 -0.2601
 2215DPPE   C3A48439  14.523  24.299   5.201 -0.1909 -0.2736  0.1294
 2215DPPE   C4A48440  14.813  24.268   4.896 -0.2320 -0.0071 -0.1763
 2215DPPE   C1B48441  13.467  24.721   5.040 -0.0477 -0.1139  0.0341
 2215DPPE   C2B48442  13.773  24.899   4.823  0.1757  0.0770  0.2210
 2215DPPE   C3B48443  14.168  24.987   4.588 -0.1571  0.3865 -0.1459
 2215DPPE   C4B48444  14.643  25.055   4.446  0.0551  0.2185 -0.2697
 2216DPPE   NH348445  16.220  18.440   1.334  0.2225  0.0125 -0.2234
 2216DPPE   PO448446  16.020  18.513   1.742  0.0829  0.3137 -0.0701
 2216DPPE   GL148447  15.659  18.525   2.080 -0.1231  0.2304  0.3245
 2216DPPE   GL248448  15.382  18.453   1.960 -0.2091 -0.0367 -0.2353
 2216DPPE   C1A48449  15.652  18.683   2.480  0.1439 -0.2756 -0.0823
 2216DPPE   C2A48450  15.439  18.593   2.878 -0.1710  0.2318  0.0434
 2216DPPE   C3A48451  15.271  18.258   2.969 -0.0848  0.3831 -0.0053
 2216DPPE   C4A48452  15.141  18.216   3.363  0.1571 -0.0624  0.0075
 2216DPPE   C1B48453  15.216  18.482   2.402 -0.1278  0.0860  0.1949
 2216DPPE   C2B48454  14.916  18.488   2.741  0.1737 -0.0276  0.0457
 2216DPPE   C3B48455  15.045  18.705   3.175 -0.1174 -0.3387  0.3842
 2216DPPE   C4B48456  14.992  18.577   3.655 -0.0092  0.4049 -0.1364
 2217DPPE   NH348457   0.700  21.145  12.443  0.1529 -0.0281  0.1488
 2217DPPE   PO448458   0.271  21.123  12.535 -0.1430  0.1117  0.0412
 2217DPPE   GL148459  -0.120  20.757  12.452 -0.1919  0.3040  0.4584
 2217DPPE   GL248460  -0.194  20.574  12.793  0.1155  0.0286 -0.2928
 2217DPPE   C1A48461  -0.575  20.586  12.440 -0.0054 -0.0855 -0.0257
 2217DPPE   C2A48462  -1.014  20.470  12.334  0.0674 -0.1051  0.3113
 2217DPPE   C3A48463  -1.368  20.658  12.453 -0.0574 -0.0638  0.3290
 2217DPPE   C4A48464  -1.847  20.574  12.482  0.0574 -0.3998  0.0692
 2217DPPE   C1B48465  -0.568  20.736  12.921 -0.1641  0.0390  0.0368
 2217DPPE   C2B48466  -0.738  20.867  13.159  0.0268  0.3114 -0.0932
 2217DPPE   C3B48467  -1.176  21.039  13.278  0.0377 -0.0486 -0.1106
 2217DPPE   C4B48468  -1.628  20.980  13.514 -0.0707  0.2227 -0.0581
 2218DPPE   NH348469   5.829  29.903  18.723 -0.0717 -0.2315 -0.3468
 2218DPPE   PO448470   5.512  30.190  18.571  0.0335 -0.1147 -0.2137
 2218DPPE   GL148471   5.336  30.090  18.247 -0.1537  0.0610 -0.0506
 2218DPPE   GL248472   5.047  30.185  18.349  0.0298 -0.2611  0.0315
 2218DPPE   C1A48473   5.422  29.957  17.867  0.1325 -0.0034 -0.0396
 2218DPPE   C2A48474   5.396  29.809  17.365 -0.0808  0.1441 -0.1771
 2218DPPE   C3A48475   5.305  29.707  17.000  0.0344  0.0281  0.2588
 2218DPPE   C4A48476   5.094  29.495  16.687  0.0449 -0.1492  0.2287
 2218DPPE   C1B48477   4.871  29.896  18.036 -0.0380  0.1319 -0.0773
 2218DPPE   C2B48478   5.000  29.642  17.628  0.0056  0.2729  0.0644
 2218DPPE   C3B48479   5.228  29.321  17.460  0.3838  0.0627  0.0308
 2218DPPE   C4B48480   5.528  29.185  17.182 -0.2633 -0.0952  0.0048
 2219DPPE   NH348481  19.007  22.544   8.303 -0.2326  0.0396  0.0572
 2219DPPE   PO448482  19.137  22.284   8.033  0.1902  0.1296  0.0279
 2219DPPE   GL148483  18.702  22.187   8.044  0.0073 -0.1579  0.0765
 2219DPPE   GL248484  18.487  21.778   8.244 -0.0207  0.2673  0.1967
 2219DPPE   C1A48485  18.353  22.284   7.653 -0.3022 -0.2424 -0.3583
 2219DPPE   C2A48486  18.042  22.231   7.654  0.2033  0.1876  0.3434
 2219DPPE   C3A48487  17.758  21.859   7.371 -0.1917 -0.0362  0.2439
 2219DPPE   C4A48488  17.384  21.780   7.182  0.0059  0.3202  0.0062
 2219DPPE   C1B48489  18.134  22.031   8.151 -0.1959 -0.2297 -0.1596
 2219DPPE   C2B48490  17.816  21.907   8.554  0.1897 -0.1309  0.0876
 2219DPPE   C3B48491  17.614  21.864   8.976  0.2877 -0.0832  0.1591
 2219DPPE   C4B48492  17.277  21.541   9.094  0.1573 -0.1901  0.0016
 2220DPPE   NH348493   2.302  16.435   9.428 -0.1447  0.1271  0.0584
 2220DPPE   PO448494   2.026  16.689   9.142  0.3269 -0.0068 -0.1493
 2220DPPE   GL148495   1.622  16.687   9.293  0.0487 -0.0688 -0.0155
 2220DPPE   GL248496   1.452  16.877   9.267 -0.2626  0.1191  0.0054
 2220DPPE   C1A48497   1.306  16.365   9.225  0.0286  0.2604  0.0380
 2220DPPE   C2A48498   0.862  16.231   9.153  0.0912  0.2529 -0.1465
 2220DPPE   C3A48499   0.468  16.037   9.031  0.0741  0.0673 -0.0042
 2220DPPE   C4A48500   0.115  16.111   8.970  0.0569  0.1227 -0.0979
 2220DPPE   C1B48501   1.009  16.845   9.039 -0.1218  0.1412 -0.0387
 2220DPPE   C2B48502   0.648  16.611   8.802 -0.1510  0.1293 -0.0156
 2220DPPE   C3B48503   0.508  16.515   8.353  0.0560 -0.2555  0.0568
 2220DPPE   C4B48504   0.345  16.413   7.992  0.1716 -0.0777  0.0106
 2221DPPE   NH348505   3.661  29.373   2.497 -0.1320  0.1063 -0.3280
 2221DPPE   PO448506   4.193  29.432   2.349  0.0416  0.1074  0.1766
 2221DPPE   GL148507   4.262  28.989   2.496  0.1480 -0.1143 -0.1047
 2221DPPE   GL248508   3.909  28.969   2.702  0.0203  0.0139  0.2858
 2221DPPE   C1A48509   4.272  28.547   2.610 -0.1942  0.0014 -0.1902
 2221DPPE   C2A48510   4.399  28.225   2.819  0.4090  0.2084 -0.0600
 2221DPPE   C3A48511   4.727  27.852   2.834  0.0507 -0.1626 -0.1286
 2221DPPE   C4A48512   4.817  27.351   2.663 -0.2703 -0.0799 -0.2326
 2221DPPE   C1B48513   4.043  28.841   3.064  0.0260 -0.0997 -0.2215
 2221DPPE   C2B48514   4.053  28.442   3.262 -0.1245  0.0024  0.0411
 2221DPPE   C3B48515   4.139  28.279   3.533 -0.1511  0.1284  0.2006
 2221DPPE   C4B48516   4.354  28.202   3.915  0.0981 -0.0354 -0.3407
 2222DPPE   NH348517  10.560  31.037  17.319  0.1385  0.0600 -0.1201
 2222DPPE   PO448518  10.093  30.981  17.263  0.0221 -0.0793 -0.1319
 2222DPPE   GL148519  10.104  30.789  16.863 -0.1659  0.2609 -0.0464
 2222DPPE   GL248520   9.934  30.448  16.983  0.2597  0.0953 -0.0963
 2222DPPE   C1A48521   9.867  30.717  16.563 -0.5017  0.1180 -0.0596
 2222DPPE   C2A48522   9.466  30.534  16.428 -0.3104  0.2345 -0.0057
 2222DPPE   C3A48523   9.159  30.291  16.146 -0.1326  0.1378  0.0586
 2222DPPE   C4A48524   9.184  30.363  15.672  0.2038  0.0218 -0.2000
 2222DPPE   C1B48525   9.527  30.720  16.994  0.0148  0.0561  0.1017
 2222DPPE   C2B48526   9.142  30.626  17.268 -0.3085  0.3485  0.0578
 2222DPPE   C3B48527   8.977  30.235  17.299 -0.0014 -0.2728  0.3191
 2222DPPE   C4B48528   9.100  29.749  17.203  0.0785 -0.1750 -0.2123
 2223DPPE   NH348529   1.007  18.687  12.942 -0.0820 -0.1361  0.1603
 2223DPPE   PO448530   0.895  18.286  13.026 -0.2251  0.4654  0.1020
 2223DPPE   GL148531   0.524  18.241  13.189  0.1138 -0.0565 -0.0726
 2223DPPE   GL248532   0.564  18.098  13.443  0.2273 -0.1022 -0.2588
 2223DPPE   C1A48533   0.172  17.825  13.135 -0.1085 -0.0653  0.0738
 2223DPPE   C2A48534  -0.194  17.566  13.059 -0.0757  0.1007  0.0304
 2223DPPE   C3A48535  -0.238  17.123  13.254  0.0881  0.5230  0.0810
 2223DPPE   C4A48536  -0.388  17.248  13.545 -0.3176  0.2244 -0.1630
 2223DPPE   C1B48537   0.341  17.725  13.602 -0.3323 -0.0282 -0.0342
 2223DPPE   C2B48538   0.174  17.307  13.493  0.1946 -0.3197 -0.0345
 2223DPPE   C3B48539   0.128  16.887  13.625  0.2639 -0.5184 -0.1838
 2223DPPE   C4B48540   0.155  16.548  13.983  0.1465 -0.4188  0.0844
 2224DPPE   NH348541   8.670  27.615  15.489  0.0021  0.2134  0.0622
 2224DPPE   PO448542   9.028  27.242  15.391 -0.0094 -0.1064  0.2109
 2224DPPE   GL148543   9.094  27.506  15.821  0.1736 -0.0470 -0.3163
 2224DPPE   GL248544   9.305  27.503  16.045 -0.2151  0.2294  0.1460
 2224DPPE   C1A48545   8.903  28.009  15.819  0.2278  0.0134  0.1141
 2224DPPE   C2A48546   8.966  28.539  15.929 -0.3508 -0.1867  0.2728
 2224DPPE   C3A48547   9.329  28.913  15.966  0.0294  0.2801 -0.2427
 2224DPPE   C4A48548   9.223  29.027  16.387  0.0429  0.0271  0.4082
 2224DPPE   C1B48549   9.234  27.932  16.186  0.1838 -0.2468 -0.4255
 2224DPPE   C2B48550   9.349  28.314  16.221  0.0387 -0.0149  0.1644
 2224DPPE   C3B48551   9.555  28.648  16.399 -0.2384 -0.0448 -0.3610
 2224DPPE   C4B48552   9.893  29.010  16.226  0.1897 -0.2215 -0.2092
 2225DPPE   NH348553  14.688  30.032  12.393 -0.1590  0.4458 -0.2141
 2225DPPE   PO448554  14.950  30.127  12.783 -0.0300 -0.0647  0.0793
 2225DPPE   GL148555  14.595  29.795  12.865  0.0007 -0.3331 -0.0231
 2225DPPE   GL248556  14.826  29.502  12.979  0.2009  0.1293 -0.0780
 2225DPPE   C1A48557  14.122  29.709  12.731 -0.1846 -0.0643 -0.0338
 2225DPPE   C2A48558  13.747  29.941  12.795  0.0873  0.0906 -0.0539
 2225DPPE   C3A48559  13.778  29.876  13.197  0.2958  0.3616  0.0052
 2225DPPE   C4A48560  13.798  29.536  13.561 -0.1118  0.0330 -0.1716
 2225DPPE   C1B48561  14.403  29.188  12.832 -0.1905  0.0205 -0.0239
 2225DPPE   C2B48562  14.112  28.966  12.654 -0.0146 -0.2759 -0.1329
 2225DPPE   C3B48563  13.720  28.681  12.668 -0.0675 -0.0210 -0.1043
 2225DPPE   C4B48564  13.477  28.423  12.916 -0.1056  0.1224 -0.0171
 2226DPPE   NH348565  37.081   7.296  10.232  0.1329  0.2279 -0.1835
 2226DPPE   PO448566  37.505   7.209  10.134  0.1426 -0.0436  0.0154
 2226DPPE   GL148567  37.515   7.669   9.978 -0.0279  0.3137  0.1220
 2226DPPE   GL248568  37.246   7.796  10.191 -0.2834 -0.0127 -0.0470
 2226DPPE   C1A48569  37.854   7.964   9.845 -0.2486 -0.1957  0.1711
 2226DPPE   C2A48570  38.295   7.921   9.821  0.5432  0.2035 -0.3013
 2226DPPE   C3A48571  38.673   8.048  10.135  0.1449  0.0917 -0.0663
 2226DPPE   C4A48572  39.142   8.239  10.248 -0.0441  0.4118 -0.1221
 2226DPPE   C1B48573  37.567   8.109  10.252  0.2031  0.2560  0.5071
 2226DPPE   C2B48574  37.722   8.478  10.429  0.2791  0.2413  0.1780
 2226DPPE   C3B48575  37.527   8.931  10.448  0.3731  0.0462  0.1298
 2226DPPE   C4B48576  37.528   9.306  10.376  0.0138 -0.0285 -0.1459
 2227DPPE   NH348577  33.036  12.470   4.949  0.3105 -0.0261 -0.4278
 2227DPPE   PO448578  32.943  12.861   4.977 -0.2136 -0.2820 -0.1276
 2227DPPE   GL148579  33.190  13.053   5.244 -0.0936 -0.3756 -0.1181
 2227DPPE   GL248580  33.094  13.380   5.282  0.3098  0.3131 -0.0923
 2227DPPE   C1A48581  33.601  13.075   5.289 -0.1461  0.0389 -0.2250
 2227DPPE   C2A48582  33.995  13.055   5.463 -0.2013  0.0240 -0.2052
 2227DPPE   C3A48583  34.493  12.983   5.504 -0.0411  0.2779  0.2036
 2227DPPE   C4A48584  34.917  13.026   5.629 -0.0378 -0.2887  0.1411
 2227DPPE   C1B48585  33.396  13.633   5.435 -0.3436  0.2000 -0.0134
 2227DPPE   C2B48586  33.747  13.525   5.563 -0.1013 -0.1955  0.1321
 2227DPPE   C3B48587  34.130  13.403   5.757 -0.1267 -0.3189 -0.0730
 2227DPPE   C4B48588  34.527  13.351   5.907  0.2354  0.5675  0.2892
 2228DPPE   NH348589  10.816  11.268  15.325 -0.0391  0.0112 -0.0705
 2228DPPE   PO448590  10.868  11.532  15.797  0.0467 -0.1310 -0.0097
 2228DPPE   GL148591  10.798  11.846  15.403 -0.1081 -0.0220 -0.4630
 2228DPPE   GL248592  10.573  12.002  15.636  0.1496 -0.0551  0.1809
 2228DPPE   C1A48593  10.617  12.165  15.189  0.0169  0.0389  0.0722
 2228DPPE   C2A48594  10.710  12.618  15.000 -0.0521  0.0573 -0.2172
 2228DPPE   C3A48595  10.631  12.971  14.952  0.0615  0.2129 -0.2303
 2228DPPE   C4A48596  10.487  13.180  14.611 -0.2635  0.2489  0.0378
 2228DPPE   C1B48597  10.396  12.312  15.957  0.0141 -0.1588 -0.3281
 2228DPPE   C2B48598  10.117  12.520  16.407 -0.0288 -0.0476  0.0363
 2228DPPE   C3B48599   9.887  12.922  16.364 -0.3445  0.0593  0.0057
 2228DPPE   C4B48600   9.868  13.183  16.067  0.3251  0.2209 -0.0270
 2229DPPE   NH348601   4.988  13.570  11.975  0.2131 -0.2650  0.1798
 2229DPPE   PO448602   5.130  13.303  11.609  0.1635 -0.1717 -0.0572
 2229DPPE   GL148603   4.695  13.234  11.547  0.3681 -0.2921 -0.2240
 2229DPPE   GL248604   4.672  13.415  11.287 -0.1587  0.0808 -0.1652
 2229DPPE   C1A48605   4.379  12.973  11.657 -0.2291 -0.1569 -0.1683
 2229DPPE   C2A48606   4.272  12.646  11.973  0.1477  0.2687 -0.0002
 2229DPPE   C3A48607   4.138  12.518  12.379  0.2245 -0.2066  0.0412
 2229DPPE   C4A48608   3.760  12.668  12.596 -0.1578 -0.4369 -0.1770
 2229DPPE   C1B48609   4.277  13.211  11.250  0.0192  0.1199  0.1154
 2229DPPE   C2B48610   4.134  12.848  10.937  0.4100  0.1342  0.2274
 2229DPPE   C3B48611   4.186  12.420  10.667 -0.2151 -0.1638  0.1488
 2229DPPE   C4B48612   4.316  12.302  10.318  0.1916 -0.4950 -0.0477
 2230DPPE   NH348613   8.175  31.720  16.023 -0.0161 -0.0201 -0.3828
 2230DPPE   PO448614   8.464  31.668  15.681  0.3042  0.0179 -0.0061
 2230DPPE   GL148615   8.155  31.386  15.604  0.0863  0.0889  0.2381
 2230DPPE   GL248616   7.884  31.349  15.833 -0.2034 -0.2321  0.0487
 2230DPPE   C1A48617   8.294  30.927  15.430 -0.1704  0.2621 -0.0251
 2230DPPE   C2A48618   8.189  30.700  15.160  0.1225 -0.1243 -0.1555
 2230DPPE   C3A48619   8.256  30.235  14.990  0.0866  0.1700 -0.0205
 2230DPPE   C4A48620   8.531  29.893  15.115 -0.1460  0.1590  0.1388
 2230DPPE   C1B48621   7.755  31.059  15.547 -0.1491 -0.3002  0.0953
 2230DPPE   C2B48622   7.753  30.594  15.504 -0.2964  0.1218  0.0529
 2230DPPE   C3B48623   7.841  30.293  15.213 -0.0875  0.0752  0.0803
 2230DPPE   C4B48624   7.598  30.051  14.918 -0.0134 -0.0911  0.0282
 2231DPPE   NH348625  13.686  17.211  10.991 -0.0675  0.2307 -0.2150
 2231DPPE   PO448626  13.542  16.715  11.021 -0.3218  0.1725 -0.0508
 2231DPPE   GL148627  13.633  16.248  10.885 -0.0574 -0.2393  0.1046
 2231DPPE   GL248628  13.944  16.383  10.786  0.0124 -0.0436  0.1164
 2231DPPE   C1A48629  13.919  15.925  10.978 -0.1132  0.1443  0.1056
 2231DPPE   C2A48630  14.326  15.885  11.057  0.0566  0.1739 -0.0296
 2231DPPE   C3A48631  14.778  15.814  11.116 -0.3249 -0.3426  0.0521
 2231DPPE   C4A48632  15.117  15.727  11.345  0.3331 -0.0880 -0.1025
 2231DPPE   C1B48633  14.105  16.373  11.129  0.3937  0.2825  0.0993
 2231DPPE   C2B48634  14.069  16.144  11.527  0.1857  0.0649 -0.2236
 2231DPPE   C3B48635  14.269  15.829  11.832  0.0406 -0.0527 -0.0094
 2231DPPE   C4B48636  14.365  15.339  11.846  0.3876 -0.0917  0.3218
 2232DPPE   NH348637   0.127  19.427  10.583  0.1914 -0.2365  0.0916
 2232DPPE   PO448638   0.129  19.041  10.682 -0.3295 -0.3918  0.0720
 2232DPPE   GL148639  -0.211  19.064  10.520 -0.1428  0.5181  0.0883
 2232DPPE   GL248640  -0.084  18.989  10.149 -0.0259 -0.2401  0.0088
 2232DPPE   C1A48641  -0.603  19.012  10.611  0.1762  0.1160 -0.0822
 2232DPPE   C2A48642  -1.071  18.920  10.562  0.0761  0.3273 -0.1172
 2232DPPE   C3A48643  -1.451  18.955  10.600 -0.2284 -0.0604 -0.0458
 2232DPPE   C4A48644  -1.992  19.046  10.561  0.1873  0.2857 -0.0358
 2232DPPE   C1B48645  -0.580  18.918  10.132  0.1940 -0.0354 -0.0009
 2232DPPE   C2B48646  -0.914  18.613  10.129 -0.0070 -0.0153  0.0141
 2232DPPE   C3B48647  -1.260  18.480   9.872 -0.0950 -0.0002  0.1348
 2232DPPE   C4B48648  -1.598  18.171   9.983 -0.0129 -0.1497 -0.2588
 2233DPPE   NH348649   0.296  25.338   6.807 -0.0955 -0.1481  0.0076
 2233DPPE   PO448650   0.288  25.535   7.265  0.2969  0.1083  0.1679
 2233DPPE   GL148651  -0.031  25.754   7.090 -0.4317  0.2837 -0.0129
 2233DPPE   GL248652  -0.124  25.712   6.742 -0.0066 -0.3395 -0.0043
 2233DPPE   C1A48653  -0.447  25.958   7.166  0.2854  0.0832 -0.0556
 2233DPPE   C2A48654  -0.836  25.955   7.132  0.0586  0.1382  0.1830
 2233DPPE   C3A48655  -1.127  25.702   6.904 -0.4792  0.2507  0.1900
 2233DPPE   C4A48656  -1.374  25.733   6.650  0.0271 -0.0325  0.0684
 2233DPPE   C1B48657  -0.592  25.906   6.700  0.2201 -0.0976 -0.2295
 2233DPPE   C2B48658  -0.939  26.079   6.639 -0.3462  0.0037  0.0583
 2233DPPE   C3B48659  -1.148  26.411   6.941  0.0522  0.2310 -0.2079
 2233DPPE   C4B48660  -1.008  26.322   7.311  0.3780 -0.0946 -0.1080
 2234DPPE   NH348661   0.096  21.122  13.915  0.2327 -0.0415 -0.0006
 2234DPPE   PO448662   0.121  20.991  14.455 -0.0835  0.2116 -0.0791
 2234DPPE   GL148663  -0.234  20.661  14.553 -0.0195 -0.0667 -0.1159
 2234DPPE   GL248664  -0.511  20.938  14.435  0.0069 -0.0223  0.0855
 2234DPPE   C1A48665  -0.441  20.282  14.486 -0.2291 -0.1923  0.2349
 2234DPPE   C2A48666  -0.863  20.192  14.389 -0.1146 -0.2889 -0.1961
 2234DPPE   C3A48667  -1.094  20.472  14.604  0.1655  0.3069  0.1666
 2234DPPE   C4A48668  -1.602  20.479  14.631 -0.0007 -0.2568 -0.2882
 2234DPPE   C1B48669  -0.799  20.859  14.701 -0.2166  0.1197  0.1251
 2234DPPE   C2B48670  -1.047  20.768  15.086  0.2328  0.0955 -0.0343
 2234DPPE   C3B48671  -1.364  20.735  15.344  0.0378 -0.1032  0.0353
 2234DPPE   C4B48672  -1.724  20.507  15.523  0.0788  0.2351  0.0206
 2235DPPE   NH348673  30.998  17.361   4.057  0.0752  0.0160 -0.2175
 2235DPPE   PO448674  31.026  17.780   3.802 -0.0445  0.0376  0.0439
 2235DPPE   GL148675  31.400  17.421   3.799 -0.0169  0.1684  0.0339
 2235DPPE   GL248676  31.536  17.623   4.058  0.0425  0.2103  0.0981
 2235DPPE   C1A48677  31.711  17.165   3.887  0.0162 -0.2155 -0.0080
 2235DPPE   C2A48678  31.983  17.175   3.520  0.3486  0.1508 -0.1241
 2235DPPE   C3A48679  32.325  17.393   3.324 -0.1354 -0.0917  0.2183
 2235DPPE   C4A48680  32.468  17.525   2.955 -0.1284  0.0402  0.2566
 2235DPPE   C1B48681  31.791  17.974   4.028  0.4321  0.2945 -0.2567
 2235DPPE   C2B48682  31.915  18.366   4.087  0.0758 -0.1709 -0.1289
 2235DPPE   C3B48683  32.173  18.625   4.240  0.1114 -0.1223 -0.0312
 2235DPPE   C4B48684  32.234  18.972   4.410 -0.0651  0.1743  0.1279
 2236DPPE   NH348685  16.457  14.305  10.106 -0.3674  0.3395  0.1020
 2236DPPE   PO448686  16.373  14.031  10.561 -0.1750  0.2884  0.0003
 2236DPPE   GL148687  15.973  14.309  10.315  0.0282  0.0689 -0.0458
 2236DPPE   GL248688  15.733  14.140  10.190  0.0351  0.3427  0.2452
 2236DPPE   C1A48689  15.867  14.508   9.830 -0.1846  0.2748  0.0489
 2236DPPE   C2A48690  15.524  14.771   9.624 -0.0725  0.0444  0.0671
 2236DPPE   C3A48691  15.216  14.625   9.350 -0.1527 -0.0431  0.1400
 2236DPPE   C4A48692  14.966  14.881   9.212 -0.1026 -0.2722  0.0338
 2236DPPE   C1B48693  15.313  14.252  10.298 -0.1640  0.1008  0.1730
 2236DPPE   C2B48694  15.057  14.162  10.581 -0.0977  0.2725 -0.3804
 2236DPPE   C3B48695  14.617  14.185  10.645  0.0934  0.0274 -0.3349
 2236DPPE   C4B48696  14.521  13.939  11.040  0.0299  0.1894  0.0179
 2237DPPE   NH348697   2.300  16.991  12.978 -0.0279  0.2253 -0.0556
 2237DPPE   PO448698   2.139  17.366  13.162  0.2944  0.0812 -0.0402
 2237DPPE   GL148699   1.805  17.239  13.413 -0.1261  0.0827  0.4549
 2237DPPE   GL248700   1.714  17.471  13.664 -0.0746 -0.0913 -0.2630
 2237DPPE   C1A48701   1.392  17.027  13.448 -0.0425 -0.1318 -0.2166
 2237DPPE   C2A48702   0.989  16.836  13.486  0.0192 -0.4098  0.1638
 2237DPPE   C3A48703   0.762  16.486  13.370  0.0678 -0.3524  0.2728
 2237DPPE   C4A48704   0.553  16.194  13.567 -0.0318  0.0536  0.1564
 2237DPPE   C1B48705   1.303  17.439  13.846 -0.0244  0.0820 -0.2481
 2237DPPE   C2B48706   0.965  17.533  14.137 -0.2604  0.1000 -0.2243
 2237DPPE   C3B48707   0.700  17.364  14.415  0.0863  0.0430  0.1878
 2237DPPE   C4B48708   0.266  17.410  14.532 -0.3104  0.2192  0.0220
 2238DPPE   NH348709   0.507  30.526   6.226  0.0072  0.2104 -0.1982
 2238DPPE   PO448710   0.534  30.627   6.623 -0.1695 -0.2440  0.3658
 2238DPPE   GL148711   0.904  30.501   6.674  0.1480 -0.2510 -0.1068
 2238DPPE   GL248712   1.018  30.701   6.628  0.4050  0.0779 -0.1849
 2238DPPE   C1A48713   1.153  30.236   6.733 -0.0282  0.0382 -0.0032
 2238DPPE   C2A48714   1.389  29.804   6.887  0.0204  0.2204  0.3414
 2238DPPE   C3A48715   1.696  29.528   7.098 -0.1281 -0.4977  0.2646
 2238DPPE   C4A48716   1.904  29.351   7.467  0.1113 -0.2550 -0.3040
 2238DPPE   C1B48717   1.463  30.792   6.752  0.4827  0.0619 -0.0805
 2238DPPE   C2B48718   1.816  30.948   6.702 -0.0007 -0.0552 -0.3170
 2238DPPE   C3B48719   1.991  31.210   7.080  0.0321  0.1817  0.3507
 2238DPPE   C4B48720   1.753  31.535   7.402 -0.3961 -0.1814  0.0506
 2239DPPE   NH348721  14.988  23.225   9.366  0.2046 -0.2704  0.0731
 2239DPPE   PO448722  14.818  23.219   9.000 -0.1869  0.1794  0.0863
 2239DPPE   GL148723  15.278  23.251   8.929  0.1034  0.0354  0.0678
 2239DPPE   GL248724  15.382  23.510   9.149  0.2031  0.0512 -0.0277
 2239DPPE   C1A48725  15.687  23.234   8.889 -0.2806  0.1421  0.0251
 2239DPPE   C2A48726  16.052  23.334   8.846  0.2229 -0.0372  0.5316
 2239DPPE   C3A48727  16.440  23.544   8.598  0.0015 -0.0981  0.1325
 2239DPPE   C4A48728  16.775  23.718   8.329 -0.2521  0.5825  0.2215
 2239DPPE   C1B48729  15.720  23.630   9.212 -0.1961  0.0186  0.2992
 2239DPPE   C2B48730  16.103  23.751   9.362 -0.6250 -0.0250  0.1029
 2239DPPE   C3B48731  16.439  24.155   9.322 -0.2204  0.1552 -0.2964
 2239DPPE   C4B48732  16.829  24.400   9.183  0.2151  0.4248 -0.1988
 2240DPPE   NH348733  34.604   8.390  11.251  0.0667  0.1603 -0.0659
 2240DPPE   PO448734  34.765   8.553  11.567 -0.5374 -0.0947 -0.0336
 2240DPPE   GL148735  35.178   8.739  11.574  0.0829  0.1479  0.0597
 2240DPPE   GL248736  35.462   8.667  11.721 -0.2546  0.0736  0.2731
 2240DPPE   C1A48737  35.351   9.130  11.593  0.0288 -0.1006  0.2114
 2240DPPE   C2A48738  35.612   9.550  11.611 -0.0454  0.0188  0.0435
 2240DPPE   C3A48739  35.679   9.955  11.698 -0.1175 -0.2090 -0.1254
 2240DPPE   C4A48740  35.662  10.291  11.987  0.0115  0.1238  0.0631
 2240DPPE   C1B48741  35.811   8.867  11.569  0.3064 -0.1565 -0.0881
 2240DPPE   C2B48742  35.898   9.169  11.252  0.0451  0.2799 -0.1810
 2240DPPE   C3B48743  35.848   9.664  11.155 -0.2329 -0.2126 -0.4653
 2240DPPE   C4B48744  35.740  10.192  11.190 -0.0841 -0.0036 -0.0115
 2241DPPE   NH348745  19.308  20.694   6.097 -0.3307 -0.3679  0.3548
 2241DPPE   PO448746  19.573  21.074   6.198 -0.0983  0.1663  0.0352
 2241DPPE   GL148747  19.184  21.197   6.029  0.0497 -0.1688  0.1097
 2241DPPE   GL248748  19.248  21.513   5.992  0.2542  0.0024 -0.1603
 2241DPPE   C1A48749  18.850  21.066   5.913  0.3421  0.1847 -0.0780
 2241DPPE   C2A48750  18.433  21.143   5.947  0.0389  0.1833 -0.0643
 2241DPPE   C3A48751  18.089  20.927   5.815  0.2063 -0.1431 -0.0331
 2241DPPE   C4A48752  17.966  20.662   5.459 -0.3423 -0.1802  0.1402
 2241DPPE   C1B48753  18.874  21.576   5.984  0.1897 -0.3248  0.1214
 2241DPPE   C2B48754  18.567  21.856   5.745  0.2931  0.0381  0.0649
 2241DPPE   C3B48755  18.178  21.870   5.446  0.0994  0.0642 -0.0304
 2241DPPE   C4B48756  17.831  22.040   5.258 -0.1708 -0.2106  0.0744
 2242DPPE   NH348757   7.324  31.431   4.156  0.1936 -0.4738  0.0852
 2242DPPE   PO448758   7.074  31.356   3.791  0.2193  0.0488  0.1391
 2242DPPE   GL148759   7.168  30.997   3.929  0.4723 -0.1534 -0.0049
 2242DPPE   GL248760   6.801  30.927   4.089  0.0984 -0.3276  0.3250
 2242DPPE   C1A48761   7.383  30.793   4.275 -0.2224  0.3340  0.0666
 2242DPPE   C2A48762   7.525  30.517   4.568  0.1437 -0.1009  0.0114
 2242DPPE   C3A48763   7.638  30.299   4.876 -0.2602  0.1735 -0.0433
 2242DPPE   C4A48764   7.689  29.910   4.955  0.1178 -0.4640 -0.2354
 2242DPPE   C1B48765   6.648  30.568   3.964 -0.2120 -0.1508  0.0322
 2242DPPE   C2B48766   6.513  30.217   4.074  0.3716 -0.0181  0.0314
 2242DPPE   C3B48767   6.539  29.811   4.321 -0.0415  0.0859 -0.0001
 2242DPPE   C4B48768   6.528  29.359   4.307  0.0370 -0.0003  0.1813
 2243DPPE   NH348769  10.011  23.368   3.410 -0.0205 -0.1593  0.2053
 2243DPPE   PO448770  10.321  23.513   3.629 -0.4392  0.0034  0.2527
 2243DPPE   GL148771  10.351  23.740   3.208 -0.0196 -0.1590  0.1187
 2243DPPE   GL248772  10.061  23.822   3.080 -0.1223 -0.3088 -0.1614
 2243DPPE   C1A48773  10.602  23.654   2.819 -0.1200  0.1869  0.0244
 2243DPPE   C2A48774  10.685  23.614   2.413 -0.0846 -0.2859  0.0320
 2243DPPE   C3A48775  10.849  23.276   2.127 -0.1317 -0.0731  0.1127
 2243DPPE   C4A48776  10.956  23.357   1.807 -0.1355  0.0133  0.3153
 2243DPPE   C1B48777  10.236  24.051   2.791 -0.0663 -0.0779 -0.2078
 2243DPPE   C2B48778  10.314  24.428   2.578  0.2914 -0.1640 -0.0053
 2243DPPE   C3B48779  10.625  24.601   2.332  0.4427 -0.2058 -0.3234
 2243DPPE   C4B48780  10.897  24.865   2.253 -0.0983 -0.1429 -0.1387
 2244DPPE   NH348781  11.507  24.426   4.733  0.0096  0.1918 -0.0885
 2244DPPE   PO448782  11.678  24.655   4.427 -0.1193 -0.0122 -0.0097
 2244DPPE   GL148783  12.076  24.802   4.501  0.0784  0.3302 -0.2708
 2244DPPE   GL248784  12.201  25.036   4.790  0.0555  0.1029 -0.1814
 2244DPPE   C1A48785  12.408  25.002   4.360 -0.3092 -0.0793 -0.2583
 2244DPPE   C2A48786  12.605  25.101   3.899 -0.2652  0.1079  0.0497
 2244DPPE   C3A48787  12.913  25.007   3.688 -0.2252 -0.0361  0.3372
 2244DPPE   C4A48788  13.289  24.728   3.717  0.0494  0.2692 -0.3910
 2244DPPE   C1B48789  12.086  25.325   4.575 -0.4211 -0.1543 -0.3521
 2244DPPE   C2B48790  12.155  25.713   4.317 -0.1141 -0.1454 -0.0812
 2244DPPE   C3B48791  12.523  25.881   4.120  0.1674  0.1075 -0.1702
 2244DPPE   C4B48792  13.000  25.947   4.063 -0.3477  0.1251  0.0591
 2245DPPE   NH348793   3.157   6.073  10.588  0.3646 -0.2056 -0.0373
 2245DPPE   PO448794   2.908   6.167  11.111 -0.2233 -0.0707 -0.0016
 2245DPPE   GL148795   2.827   6.525  10.898 -0.2352 -0.2899  0.1467
 2245DPPE   GL248796   2.524   6.586  10.778  0.2230  0.0222 -0.3725
 2245DPPE   C1A48797   2.761   6.891  11.082  0.2312  0.1978 -0.1619
 2245DPPE   C2A48798   2.824   7.267  11.284 -0.1325 -0.1704  0.3995
 2245DPPE   C3A48799   2.550   7.649  11.443  0.1638 -0.2134  0.1714
 2245DPPE   C4A48800   2.215   7.891  11.601  0.4465  0.0026 -0.1260
 2245DPPE   C1B48801   2.316   6.973  10.754  0.2698 -0.1865  0.6523
 2245DPPE   C2B48802   2.159   7.419  10.551  0.1112  0.0374 -0.4137
 2245DPPE   C3B48803   2.235   7.800  10.350 -0.0257 -0.4831  0.1092
 2245DPPE   C4B48804   2.292   8.082  10.067 -0.1866 -0.0678  0.1092
 2246DPPE   NH348805   6.640  21.682  22.557 -0.2932 -0.1344  0.0004
 2246DPPE   PO448806   6.622  22.113  22.691  0.2046  0.2245  0.0902
 2246DPPE   GL148807   6.562  22.130  22.229  0.1535 -0.1835  0.0368
 2246DPPE   GL248808   6.666  22.368  21.958  0.1377 -0.0077  0.2308
 2246DPPE   C1A48809   6.802  21.930  21.901 -0.2941 -0.0596 -0.0185
 2246DPPE   C2A48810   6.755  21.894  21.358  0.2851 -0.0800  0.2019
 2246DPPE   C3A48811   7.010  21.727  20.937 -0.0019 -0.1317 -0.2090
 2246DPPE   C4A48812   7.186  21.343  20.755 -0.1424  0.1345 -0.1440
 2246DPPE   C1B48813   6.702  22.303  21.594 -0.0580  0.0041  0.1859
 2246DPPE   C2B48814   6.887  22.324  21.144 -0.1658  0.1942  0.1520
 2246DPPE   C3B48815   7.295  22.242  20.810  0.1711  0.0694 -0.5624
 2246DPPE   C4B48816   7.508  21.827  20.764  0.1267 -0.2581 -0.1938
 2247DPPE   NH348817   9.224  14.144  12.333  0.2128  0.0984  0.0654
 2247DPPE   PO448818   9.604  14.207  12.520 -0.1347  0.0440 -0.0279
 2247DPPE   GL148819   9.686  13.848  12.355 -0.0534 -0.0652  0.1518
 2247DPPE   GL248820   9.492  13.765  12.126  0.0716 -0.1226 -0.0678
 2247DPPE   C1A48821   9.785  13.434  12.350  0.0507 -0.0229 -0.1625
 2247DPPE   C2A48822   9.878  13.038  12.233 -0.1321 -0.2418  0.3144
 2247DPPE   C3A48823   9.830  12.583  12.183 -0.2862 -0.1080  0.1955
 2247DPPE   C4A48824   9.668  12.358  12.481  0.2673  0.0315  0.0644
 2247DPPE   C1B48825   9.424  13.419  11.966  0.1120 -0.3337  0.1820
 2247DPPE   C2B48826   9.396  12.965  12.012 -0.1914 -0.0516  0.1443
 2247DPPE   C3B48827   9.130  12.630  12.153  0.4406 -0.0622 -0.1239
 2247DPPE   C4B48828   8.889  12.431  11.842 -0.0805  0.1814 -0.2405
 2248DPPE   NH348829   0.669  31.599  11.066  0.0273  0.0304  0.4777
 2248DPPE   PO448830   1.114  31.673  11.191  0.1921 -0.0214  0.0703
 2248DPPE   GL148831   1.391  31.324  11.261 -0.4345 -0.1986  0.2192
 2248DPPE   GL248832   1.694  31.326  11.547 -0.0219 -0.2443  0.1533
 2248DPPE   C1A48833   1.292  30.871  11.254 -0.0974  0.2228  0.4416
 2248DPPE   C2A48834   1.578  30.468  11.202 -0.2574 -0.1204 -0.3211
 2248DPPE   C3A48835   1.719  30.101  11.031 -0.0394 -0.0579  0.1102
 2248DPPE   C4A48836   1.809  29.673  11.024  0.1329  0.2509  0.0162
 2248DPPE   C1B48837   1.862  30.873  11.506  0.1603 -0.1561 -0.1261
 2248DPPE   C2B48838   2.013  30.675  11.766  0.1061  0.3288 -0.0937
 2248DPPE   C3B48839   2.095  30.342  12.074 -0.0525  0.0255 -0.6219
 2248DPPE   C4B48840   2.037  29.969  12.087 -0.3780  0.1895  0.0730
 2249DPPE   NH348841  11.340  10.622   6.526 -0.0038  0.1678 -0.1450
 2249DPPE   PO448842  11.673  10.677   6.749  0.1702  0.0829  0.2421
 2249DPPE   GL148843  11.446  11.063   6.816  0.0916  0.1394 -0.2872
 2249DPPE   GL248844  11.372  11.166   6.621 -0.0589 -0.0076 -0.3477
 2249DPPE   C1A48845  11.086  11.277   7.014  0.2375  0.1853  0.2687
 2249DPPE   C2A48846  10.620  11.354   6.823  0.0650 -0.3949 -0.3104
 2249DPPE   C3A48847  10.263  11.386   7.078  0.2579  0.1109 -0.0098
 2249DPPE   C4A48848   9.928  11.727   7.189  0.0722  0.1237  0.1868
 2249DPPE   C1B48849  11.335  11.628   6.812  0.1972 -0.1690  0.3618
 2249DPPE   C2B48850  11.414  11.950   6.971 -0.2346  0.2383 -0.3369
 2249DPPE   C3B48851  11.246  12.100   7.488  0.2019 -0.2892 -0.2218
 2249DPPE   C4B48852  11.223  11.909   7.803 -0.1177 -0.3557 -0.1640
 2250DPPE   NH348853  34.981  24.876  17.040 -0.0960  0.2654 -0.3757
 2250DPPE   PO448854  35.209  25.122  17.304  0.0923  0.2608  0.2186
 2250DPPE   GL148855  35.562  24.939  17.124  0.0969  0.0278 -0.2483
 2250DPPE   GL248856  35.872  24.919  17.249 -0.0095  0.0059 -0.4401
 2250DPPE   C1A48857  35.644  25.053  16.650 -0.0410  0.2760 -0.2775
 2250DPPE   C2A48858  35.948  24.731  16.362 -0.0883  0.0832 -0.5088
 2250DPPE   C3A48859  36.357  24.785  16.249  0.0842  0.0118  0.2289
 2250DPPE   C4A48860  36.746  24.890  16.067 -0.3981  0.1708 -0.0235
 2250DPPE   C1B48861  36.077  24.771  16.893  0.1363 -0.1300 -0.1463
 2250DPPE   C2B48862  36.495  24.555  16.835  0.3411 -0.1227 -0.0990
 2250DPPE   C3B48863  36.711  24.158  16.794  0.1067  0.0121 -0.0470
 2250DPPE   C4B48864  36.915  23.725  16.725  0.0149 -0.3137  0.1237
 2251DPPE   NH348865   7.685  23.519  22.225 -0.3526 -0.0040  0.2991
 2251DPPE   PO448866   8.064  23.239  22.499 -0.2800  0.1010 -0.0781
 2251DPPE   GL148867   8.228  23.533  22.107  0.0440 -0.3200  0.1234
 2251DPPE   GL248868   8.028  23.321  21.909 -0.1123 -0.1797  0.2067
 2251DPPE   C1A48869   8.521  23.305  21.778 -0.0102 -0.1452 -0.1033
 2251DPPE   C2A48870   8.754  23.239  21.346 -0.2197  0.1456  0.2384
 2251DPPE   C3A48871   8.801  22.995  20.971  0.0145  0.1415  0.2629
 2251DPPE   C4A48872   9.102  22.698  20.911 -0.0476 -0.2698 -0.1107
 2251DPPE   C1B48873   8.116  23.148  21.556  0.0215 -0.0286 -0.3017
 2251DPPE   C2B48874   8.281  23.031  21.096  0.2265 -0.0802  0.2128
 2251DPPE   C3B48875   8.339  23.043  20.774  0.0929 -0.1272  0.2275
 2251DPPE   C4B48876   8.566  23.324  20.619 -0.1637  0.1884  0.0662
 2252DPPE   NH348877   0.762  19.738  11.093 -0.0770 -0.0682 -0.3039
 2252DPPE   PO448878   0.335  19.772  10.912  0.0056 -0.1791  0.0901
 2252DPPE   GL148879  -0.069  19.858  10.609 -0.0884 -0.1775 -0.0717
 2252DPPE   GL248880  -0.323  19.579  10.712 -0.1828 -0.1912 -0.1849
 2252DPPE   C1A48881  -0.518  19.940  10.421  0.0560 -0.1991 -0.1693
 2252DPPE   C2A48882  -0.946  20.118  10.581  0.2761  0.4716  0.3754
 2252DPPE   C3A48883  -1.402  19.944  10.572 -0.1062 -0.1984 -0.1306
 2252DPPE   C4A48884  -1.821  20.160  10.682  0.1319 -0.0480  0.0959
 2252DPPE   C1B48885  -0.781  19.546  10.618  0.1685 -0.0940  0.2224
 2252DPPE   C2B48886  -1.164  19.438  10.602  0.2171  0.2154 -0.0726
 2252DPPE   C3B48887  -1.646  19.418  10.593  0.0169 -0.1360 -0.2003
 2252DPPE   C4B48888  -1.986  19.341  10.176 -0.0774 -0.0091  0.0789
 2253DPPE   NH348889   5.070  13.478  10.003 -0.0623 -0.0454 -0.0336
 2253DPPE   PO448890   5.323  13.134   9.834 -0.1364 -0.3774  0.0376
 2253DPPE   GL148891   4.937  12.931   9.824 -0.0382  0.1494 -0.0588
 2253DPPE   GL248892   4.851  12.905   9.458  0.3996  0.0704  0.0803
 2253DPPE   C1A48893   4.910  12.504   9.960  0.0649 -0.0830  0.1732
 2253DPPE   C2A48894   4.830  12.113  10.112  0.1518 -0.2360 -0.1728
 2253DPPE   C3A48895   4.558  11.702  10.081 -0.1695 -0.2256  0.1018
 2253DPPE   C4A48896   4.207  11.517  10.351  0.1182  0.2350  0.3205
 2253DPPE   C1B48897   4.847  12.488   9.397 -0.0442  0.1205 -0.2524
 2253DPPE   C2B48898   4.832  12.240   9.008 -0.2903 -0.0586  0.3759
 2253DPPE   C3B48899   5.065  11.809   8.781 -0.2840  0.1981  0.4880
 2253DPPE   C4B48900   5.064  11.406   8.711 -0.0278  0.2274 -0.0166
 2254DPPE   NH348901  11.789  18.190  16.162  0.1555 -0.1293  0.2081
 2254DPPE   PO448902  12.063  18.231  15.781  0.0559 -0.1484  0.3937
 2254DPPE   GL148903  12.421  18.140  15.983  0.1961 -0.1160 -0.1379
 2254DPPE   GL248904  12.314  18.196  16.237 -0.0514  0.0146  0.2062
 2254DPPE   C1A48905  12.857  18.038  16.022 -0.1380 -0.2946  0.0180
 2254DPPE   C2A48906  13.102  17.755  16.042 -0.1542  0.0840 -0.1468
 2254DPPE   C3A48907  13.081  17.312  15.994 -0.0614  0.1444 -0.4534
 2254DPPE   C4A48908  13.185  16.859  15.983 -0.0045 -0.1314 -0.1347
 2254DPPE   C1B48909  12.694  18.033  16.504  0.2847  0.1535 -0.2183
 2254DPPE   C2B48910  12.998  17.946  16.863  0.0938  0.0433 -0.0293
 2254DPPE   C3B48911  13.242  17.586  16.843 -0.2124 -0.0297  0.0817
 2254DPPE   C4B48912  13.454  17.265  16.866  0.0485  0.2538 -0.0665
 2255DPPE   NH348913   0.396  20.560   6.829 -0.0586  0.1457  0.0091
 2255DPPE   PO448914   0.618  20.550   7.174 -0.0029 -0.0594  0.0094
 2255DPPE   GL148915   0.546  20.119   7.219  0.1328 -0.2118  0.1486
 2255DPPE   GL248916   0.231  20.158   7.019  0.4100  0.2749  0.0918
 2255DPPE   C1A48917   0.049  19.991   7.413  0.0491 -0.0636 -0.1071
 2255DPPE   C2A48918  -0.270  19.992   7.568  0.2328 -0.1437 -0.2390
 2255DPPE   C3A48919  -0.673  19.870   7.681  0.2765 -0.1671  0.2079
 2255DPPE   C4A48920  -1.007  19.622   7.595  0.1043 -0.1449  0.1621
 2255DPPE   C1B48921  -0.135  20.125   6.760  0.2996  0.2594 -0.0962
 2255DPPE   C2B48922  -0.365  19.972   6.481 -0.1130  0.1062 -0.1268
 2255DPPE   C3B48923  -0.573  19.705   6.149 -0.0334 -0.1832 -0.1681
 2255DPPE   C4B48924  -0.847  19.409   5.923  0.3517  0.0770 -0.3165
 2256DPPE   NH348925   1.024  20.645   4.687  0.2033 -0.2713  0.4412
 2256DPPE   PO448926   0.773  20.428   5.002  0.3136  0.0930  0.0381
 2256DPPE   GL148927   0.319  20.364   5.099  0.1735 -0.1962 -0.2030
 2256DPPE   GL248928   0.287  20.587   5.354  0.4165  0.4470 -0.1433
 2256DPPE   C1A48929  -0.078  20.419   4.783  0.1928 -0.0862 -0.0146
 2256DPPE   C2A48930  -0.066  20.298   4.337 -0.1002 -0.1807  0.0078
 2256DPPE   C3A48931  -0.319  20.424   3.995  0.2242  0.2429 -0.1949
 2256DPPE   C4A48932  -0.622  20.503   3.793 -0.0793 -0.0030 -0.2704
 2256DPPE   C1B48933   0.029  20.800   5.103 -0.0158  0.1777 -0.1939
 2256DPPE   C2B48934  -0.148  20.956   4.782  0.3882 -0.0118  0.1522
 2256DPPE   C3B48935  -0.526  21.061   4.538 -0.2637  0.2302 -0.2240
 2256DPPE   C4B48936  -0.451  20.926   4.090  0.3928  0.3734 -0.3647
 2257DPPE   NH348937   8.426  20.406  24.540 -0.0522  0.0839  0.0122
 2257DPPE   PO448938   8.849  20.101  24.566  0.1800  0.0026 -0.3006
 2257DPPE   GL148939   8.631  20.018  24.972 -0.2971  0.2359 -0.2316
 2257DPPE   GL248940   8.413  20.065  24.907 -0.0607  0.2009 -0.0668
 2257DPPE   C1A48941   8.677  20.099  25.487 -0.1600  0.0391  0.3559
 2257DPPE   C2A48942   8.556  20.141  25.756  0.0332 -0.0685  0.0860
 2257DPPE   C3A48943   8.532  20.077  26.132  0.0640  0.0113 -0.2073
 2257DPPE   C4A48944   8.517  20.129  26.590  0.4715 -0.0177 -0.3008
 2257DPPE   C1B48945   8.020  19.899  24.946  0.1387 -0.1228  0.0587
 2257DPPE   C2B48946   7.567  19.756  24.774  0.1196 -0.0920  0.2995
 2257DPPE   C3B48947   7.203  19.717  25.035  0.0058  0.1526  0.0439
 2257DPPE   C4B48948   6.859  20.044  25.200 -0.0190  0.1049 -0.0251
 2258DPPE   NH348949   9.571  10.146  12.530 -0.0175  0.0229  0.0981
 2258DPPE   PO448950   9.445  10.162  13.057 -0.2193 -0.1815 -0.2228
 2258DPPE   GL148951   9.259  10.525  13.052 -0.1083 -0.1235 -0.3061
 2258DPPE   GL248952   9.552  10.741  12.910  0.0482 -0.0547 -0.2407
 2258DPPE   C1A48953   9.084  10.822  12.860 -0.0039 -0.4101  0.2101
 2258DPPE   C2A48954   9.052  11.241  12.831 -0.0044  0.2858 -0.0328
 2258DPPE   C3A48955   9.009  11.510  12.390  0.1297  0.0664  0.2377
 2258DPPE   C4A48956   8.727  11.538  11.996  0.2237 -0.0723  0.1508
 2258DPPE   C1B48957   9.522  11.130  12.802 -0.3232  0.1329 -0.3399
 2258DPPE   C2B48958   9.537  11.435  12.548  0.1889  0.2169  0.0267
 2258DPPE   C3B48959   9.390  11.902  12.407 -0.2676  0.2211 -0.1588
 2258DPPE   C4B48960   9.072  12.091  12.192 -0.0144 -0.2246 -0.0409
 2259DPPE   NH348961  38.006   9.297   2.785 -0.0409 -0.1694 -0.0537
 2259DPPE   PO448962  37.881   9.574   2.538 -0.3701 -0.2095  0.2191
 2259DPPE   GL148963  37.904   9.834   2.850  0.0371 -0.0493  0.0212
 2259DPPE   GL248964  37.808   9.681   3.157  0.0669  0.3665 -0.4562
 2259DPPE   C1A48965  37.721  10.180   3.114  0.2037 -0.1356  0.0872
 2259DPPE   C2A48966  37.327  10.356   3.394  0.0557  0.2314 -0.0283
 2259DPPE   C3A48967  37.023  10.598   3.605  0.3692  0.2860  0.0608
 2259DPPE   C4A48968  37.093  11.006   3.854 -0.2119 -0.2965  0.0465
 2259DPPE   C1B48969  37.867   9.943   3.583  0.2042  0.1850  0.0848
 2259DPPE   C2B48970  37.675  10.198   3.892  0.0278 -0.1347 -0.1297
 2259DPPE   C3B48971  37.539  10.555   4.130  0.0844  0.1874  0.1811
 2259DPPE   C4B48972  37.674  10.782   4.558  0.1118  0.0729 -0.2680
 2260DPPE   NH348973   5.220   8.737  14.508 -0.1259  0.1715 -0.0867
 2260DPPE   PO448974   4.827   8.724  14.660  0.2247 -0.0970  0.0778
 2260DPPE   GL148975   4.834   9.139  14.413 -0.1969  0.0815  0.0445
 2260DPPE   GL248976   4.694   9.212  14.744 -0.2134 -0.0517  0.1742
 2260DPPE   C1A48977   4.458   9.306  14.191  0.2120 -0.3197  0.2906
 2260DPPE   C2A48978   4.244   9.450  13.876 -0.1762 -0.1683  0.1002
 2260DPPE   C3A48979   4.084   9.588  13.500  0.5441  0.0019  0.2880
 2260DPPE   C4A48980   4.066   9.805  13.169 -0.3864  0.6138 -0.2951
 2260DPPE   C1B48981   4.578   9.653  14.652 -0.1806  0.1442  0.2977
 2260DPPE   C2B48982   4.423  10.088  14.375 -0.1616 -0.0878 -0.1052
 2260DPPE   C3B48983   4.448  10.311  13.918  0.0685  0.0319  0.3758
 2260DPPE   C4B48984   4.421  10.722  13.658  0.2267 -0.1516 -0.2717
 2261DPPE   NH348985   2.050  18.100  14.260 -0.1943 -0.0925  0.1641
 2261DPPE   PO448986   2.048  18.221  14.625 -0.1311  0.1654 -0.2758
 2261DPPE   GL148987   1.697  18.053  14.673 -0.2620  0.4153 -0.2185
 2261DPPE   GL248988   1.698  17.745  14.635 -0.1288 -0.2091  0.0377
 2261DPPE   C1A48989   1.318  18.059  14.877 -0.2029  0.0491  0.2043
 2261DPPE   C2A48990   0.984  17.914  14.950  0.3254  0.0297 -0.2437
 2261DPPE   C3A48991   0.714  17.456  14.912  0.3991  0.0568 -0.1028
 2261DPPE   C4A48992   0.432  17.171  15.044  0.1224  0.2193  0.0167
 2261DPPE   C1B48993   1.579  17.556  14.980 -0.0733  0.0072  0.0289
 2261DPPE   C2B48994   1.560  17.051  15.185  0.0901  0.2685 -0.2953
 2261DPPE   C3B48995   1.531  16.777  15.517 -0.5167  0.0665  0.1081
 2261DPPE   C4B48996   1.812  16.474  15.575  0.3803 -0.3193 -0.1422
 2262DPPE   NH348997  38.247  23.281   8.552 -0.4712  0.1325  0.0615
 2262DPPE   PO448998  38.277  23.379   8.102  0.0050  0.2271  0.2537
 2262DPPE   GL148999  37.759  23.257   8.060 -0.3888  0.2089 -0.0923
 2262DPPE   GL249000  37.420  23.268   8.293 -0.1782 -0.0682 -0.2971
 2262DPPE   C1A49001  37.571  22.829   8.117 -0.3175 -0.0412 -0.2829
 2262DPPE   C2A49002  37.714  22.451   8.268 -0.2128  0.0701  0.0157
 2262DPPE   C3A49003  37.905  22.007   8.357 -0.1344 -0.0900 -0.1776
 2262DPPE   C4A49004  37.865  21.774   7.956  0.0002  0.0619 -0.0153
 2262DPPE   C1B49005  37.093  23.481   8.400 -0.0364  0.0329 -0.0565
 2262DPPE   C2B49006  36.847  23.739   8.630  0.2908 -0.2308 -0.2532
 2262DPPE   C3B49007  36.874  24.025   8.917  0.0461 -0.0461  0.1879
 2262DPPE   C4B49008  36.912  23.962   9.432  0.0076  0.0896 -0.1318
 2263DPPE   NH349009  11.002  19.674  17.427  0.1334  0.0737  0.2884
 2263DPPE   PO449010  10.567  19.447  17.493 -0.2273 -0.1464 -0.0668
 2263DPPE   GL149011  10.735  19.267  17.836  0.2800 -0.2287  0.3221
 2263DPPE   GL249012  10.899  19.510  17.980  0.0141  0.0969  0.0542
 2263DPPE   C1A49013  10.904  18.838  17.960  0.2912  0.0971 -0.2411
 2263DPPE   C2A49014  11.246  18.635  17.986 -0.2116  0.0536 -0.4227
 2263DPPE   C3A49015  11.263  18.200  17.960  0.1739  0.2128 -0.1670
 2263DPPE   C4A49016  11.452  17.913  18.210  0.0726 -0.1039  0.1822
 2263DPPE   C1B49017  11.172  19.212  18.142 -0.1093  0.3091 -0.0106
 2263DPPE   C2B49018  11.491  19.196  18.501 -0.1303 -0.0065 -0.2222
 2263DPPE   C3B49019  11.547  18.987  18.858  0.0211  0.2780 -0.1254
 2263DPPE   C4B49020  11.551  19.107  19.356 -0.0204  0.0115 -0.0647
 2264DPPE   NH349021   0.666  28.914   3.510  0.1100 -0.2022 -0.0513
 2264DPPE   PO449022   0.530  29.167   3.866  0.0164  0.2117  0.1372
 2264DPPE   GL149023   0.649  28.792   3.977  0.2337 -0.0967  0.0325
 2264DPPE   GL249024   0.412  28.584   3.881  0.0363  0.0533 -0.1332
 2264DPPE   C1A49025   0.869  28.396   4.054  0.1265  0.1304 -0.0349
 2264DPPE   C2A49026   1.116  27.972   3.845 -0.0729 -0.2283  0.1929
 2264DPPE   C3A49027   1.531  27.920   3.838  0.3530  0.0363 -0.1298
 2264DPPE   C4A49028   1.815  27.518   3.637  0.2045 -0.0294 -0.2321
 2264DPPE   C1B49029   0.593  28.200   3.708 -0.3187  0.0094 -0.0387
 2264DPPE   C2B49030   0.598  27.787   3.534 -0.0377 -0.2085  0.1070
 2264DPPE   C3B49031   0.511  27.291   3.338 -0.1651 -0.5416 -0.1011
 2264DPPE   C4B49032   0.249  26.898   3.373 -0.0912 -0.1182  0.0534
 2265DPPE   NH349033  31.767  26.038  12.701 -0.1324  0.3797  0.1457
 2265DPPE   PO449034  31.848  25.601  12.556  0.1551 -0.1377 -0.2708
 2265DPPE   GL149035  31.789  25.175  12.494  0.1035  0.2667  0.1218
 2265DPPE   GL249036  31.632  25.199  12.133  0.0525  0.1941 -0.1178
 2265DPPE   C1A49037  31.434  24.844  12.500  0.2633 -0.2100 -0.0382
 2265DPPE   C2A49038  31.410  24.450  12.699  0.0344 -0.1003  0.1508
 2265DPPE   C3A49039  31.419  24.319  13.077 -0.0581 -0.0604  0.0559
 2265DPPE   C4A49040  31.300  24.331  13.472 -0.3919  0.2404  0.0336
 2265DPPE   C1B49041  31.711  24.834  12.013  0.3424  0.3314 -0.1188
 2265DPPE   C2B49042  31.825  24.575  11.712 -0.3295  0.0326  0.1104
 2265DPPE   C3B49043  32.153  24.521  11.450 -0.1261 -0.0133 -0.0541
 2265DPPE   C4B49044  32.362  24.501  11.097  0.1275  0.1344  0.2226
 2266DPPE   NH349045   9.160  27.253   6.815  0.2636  0.1879  0.0179
 2266DPPE   PO449046   9.531  27.372   6.776 -0.0974 -0.1793  0.1872
 2266DPPE   GL149047   9.720  27.847   6.601  0.0376 -0.3978 -0.0653
 2266DPPE   GL249048   9.426  28.173   6.703 -0.1335  0.3552  0.3914
 2266DPPE   C1A49049  10.162  28.006   6.564 -0.1300 -0.1135 -0.1325
 2266DPPE   C2A49050  10.426  28.309   6.320 -0.0482  0.3673 -0.3472
 2266DPPE   C3A49051  10.558  28.754   6.183 -0.0527  0.1067 -0.1158
 2266DPPE   C4A49052  10.797  28.906   6.486 -0.0443 -0.0090 -0.0010
 2266DPPE   C1B49053   9.785  28.360   6.390  0.2511 -0.0327 -0.0866
 2266DPPE   C2B49054  10.036  28.633   6.237 -0.1767  0.0270 -0.0799
 2266DPPE   C3B49055  10.167  28.761   5.856  0.3426 -0.0625  0.0393
 2266DPPE   C4B49056  10.517  28.897   5.732  0.6093 -0.2150 -0.0201
 2267DPPE   NH349057   9.186  24.420  18.242 -0.2134  0.0328  0.1055
 2267DPPE   PO449058   8.831  24.716  18.116 -0.0794 -0.1376 -0.0474
 2267DPPE   GL149059   9.028  24.851  18.464  0.1996 -0.0478 -0.0495
 2267DPPE   GL249060   9.319  24.701  18.661 -0.0342  0.0262 -0.2776
 2267DPPE   C1A49061   9.066  25.098  18.767  0.0541  0.1541  0.1316
 2267DPPE   C2A49062   9.220  25.133  19.205 -0.0001 -0.1102 -0.2156
 2267DPPE   C3A49063   9.583  25.092  19.534 -0.0408 -0.2040  0.1634
 2267DPPE   C4A49064   9.899  24.816  19.820  0.3366  0.2994  0.0875
 2267DPPE   C1B49065   9.436  24.667  19.012  0.3255 -0.1101 -0.1646
 2267DPPE   C2B49066   9.360  24.644  19.403  0.2418 -0.2067  0.3202
 2267DPPE   C3B49067   9.115  24.428  19.663  0.1464  0.2632  0.2482
 2267DPPE   C4B49068   8.832  24.122  19.553  0.0654 -0.1604 -0.1037
 2268DPPE   NH349069   3.585  29.889  18.534 -0.0850 -0.0442 -0.1290
 2268DPPE   PO449070   3.470  30.045  18.138  0.0588 -0.1140 -0.1509
 2268DPPE   GL149071   3.272  29.898  17.791  0.2933 -0.2657 -0.1980
 2268DPPE   GL249072   3.574  29.764  17.624 -0.1229 -0.4292 -0.0247
 2268DPPE   C1A49073   3.167  29.628  17.373 -0.3207  0.1767  0.0584
 2268DPPE   C2A49074   2.781  29.488  17.232  0.3787 -0.0335  0.2309
 2268DPPE   C3A49075   2.556  29.061  17.203 -0.3628  0.1045  0.0049
 2268DPPE   C4A49076   2.593  28.802  17.031  0.0927  0.0987 -0.0381
 2268DPPE   C1B49077   3.676  29.422  17.411 -0.1583 -0.5965  0.3419
 2268DPPE   C2B49078   3.944  29.277  17.099  0.3664  0.0982  0.2407
 2268DPPE   C3B49079   3.998  29.377  16.771 -0.0452 -0.2824  0.1551
 2268DPPE   C4B49080   3.753  29.564  16.473 -0.1380 -0.0499  0.1250
 2269DPPE   NH349081   2.169   6.459  12.976 -0.2323 -0.2273  0.0223
 2269DPPE   PO449082   2.357   6.426  13.397 -0.0806 -0.0867  0.2770
 2269DPPE   GL149083   2.054   6.735  13.399 -0.0677 -0.0951  0.1307
 2269DPPE   GL249084   2.198   6.935  13.537  0.3709 -0.0055 -0.1487
 2269DPPE   C1A49085   1.741   7.058  13.549  0.1184 -0.1199  0.1354
 2269DPPE   C2A49086   1.549   7.331  13.343 -0.0845 -0.0066  0.1187
 2269DPPE   C3A49087   1.276   7.727  13.357  0.2119 -0.0094 -0.0796
 2269DPPE   C4A49088   0.985   8.151  13.405 -0.1860 -0.1203 -0.2077
 2269DPPE   C1B49089   2.234   7.116  13.157 -0.1322 -0.0620  0.0362
 2269DPPE   C2B49090   1.869   7.070  12.871 -0.3911 -0.2204  0.0091
 2269DPPE   C3B49091   1.892   7.006  12.388 -0.1893 -0.2179  0.0416
 2269DPPE   C4B49092   2.295   6.955  12.067  0.1079 -0.1124  0.3691
 2270DPPE   NH349093   0.161  22.116   6.486 -0.0287 -0.1562 -0.1345
 2270DPPE   PO449094   0.199  22.234   6.896 -0.1891  0.1915  0.3126
 2270DPPE   GL149095  -0.176  22.114   7.023 -0.3563 -0.2042  0.1642
 2270DPPE   GL249096  -0.319  22.141   6.704  0.0356 -0.2398  0.2309
 2270DPPE   C1A49097  -0.707  22.069   7.188 -0.0711 -0.0594  0.2156
 2270DPPE   C2A49098  -0.836  21.918   7.601  0.1437 -0.1593  0.0248
 2270DPPE   C3A49099  -1.033  21.907   7.907 -0.0151  0.0172 -0.1372
 2270DPPE   C4A49100  -0.995  22.079   8.289  0.0103  0.0360  0.1212
 2270DPPE   C1B49101  -0.786  22.113   6.660 -0.0356 -0.1647  0.0486
 2270DPPE   C2B49102  -1.182  22.186   6.646  0.1871 -0.0669  0.0153
 2270DPPE   C3B49103  -1.665  22.139   6.460  0.0118  0.0336  0.0870
 2270DPPE   C4B49104  -1.896  22.483   6.234 -0.0175 -0.1120  0.1876
 2271DPPE   NH349105  10.297  27.009  15.490 -0.1869  0.0272  0.1025
 2271DPPE   PO449106   9.855  27.017  15.506 -0.1373  0.1227 -0.2466
 2271DPPE   GL149107   9.843  27.403  15.679  0.0938 -0.2945 -0.3730
 2271DPPE   GL249108  10.140  27.493  15.619  0.0901 -0.0350 -0.1306
 2271DPPE   C1A49109   9.736  27.705  15.937 -0.2545  0.0360  0.1600
 2271DPPE   C2A49110   9.859  27.894  16.230  0.2479 -0.0299  0.0875
 2271DPPE   C3A49111   9.845  28.152  16.481 -0.0788 -0.1817  0.1324
 2271DPPE   C4A49112   9.781  28.381  16.906 -0.1301  0.1118  0.0192
 2271DPPE   C1B49113  10.414  27.718  15.956  0.1459  0.2147 -0.1110
 2271DPPE   C2B49114  10.452  27.837  16.393 -0.0884  0.0438 -0.2212
 2271DPPE   C3B49115  10.564  27.679  16.767  0.1585  0.1040 -0.0740
 2271DPPE   C4B49116  10.768  27.778  17.156  0.0047  0.0464 -0.1593
 2272DPPE   NH349117   1.852  17.347  11.223  0.3306 -0.1985  0.0978
 2272DPPE   PO449118   1.541  17.445  10.968  0.1441 -0.5111  0.0226
 2272DPPE   GL149119   1.216  17.153  10.776 -0.1918  0.2841  0.1546
 2272DPPE   GL249120   0.842  17.135  10.889 -0.0822 -0.0524 -0.0532
 2272DPPE   C1A49121   0.980  16.856  10.504  0.0822 -0.1484  0.1176
 2272DPPE   C2A49122   0.498  16.755  10.315 -0.0674 -0.0532 -0.2341
 2272DPPE   C3A49123   0.256  16.483  10.161  0.2390  0.1434 -0.1466
 2272DPPE   C4A49124   0.033  16.185  10.067  0.1186 -0.2334  0.2715
 2272DPPE   C1B49125   0.576  16.756  10.779  0.0069  0.3126  0.2814
 2272DPPE   C2B49126   0.404  16.436  10.810 -0.0938  0.2904  0.0300
 2272DPPE   C3B49127   0.322  16.145  11.103 -0.0963  0.1040 -0.0148
 2272DPPE   C4B49128   0.198  15.671  11.110 -0.1681 -0.1723 -0.2665
 2273DPPE   NH349129  15.661  26.594  17.081 -0.0384 -0.1278 -0.2091
 2273DPPE   PO449130  15.624  27.052  16.958 -0.0450  0.4520  0.2532
 2273DPPE   GL149131  15.442  26.846  16.633  0.1876  0.2033  0.0171
 2273DPPE   GL249132  15.174  26.661  16.797  0.0542 -0.2720 -0.0382
 2273DPPE   C1A49133  15.272  26.694  16.200  0.0574 -0.0631 -0.2633
 2273DPPE   C2A49134  14.816  26.565  16.029 -0.1884 -0.0387 -0.4483
 2273DPPE   C3A49135  14.669  26.354  15.777 -0.1087  0.3584  0.2037
 2273DPPE   C4A49136  14.320  26.228  15.997  0.0175 -0.1914  0.5487
 2273DPPE   C1B49137  14.806  26.669  16.552 -0.1134 -0.1692 -0.0468
 2273DPPE   C2B49138  14.452  26.705  16.370 -0.0134  0.2901  0.3589
 2273DPPE   C3B49139  14.070  26.710  16.543 -0.0578 -0.1307 -0.3818
 2273DPPE   C4B49140  13.632  26.612  16.610 -0.3212  0.1552  0.0706
 2274DPPE   NH349141  36.145  29.674   8.835 -0.2078  0.1247  0.1435
 2274DPPE   PO449142  36.566  29.509   8.605 -0.0891  0.1075  0.1325
 2274DPPE   GL149143  36.548  29.144   8.750 -0.1801 -0.4014 -0.1313
 2274DPPE   GL249144  36.765  29.074   9.075  0.3511  0.6125  0.2277
 2274DPPE   C1A49145  36.533  28.641   8.804  0.1952 -0.1866  0.1256
 2274DPPE   C2A49146  36.621  28.297   8.988  0.0454 -0.1008  0.4901
 2274DPPE   C3A49147  36.902  27.964   8.944  0.0121  0.0574  0.0568
 2274DPPE   C4A49148  36.921  27.642   8.650  0.1664 -0.1016 -0.2101
 2274DPPE   C1B49149  36.952  28.654   9.070  0.3802 -0.2059  0.1369
 2274DPPE   C2B49150  37.207  28.286   9.184  0.2240 -0.2941  0.1361
 2274DPPE   C3B49151  37.182  27.925   9.448 -0.0381  0.0998  0.2489
 2274DPPE   C4B49152  37.167  27.431   9.249 -0.2596  0.1455 -0.1908
 2275DPPE   NH349153   6.408  13.028  10.678 -0.1498 -0.0479  0.1429
 2275DPPE   PO449154   6.253  12.901  10.194 -0.1858 -0.0590  0.2457
 2275DPPE   GL149155   6.198  12.582  10.540 -0.2986  0.0632  0.2810
 2275DPPE   GL249156   6.429  12.367  10.399 -0.2327 -0.0937  0.2519
 2275DPPE   C1A49157   6.040  12.142  10.714 -0.2319  0.1924 -0.1942
 2275DPPE   C2A49158   6.118  11.689  10.833 -0.2543 -0.0297  0.0034
 2275DPPE   C3A49159   6.270  11.231  11.056  0.2796 -0.4396  0.0018
 2275DPPE   C4A49160   6.493  11.095  11.363 -0.0694  0.1466 -0.4126
 2275DPPE   C1B49161   6.248  12.177  10.059  0.0530  0.2336 -0.0870
 2275DPPE   C2B49162   6.047  11.867   9.819 -0.3501 -0.0224  0.1541
 2275DPPE   C3B49163   6.091  11.438   9.685 -0.0946 -0.1820  0.1562
 2275DPPE   C4B49164   6.214  11.023   9.726 -0.2379  0.1527  0.0294
 2276DPPE   NH349165   8.194  17.702   2.620 -0.0542 -0.0792 -0.1378
 2276DPPE   PO449166   8.660  17.622   2.562 -0.0005 -0.2829 -0.4222
 2276DPPE   GL149167   8.842  17.557   2.312 -0.0851  0.3644 -0.1115
 2276DPPE   GL249168   9.173  17.743   2.458 -0.2172  0.2449 -0.4077
 2276DPPE   C1A49169   9.091  17.325   2.033 -0.0007 -0.1131 -0.1417
 2276DPPE   C2A49170   9.362  17.141   1.747  0.2359  0.0875  0.0214
 2276DPPE   C3A49171   9.657  17.180   1.384  0.2628 -0.3908 -0.0385
 2276DPPE   C4A49172   9.648  17.017   0.992  0.2053  0.0980 -0.1484
 2276DPPE   C1B49173   9.332  17.714   2.071  0.1185  0.1023 -0.1725
 2276DPPE   C2B49174   9.425  17.695   1.631 -0.2387  0.3276 -0.1371
 2276DPPE   C3B49175   9.428  17.701   1.273  0.0754 -0.1669  0.0535
 2276DPPE   C4B49176   9.472  17.897   0.859 -0.0050 -0.1958 -0.0742
 2277DPPE   NH349177   0.193  20.634  14.777 -0.0235 -0.2570 -0.2572
 2277DPPE   PO449178   0.084  20.861  15.220  0.1233  0.2388  0.2601
 2277DPPE   GL149179  -0.339  20.785  15.131  0.0366 -0.1864 -0.0640
 2277DPPE   GL249180  -0.542  20.728  15.410 -0.1769 -0.2417 -0.2026
 2277DPPE   C1A49181  -0.665  20.420  14.916 -0.0444 -0.0496 -0.0896
 2277DPPE   C2A49182  -0.817  19.972  14.848  0.0906  0.0034  0.2464
 2277DPPE   C3A49183  -1.299  20.015  14.629  0.3039 -0.0316 -0.3292
 2277DPPE   C4A49184  -1.779  20.001  14.691 -0.1875  0.3437 -0.1452
 2277DPPE   C1B49185  -0.883  20.850  15.633 -0.1078  0.1060  0.2336
 2277DPPE   C2B49186  -1.277  20.855  15.894  0.2707  0.1985  0.0343
 2277DPPE   C3B49187  -1.627  20.994  16.294  0.0609 -0.2560 -0.0047
 2277DPPE   C4B49188  -1.735  21.061  16.611  0.2893  0.3229 -0.0554
 2278DPPE   NH349189   0.187  21.106   9.578 -0.0705 -0.3521 -0.1112
 2278DPPE   PO449190   0.152  20.627   9.687 -0.4805 -0.1978 -0.0076
 2278DPPE   GL149191  -0.242  20.402   9.715  0.2413 -0.0690 -0.1484
 2278DPPE   GL249192  -0.270  20.067   9.947 -0.1324 -0.4372 -0.0228
 2278DPPE   C1A49193  -0.674  20.288   9.831 -0.1407  0.0045  0.1898
 2278DPPE   C2A49194  -1.113  20.210   9.910  0.3069  0.1398 -0.0173
 2278DPPE   C3A49195  -1.517  20.183   9.936  0.2627  0.0686 -0.3701
 2278DPPE   C4A49196  -1.775  20.389  10.247 -0.2129  0.1485  0.3491
 2278DPPE   C1B49197  -0.685  19.794  10.006  0.0711  0.0788 -0.2234
 2278DPPE   C2B49198  -1.148  19.730  10.005 -0.1374 -0.0403  0.1730
 2278DPPE   C3B49199  -1.562  19.678  10.151 -0.1738  0.0979  0.2094
 2278DPPE   C4B49200  -1.923  19.859  10.260 -0.0555 -0.0347  0.0437
 2279DPPE   NH349201   5.299  14.367  11.958  0.2030  0.0932 -0.2250
 2279DPPE   PO449202   4.886  14.097  11.799 -0.1180  0.1245 -0.0244
 2279DPPE   GL149203   4.639  13.836  11.696  0.1516  0.0182 -0.0130
 2279DPPE   GL249204   4.521  14.010  11.473 -0.2586 -0.0690 -0.2068
 2279DPPE   C1A49205   4.318  13.570  11.627  0.1160  0.0203 -0.1607
 2279DPPE   C2A49206   3.895  13.581  11.873  0.1312 -0.0077  0.3178
 2279DPPE   C3A49207   3.539  13.692  12.031  0.1444  0.1281 -0.2536
 2279DPPE   C4A49208   3.114  13.568  12.026 -0.1289  0.2756 -0.4244
 2279DPPE   C1B49209   4.342  13.837  11.135 -0.3765  0.1181 -0.3597
 2279DPPE   C2B49210   4.084  13.715  10.895 -0.0476  0.2469 -0.1528
 2279DPPE   C3B49211   3.733  13.581  10.610 -0.2529 -0.3432  0.1159
 2279DPPE   C4B49212   3.589  13.644  10.190  0.0497 -0.2792  0.0689
 2280DPPE   NH349213  14.789  28.391  15.679  0.0642 -0.2738  0.2911
 2280DPPE   PO449214  15.175  28.057  15.640  0.2707  0.0625 -0.1604
 2280DPPE   GL149215  14.928  27.878  15.365  0.2490 -0.5127 -0.1460
 2280DPPE   GL249216  14.642  28.099  15.300 -0.2119  0.3078 -0.0426
 2280DPPE   C1A49217  14.764  27.564  15.143 -0.2035  0.1821 -0.0440
 2280DPPE   C2A49218  14.430  27.181  14.910 -0.4441  0.0070 -0.1108
 2280DPPE   C3A49219  14.079  26.913  14.658 -0.2220  0.4078  0.1591
 2280DPPE   C4A49220  14.085  26.634  14.277  0.2255  0.2142 -0.1572
 2280DPPE   C1B49221  14.221  27.799  15.186  0.1536 -0.0142 -0.2358
 2280DPPE   C2B49222  14.013  27.423  15.487  0.3681 -0.0897  0.3551
 2280DPPE   C3B49223  13.560  27.434  15.594 -0.2930 -0.0771  0.0077
 2280DPPE   C4B49224  13.152  27.476  15.878  0.0063 -0.1221 -0.1382
 2281DPPE   NH349225  36.421  25.882  18.235  0.0300  0.0306 -0.0351
 2281DPPE   PO449226  36.769  26.223  18.289 -0.0697  0.0367 -0.2981
 2281DPPE   GL149227  37.092  25.949  18.013  0.3187 -0.1260 -0.0410
 2281DPPE   GL249228  36.966  25.741  17.797 -0.2783 -0.0243 -0.0231
 2281DPPE   C1A49229  37.542  25.784  17.904  0.2171  0.0026  0.2657
 2281DPPE   C2A49230  37.961  25.909  17.786  0.0295  0.1242 -0.0814
 2281DPPE   C3A49231  38.452  26.151  17.639 -0.0408 -0.1974  0.1324
 2281DPPE   C4A49232  38.680  26.398  17.501  0.1140 -0.0748 -0.1225
 2281DPPE   C1B49233  37.254  25.525  17.592  0.0846  0.2369 -0.1284
 2281DPPE   C2B49234  37.654  25.168  17.640 -0.2933  0.0546 -0.2335
 2281DPPE   C3B49235  37.957  24.774  17.565  0.0391 -0.0306 -0.1783
 2281DPPE   C4B49236  38.338  24.527  17.324  0.0242  0.0047 -0.2173
 2282DPPE   NH349237  29.013  22.263  10.097  0.1004  0.0462 -0.0458
 2282DPPE   PO449238  28.991  22.589   9.776  0.1199 -0.0364  0.1433
 2282DPPE   GL149239  29.455  22.522   9.772 -0.0328 -0.2511 -0.1498
 2282DPPE   GL249240  29.622  22.517   9.530  0.1448 -0.1107 -0.0115
 2282DPPE   C1A49241  29.780  22.301   9.994 -0.1992 -0.0138 -0.1417
 2282DPPE   C2A49242  30.208  22.175   9.894 -0.4081 -0.0120 -0.0329
 2282DPPE   C3A49243  30.549  21.971   9.574  0.1756  0.1306  0.0314
 2282DPPE   C4A49244  30.829  21.691   9.520 -0.2392  0.1504  0.0431
 2282DPPE   C1B49245  29.929  22.170   9.506 -0.3716  0.3030  0.2573
 2282DPPE   C2B49246  30.075  21.950   9.197 -0.0976  0.1945 -0.2584
 2282DPPE   C3B49247  30.260  21.771   8.856  0.0847 -0.2433  0.1161
 2282DPPE   C4B49248  30.558  21.802   8.507 -0.0293  0.1002  0.0674
 2283DPPE   NH349249   7.805  29.394   9.917  0.1750  0.0502  0.2287
 2283DPPE   PO449250   7.680  29.287  10.429  0.1625 -0.1830 -0.0152
 2283DPPE   GL149251   7.782  29.736  10.386  0.2643  0.0828 -0.0594
 2283DPPE   GL249252   8.099  29.784  10.441 -0.1165 -0.2670 -0.1891
 2283DPPE   C1A49253   7.732  30.147  10.535  0.2353 -0.2428  0.1069
 2283DPPE   C2A49254   7.788  30.553  10.746  0.0244  0.1870 -0.1900
 2283DPPE   C3A49255   7.897  30.592  11.159  0.0599  0.0133 -0.0280
 2283DPPE   C4A49256   7.840  30.697  11.528  0.1641 -0.2368  0.1975
 2283DPPE   C1B49257   8.211  30.243  10.723 -0.0525  0.1043  0.0933
 2283DPPE   C2B49258   8.254  30.719  10.862 -0.1763  0.4379  0.2791
 2283DPPE   C3B49259   8.013  31.083  10.788 -0.0849  0.4261  0.0970
 2283DPPE   C4B49260   7.485  31.019  10.905 -0.3608 -0.2189  0.3936
 2284DPPE   NH349261   2.384  17.531  15.737  0.1283  0.1835 -0.0218
 2284DPPE   PO449262   2.276  17.416  16.095 -0.2451 -0.0616 -0.1452
 2284DPPE   GL149263   1.916  17.254  16.265  0.1250  0.2699 -0.0920
 2284DPPE   GL249264   1.946  17.308  16.626  0.0125 -0.6764 -0.0017
 2284DPPE   C1A49265   1.479  17.204  16.494 -0.1593 -0.0475 -0.0256
 2284DPPE   C2A49266   1.088  17.236  16.433  0.0140  0.2646 -0.0074
 2284DPPE   C3A49267   0.736  17.418  16.444 -0.2589  0.0385 -0.0072
 2284DPPE   C4A49268   0.463  17.677  16.265  0.1258  0.0695  0.1936
 2284DPPE   C1B49269   1.708  17.228  17.017  0.1697 -0.0593  0.2390
 2284DPPE   C2B49270   1.462  17.199  17.360 -0.0300  0.0144 -0.0047
 2284DPPE   C3B49271   1.399  17.018  17.727  0.0121 -0.1765 -0.2474
 2284DPPE   C4B49272   1.104  16.901  18.043 -0.1459  0.2007 -0.3492
 2285DPPE   NH349273   4.156  14.127   8.070 -0.1245  0.2422 -0.2406
 2285DPPE   PO449274   4.396  13.988   8.213  0.0999  0.0869 -0.0189
 2285DPPE   GL149275   4.191  13.581   8.126  0.3440 -0.3559 -0.1644
 2285DPPE   GL249276   4.086  13.670   7.815 -0.2757  0.2061 -0.0054
 2285DPPE   C1A49277   3.754  13.478   8.135 -0.0967  0.0440 -0.0549
 2285DPPE   C2A49278   3.411  13.467   8.367 -0.2311 -0.0724  0.1478
 2285DPPE   C3A49279   3.196  13.746   8.688 -0.0074  0.0789  0.2357
 2285DPPE   C4A49280   2.789  13.643   8.897  0.1692  0.2280 -0.0646
 2285DPPE   C1B49281   3.759  13.489   7.588 -0.3663 -0.0307 -0.3461
 2285DPPE   C2B49282   3.411  13.663   7.790 -0.4459 -0.0601  0.1570
 2285DPPE   C3B49283   3.077  13.869   8.038  0.5137 -0.0670  0.3087
 2285DPPE   C4B49284   2.961  14.067   8.416 -0.0695  0.1411  0.1733
 2286DPPE   NH349285  15.112  29.659   8.764 -0.2912  0.2998 -0.0201
 2286DPPE   PO449286  14.778  29.890   8.867  0.0930 -0.1587 -0.3814
 2286DPPE   GL149287  14.428  29.638   8.813 -0.1879  0.3066 -0.0588
 2286DPPE   GL249288  14.300  29.726   9.056  0.0911 -0.2069 -0.0623
 2286DPPE   C1A49289  14.168  29.225   8.844  0.1045  0.0257  0.0447
 2286DPPE   C2A49290  14.027  28.788   8.912  0.0699 -0.1805 -0.0694
 2286DPPE   C3A49291  14.091  28.423   9.130 -0.0173  0.0118  0.2262
 2286DPPE   C4A49292  13.905  28.063   9.353 -0.2315  0.1754  0.3896
 2286DPPE   C1B49293  14.118  29.493   9.528 -0.2221 -0.0263 -0.0449
 2286DPPE   C2B49294  13.959  29.326   9.856  0.0746  0.0519  0.1624
 2286DPPE   C3B49295  13.819  28.924  10.010 -0.1369 -0.1373 -0.3108
 2286DPPE   C4B49296  13.676  28.577  10.089  0.1138  0.0567 -0.1867
 2287DPPE   NH349297   2.685  16.992   7.629  0.1411  0.5218  0.0032
 2287DPPE   PO449298   2.966  16.669   7.883  0.3808 -0.3103  0.1887
 2287DPPE   GL149299   2.588  16.419   7.646  0.3876 -0.1055  0.0461
 2287DPPE   GL249300   2.573  16.073   7.468 -0.0336 -0.0917 -0.2844
 2287DPPE   C1A49301   2.116  16.221   7.556 -0.0025  0.0101  0.2430
 2287DPPE   C2A49302   1.791  16.279   7.411  0.2568  0.2520  0.0011
 2287DPPE   C3A49303   1.483  16.460   7.199  0.2920  0.3409  0.1852
 2287DPPE   C4A49304   0.936  16.588   7.225  0.2033  0.0282  0.2642
 2287DPPE   C1B49305   2.533  15.791   7.166  0.1390 -0.1183  0.0510
 2287DPPE   C2B49306   2.329  15.531   6.921  0.1290  0.2051  0.4622
 2287DPPE   C3B49307   2.135  15.303   6.610  0.2333 -0.2691  0.2006
 2287DPPE   C4B49308   2.038  15.129   6.138 -0.1798  0.0066 -0.1803
 2288DPPE   NH349309  36.259  18.957  26.039 -0.1818  0.1784 -0.1750
 2288DPPE   PO449310  36.275  19.420  25.915  0.1909 -0.2369 -0.0614
 2288DPPE   GL149311  36.205  19.350  26.398 -0.0271 -0.2212 -0.0383
 2288DPPE   GL249312  36.057  19.140  26.550  0.0266 -0.1153  0.0943
 2288DPPE   C1A49313  36.187  19.412  26.908  0.2350  0.1586 -0.1450
 2288DPPE   C2A49314  36.206  19.154  27.274  0.1521  0.3096  0.1173
 2288DPPE   C3A49315  36.388  18.952  27.677 -0.0966 -0.0106 -0.1500
 2288DPPE   C4A49316  36.202  18.920  28.110 -0.0948  0.0756  0.1398
 2288DPPE   C1B49317  35.979  18.806  26.917  0.1009  0.6156  0.1544
 2288DPPE   C2B49318  36.074  18.314  26.922 -0.1568 -0.1031 -0.0670
 2288DPPE   C3B49319  36.252  18.059  27.239  0.5614 -0.1049 -0.1995
 2288DPPE   C4B49320  36.335  17.701  27.499 -0.0455 -0.2344 -0.1067
 2289DPPE   NH349321   5.496  17.666   2.425  0.0034  0.2054 -0.1380
 2289DPPE   PO449322   5.681  17.266   2.432  0.0427  0.4085 -0.1518
 2289DPPE   GL149323   5.484  16.989   2.230 -0.1172 -0.0642  0.0694
 2289DPPE   GL249324   5.454  16.738   2.353  0.0570 -0.0186 -0.2734
 2289DPPE   C1A49325   5.369  16.900   1.811  0.3713 -0.1271  0.2630
 2289DPPE   C2A49326   5.424  16.571   1.528  0.1465 -0.1939  0.0433
 2289DPPE   C3A49327   5.335  16.328   1.256 -0.0172  0.0302 -0.0451
 2289DPPE   C4A49328   5.471  16.127   0.758  0.0276 -0.0601  0.0329
 2289DPPE   C1B49329   5.441  16.309   2.147 -0.0668 -0.3125  0.0470
 2289DPPE   C2B49330   5.427  16.081   1.706 -0.1729 -0.0961  0.0828
 2289DPPE   C3B49331   5.094  15.879   1.344  0.2826  0.0620 -0.2961
 2289DPPE   C4B49332   5.157  15.730   0.936  0.1656  0.0706  0.0611
 2290DPPE   NH349333   4.229   8.994  16.046 -0.1301 -0.2751 -0.2047
 2290DPPE   PO449334   4.054   8.752  15.651  0.0381  0.1122  0.3419
 2290DPPE   GL149335   3.822   9.101  15.394  0.1490 -0.1610  0.0774
 2290DPPE   GL249336   4.019   9.288  15.169  0.4093  0.0856 -0.2057
 2290DPPE   C1A49337   3.492   9.269  15.121  0.2205 -0.2040 -0.1607
 2290DPPE   C2A49338   3.192   9.532  14.871 -0.1166  0.1494  0.2243
 2290DPPE   C3A49339   3.182   9.828  14.580  0.0915 -0.1652 -0.1114
 2290DPPE   C4A49340   3.242  10.082  14.238  0.0087  0.0801  0.3421
 2290DPPE   C1B49341   4.186   9.332  14.779  0.1033 -0.1845 -0.4398
 2290DPPE   C2B49342   4.122   9.621  14.376  0.0784  0.1313  0.0077
 2290DPPE   C3B49343   3.813   9.866  14.395  0.2977  0.2066 -0.1125
 2290DPPE   C4B49344   3.593  10.193  14.572 -0.2356 -0.0980  0.1698
 2291DPPE   NH349345   4.211   7.883  13.998  0.0570  0.0937  0.0596
 2291DPPE   PO449346   4.230   7.665  13.560 -0.0066  0.2286 -0.2466
 2291DPPE   GL149347   4.046   7.810  13.184  0.3323 -0.2480  0.0527
 2291DPPE   GL249348   4.344   7.687  12.999  0.3553 -0.0780 -0.2241
 2291DPPE   C1A49349   3.747   8.079  12.825  0.1321 -0.1086 -0.0895
 2291DPPE   C2A49350   3.324   8.306  12.668 -0.0921 -0.0173  0.1679
 2291DPPE   C3A49351   3.047   8.335  12.344  0.1288 -0.0519 -0.3318
 2291DPPE   C4A49352   2.773   8.486  12.138 -0.2989  0.0021  0.0749
 2291DPPE   C1B49353   4.225   8.069  12.643 -0.0226 -0.0158  0.1662
 2291DPPE   C2B49354   4.440   8.406  12.425  0.3226  0.0614  0.2608
 2291DPPE   C3B49355   4.300   8.878  12.320 -0.1405 -0.2968  0.3492
 2291DPPE   C4B49356   4.144   9.177  11.988 -0.2234  0.3349  0.0902
 2292DPPE   NH349357  16.240  18.733   2.196  0.0924 -0.1768  0.3166
 2292DPPE   PO449358  16.608  18.410   2.205  0.3568  0.2816 -0.2164
 2292DPPE   GL149359  16.291  18.460   2.612 -0.0345  0.0359 -0.0322
 2292DPPE   GL249360  16.082  18.136   2.701 -0.1550 -0.1570 -0.2354
 2292DPPE   C1A49361  16.002  18.568   2.869 -0.0278  0.4519 -0.0390
 2292DPPE   C2A49362  15.754  18.310   3.121  0.0667 -0.3898 -0.1260
 2292DPPE   C3A49363  15.496  18.470   3.473  0.0612 -0.1026 -0.0898
 2292DPPE   C4A49364  15.319  18.881   3.583 -0.1464 -0.1790 -0.1074
 2292DPPE   C1B49365  15.710  18.225   2.609 -0.0376 -0.1068  0.0934
 2292DPPE   C2B49366  15.362  17.989   2.494 -0.2567  0.0600  0.1124
 2292DPPE   C3B49367  14.936  17.889   2.578  0.1810  0.0570 -0.0096
 2292DPPE   C4B49368  14.621  18.053   2.831  0.1746  0.0821 -0.1964
 2293DPPE   NH349369  37.616  23.758  10.117 -0.0148  0.0964 -0.2001
 2293DPPE   PO449370  37.409  24.210  10.248  0.1220  0.2334 -0.0566
 2293DPPE   GL149371  37.102  24.397   9.996  0.2559 -0.1838  0.3404
 2293DPPE   GL249372  37.059  24.728   9.927  0.0156 -0.3601  0.0256
 2293DPPE   C1A49373  36.716  24.417   9.744  0.0405 -0.0536  0.1772
 2293DPPE   C2A49374  36.334  24.686   9.795 -0.0536 -0.0176 -0.2349
 2293DPPE   C3A49375  35.900  24.977   9.754  0.0015  0.2007  0.2452
 2293DPPE   C4A49376  35.802  25.325  10.007  0.0866  0.0915  0.0717
 2293DPPE   C1B49377  36.653  24.910  10.079  0.4962  0.2857  0.0666
 2293DPPE   C2B49378  36.339  25.271  10.114  0.2739  0.0088  0.0594
 2293DPPE   C3B49379  36.104  25.446  10.444 -0.0033  0.1076 -0.0726
 2293DPPE   C4B49380  35.909  25.730  10.786  0.1723 -0.1182  0.1189
 2294DPPE   NH349381   6.377  28.255  14.418  0.1750 -0.1772 -0.1924
 2294DPPE   PO449382   6.383  28.300  13.899 -0.1154  0.0071  0.2810
 2294DPPE   GL149383   6.423  28.831  14.060  0.0556 -0.0074  0.2201
 2294DPPE   GL249384   6.139  28.904  14.296  0.3864 -0.0385  0.0907
 2294DPPE   C1A49385   6.657  29.190  13.967  0.3006  0.2446 -0.0854
 2294DPPE   C2A49386   6.821  29.582  13.781  0.2040 -0.4142  0.0036
 2294DPPE   C3A49387   7.113  29.964  13.944  0.1863 -0.0417 -0.0207
 2294DPPE   C4A49388   7.216  30.333  14.008 -0.2432 -0.0513 -0.3613
 2294DPPE   C1B49389   5.977  29.175  14.581  0.0908 -0.2745  0.1133
 2294DPPE   C2B49390   5.826  29.404  14.874 -0.3907 -0.0349 -0.3362
 2294DPPE   C3B49391   5.992  29.622  15.146 -0.0085 -0.3865 -0.2233
 2294DPPE   C4B49392   5.989  29.633  15.659  0.0278 -0.1450 -0.2486
 2295DPPE   NH349393   5.071  13.426   9.432  0.1593 -0.3034 -0.0872
 2295DPPE   PO449394   4.952  13.803   9.613 -0.0654  0.0901  0.2275
 2295DPPE   GL149395   4.566  13.714   9.627 -0.0563  0.0443  0.3955
 2295DPPE   GL249396   4.560  13.557   9.916  0.0476 -0.0064 -0.1309
 2295DPPE   C1A49397   4.238  13.623   9.444 -0.1050 -0.0265 -0.2336
 2295DPPE   C2A49398   3.814  13.909   9.443 -0.3213 -0.5116 -0.1638
 2295DPPE   C3A49399   3.372  13.930   9.378  0.1676 -0.0140  0.0896
 2295DPPE   C4A49400   2.959  13.746   9.445 -0.1079  0.2862 -0.0893
 2295DPPE   C1B49401   4.346  13.218  10.102 -0.0618 -0.1039  0.1249
 2295DPPE   C2B49402   4.227  12.827  10.379  0.1036  0.3704  0.0208
 2295DPPE   C3B49403   3.854  12.790  10.557 -0.0779  0.2729  0.1287
 2295DPPE   C4B49404   3.422  12.766  10.705  0.1864  0.1069 -0.1491
 2296DPPE   NH349405  10.084  19.322  18.132 -0.1474  0.0704 -0.2311
 2296DPPE   PO449406  10.279  19.668  17.825 -0.0388 -0.1809 -0.1073
 2296DPPE   GL149407  10.529  19.693  18.282 -0.2470 -0.0480  0.2184
 2296DPPE   GL249408  10.510  19.477  18.300  0.2129 -0.1055 -0.0882
 2296DPPE   C1A49409  10.357  19.702  18.731 -0.0502 -0.1130  0.2739
 2296DPPE   C2A49410  10.481  19.739  19.166 -0.0417  0.1638 -0.3440
 2296DPPE   C3A49411  10.794  19.567  19.458  0.2309 -0.0452 -0.3507
 2296DPPE   C4A49412  11.244  19.457  19.469 -0.0711  0.3105  0.1296
 2296DPPE   C1B49413  10.768  19.179  18.358  0.0716  0.0049 -0.2901
 2296DPPE   C2B49414  11.068  18.873  18.572 -0.0020 -0.1010  0.4706
 2296DPPE   C3B49415  11.159  18.615  18.873 -0.1698  0.1104 -0.1143
 2296DPPE   C4B49416  11.053  18.289  19.214  0.1848  0.0411  0.0224
 2297DPPE   NH349417  38.250  29.971   6.341  0.1319  0.3550  0.3758
 2297DPPE   PO449418  38.366  29.877   6.651 -0.2973 -0.0609 -0.1500
 2297DPPE   GL149419  38.746  29.669   6.728  0.0399  0.1212 -0.1420
 2297DPPE   GL249420  38.865  29.600   6.474  0.0072  0.0306  0.1242
 2297DPPE   C1A49421  39.153  29.537   6.909 -0.1745 -0.0324 -0.1986
 2297DPPE   C2A49422  39.619  29.250   7.152 -0.0377 -0.1593  0.0694
 2297DPPE   C3A49423  39.826  28.948   7.513 -0.1361 -0.1441 -0.0541
 2297DPPE   C4A49424  40.271  28.904   7.676  0.2686  0.1676  0.0872
 2297DPPE   C1B49425  39.151  29.177   6.524 -0.2023 -0.2362  0.4278
 2297DPPE   C2B49426  39.346  28.893   6.888 -0.2974  0.1513  0.1041
 2297DPPE   C3B49427  39.704  28.622   7.133  0.0843  0.0236  0.1087
 2297DPPE   C4B49428  39.611  28.282   7.392 -0.3793 -0.1031 -0.3967
 2298DPPE   NH349429  10.652  27.289  20.745 -0.0779  0.0349 -0.1216
 2298DPPE   PO449430  11.015  27.072  20.968  0.3588  0.0799 -0.0480
 2298DPPE   GL149431  10.887  26.867  20.610 -0.1772 -0.0978 -0.0482
 2298DPPE   GL249432  10.987  27.014  20.419  0.3416 -0.0827 -0.0164
 2298DPPE   C1A49433  10.897  26.434  20.507  0.0661  0.1200  0.1531
 2298DPPE   C2A49434  11.205  26.193  20.547 -0.0302  0.1216  0.2310
 2298DPPE   C3A49435  11.525  25.911  20.339  0.1274  0.2058  0.1723
 2298DPPE   C4A49436  11.869  25.582  20.351 -0.0449 -0.1451 -0.3219
 2298DPPE   C1B49437  10.909  27.155  20.031 -0.2231 -0.0092 -0.0930
 2298DPPE   C2B49438  11.043  27.149  19.588  0.1732 -0.1596 -0.1647
 2298DPPE   C3B49439  10.671  27.143  19.285 -0.2691 -0.1506  0.1116
 2298DPPE   C4B49440  10.310  26.761  19.133 -0.0611 -0.0886  0.2588
 2299DPPE   NH349441  33.648  10.908   7.941 -0.0491  0.0034 -0.1809
 2299DPPE   PO449442  33.353  11.175   8.036 -0.2191 -0.1077 -0.0021
 2299DPPE   GL149443  33.792  11.407   8.158 -0.0794  0.2302 -0.0973
 2299DPPE   GL249444  33.876  11.369   8.515 -0.1440  0.2559 -0.0661
 2299DPPE   C1A49445  34.210  11.655   8.126 -0.0878 -0.0181  0.0338
 2299DPPE   C2A49446  34.571  11.647   8.230  0.2132 -0.1128 -0.0099
 2299DPPE   C3A49447  35.014  11.591   8.258 -0.0612  0.2900 -0.0834
 2299DPPE   C4A49448  35.265  11.305   8.279 -0.0687  0.1527  0.0206
 2299DPPE   C1B49449  34.005  11.767   8.533  0.0480  0.0429  0.1343
 2299DPPE   C2B49450  33.878  12.212   8.443 -0.2167  0.1105 -0.0685
 2299DPPE   C3B49451  33.732  12.053   8.036 -0.0527 -0.2844 -0.1709
 2299DPPE   C4B49452  33.329  12.069   7.861 -0.2257 -0.0270  0.0954
 2300DPPE   NH349453  32.440  25.498   5.657 -0.0979 -0.0419  0.3686
 2300DPPE   PO449454  31.980  25.401   5.770  0.1794 -0.1598 -0.3081
 2300DPPE   GL149455  32.290  25.040   5.795 -0.1730  0.0832  0.0738
 2300DPPE   GL249456  32.181  24.775   5.558 -0.1676 -0.0243  0.0752
 2300DPPE   C1A49457  32.689  24.697   5.792  0.2674  0.2168  0.0243
 2300DPPE   C2A49458  32.859  24.327   5.676 -0.1053  0.1688 -0.0135
 2300DPPE   C3A49459  32.899  23.910   5.708  0.0351  0.0399 -0.0382
 2300DPPE   C4A49460  33.215  23.595   5.785  0.1859 -0.0097 -0.0581
 2300DPPE   C1B49461  32.275  24.377   5.640 -0.4770 -0.1099  0.1448
 2300DPPE   C2B49462  32.391  23.942   5.796  0.1848  0.0672  0.3766
 2300DPPE   C3B49463  32.466  23.498   5.853 -0.1037 -0.1421  0.3546
 2300DPPE   C4B49464  32.809  23.243   5.996  0.1039  0.0750  0.0137
 2301DPPE   NH349465   3.069  17.376   8.465 -0.1153  0.2603  0.0617
 2301DPPE   PO449466   2.862  17.115   8.112  0.3341  0.1124  0.1302
 2301DPPE   GL149467   2.462  16.751   8.011  0.1186 -0.0457  0.1836
 2301DPPE   GL249468   2.107  16.717   8.209  0.0295 -0.1042  0.0706
 2301DPPE   C1A49469   2.187  16.261   8.103  0.0271 -0.2568  0.1969
 2301DPPE   C2A49470   1.874  16.018   8.287  0.4304 -0.1793  0.0474
 2301DPPE   C3A49471   1.542  15.810   8.569 -0.0736 -0.0088  0.0004
 2301DPPE   C4A49472   1.324  15.347   8.700  0.1566 -0.0816 -0.0149
 2301DPPE   C1B49473   1.879  16.574   7.871  0.1720  0.0703  0.1787
 2301DPPE   C2B49474   1.570  16.232   7.829 -0.0245  0.3431  0.3303
 2301DPPE   C3B49475   1.475  15.835   7.966  0.1238 -0.2526 -0.1561
 2301DPPE   C4B49476   1.267  15.527   8.236  0.1491  0.4870 -0.0394
 2302DPPE   NH349477   2.508  27.237  13.166  0.2053 -0.0128 -0.2258
 2302DPPE   PO449478   2.771  27.205  12.851  0.2472 -0.2475  0.2135
 2302DPPE   GL149479   2.559  27.557  12.715  0.2905  0.4124 -0.3048
 2302DPPE   GL249480   2.563  27.734  12.928 -0.5106 -0.4929  0.0489
 2302DPPE   C1A49481   2.125  27.818  12.775 -0.1117  0.1258 -0.0164
 2302DPPE   C2A49482   1.750  28.093  12.919 -0.1335 -0.0730 -0.2313
 2302DPPE   C3A49483   1.540  28.474  13.070  0.0704  0.1246  0.0245
 2302DPPE   C4A49484   1.178  28.655  13.211  0.0535 -0.0085 -0.1898
 2302DPPE   C1B49485   2.501  28.271  12.840  0.0342 -0.0342 -0.2261
 2302DPPE   C2B49486   2.385  28.613  13.015  0.0800 -0.2732 -0.0682
 2302DPPE   C3B49487   2.252  28.933  13.315 -0.0981 -0.1554 -0.0140
 2302DPPE   C4B49488   2.083  29.226  13.537 -0.3681  0.1166  0.1805
 2303DPPE   NH349489  13.994  18.204  11.328  0.3536  0.0302 -0.0971
 2303DPPE   PO449490  14.162  18.226  11.029  0.3975 -0.1237 -0.0187
 2303DPPE   GL149491  14.491  18.038  11.227 -0.0107  0.0996 -0.0624
 2303DPPE   GL249492  14.660  18.281  11.263  0.0509  0.2085 -0.1182
 2303DPPE   C1A49493  14.821  17.784  11.511 -0.3884  0.0761  0.0752
 2303DPPE   C2A49494  15.201  17.536  11.554  0.2071 -0.2393  0.1625
 2303DPPE   C3A49495  15.675  17.688  11.536 -0.3612 -0.1696  0.1148
 2303DPPE   C4A49496  16.090  17.737  11.554 -0.2391  0.0948 -0.1183
 2303DPPE   C1B49497  15.008  18.474  11.157  0.1173  0.0652  0.0121
 2303DPPE   C2B49498  15.364  18.457  11.139 -0.2481  0.0682  0.0716
 2303DPPE   C3B49499  15.667  18.146  11.041  0.1178  0.0070 -0.1940
 2303DPPE   C4B49500  15.891  17.729  11.103 -0.1607  0.2420 -0.2510
 2304DPPE   NH349501   0.035  21.637  13.254  0.3005 -0.0776 -0.2703
 2304DPPE   PO449502  -0.102  21.435  13.590  0.0923  0.2746 -0.2753
 2304DPPE   GL149503  -0.414  21.215  13.777 -0.0250  0.1338  0.0557
 2304DPPE   GL249504  -0.322  21.282  14.078 -0.0296 -0.1098 -0.0262
 2304DPPE   C1A49505  -0.810  21.225  13.619 -0.2248  0.0646  0.3147
 2304DPPE   C2A49506  -1.144  21.501  13.429  0.1800  0.0913  0.1488
 2304DPPE   C3A49507  -1.581  21.443  13.338  0.2353 -0.0307 -0.1909
 2304DPPE   C4A49508  -1.799  21.480  13.724 -0.1869  0.1939  0.2260
 2304DPPE   C1B49509  -0.786  21.264  14.139 -0.0726  0.1417 -0.0353
 2304DPPE   C2B49510  -1.076  21.224  14.391 -0.3592 -0.2933  0.3753
 2304DPPE   C3B49511  -1.295  21.171  14.810  0.0530 -0.1525  0.4407
 2304DPPE   C4B49512  -1.639  21.044  14.888 -0.1942 -0.1332 -0.1540
 2305DPPE   NH349513   5.078  23.313   2.935 -0.0815  0.0082 -0.0563
 2305DPPE   PO449514   5.342  23.477   3.219  0.0197 -0.2442 -0.0429
 2305DPPE   GL149515   5.432  23.779   2.885 -0.3215  0.3417  0.3236
 2305DPPE   GL249516   5.149  23.783   2.740 -0.1571 -0.1471 -0.1776
 2305DPPE   C1A49517   5.451  24.164   2.640  0.0704 -0.3212  0.1859
 2305DPPE   C2A49518   5.457  24.288   2.237  0.2593 -0.0874  0.0524
 2305DPPE   C3A49519   5.501  24.451   1.811  0.1807 -0.0245  0.1054
 2305DPPE   C4A49520   5.615  24.489   1.386  0.3385  0.2179  0.0648
 2305DPPE   C1B49521   4.985  24.122   2.417 -0.5548  0.1466 -0.1337
 2305DPPE   C2B49522   5.004  24.303   1.951  0.1428 -0.1267  0.1791
 2305DPPE   C3B49523   5.112  24.414   1.588 -0.1687 -0.0371 -0.0104
 2305DPPE   C4B49524   4.894  24.443   1.242  0.1095  0.1509 -0.1596
 2306DPPE   NH349525  38.223  24.355   0.537  0.1983  0.3357  0.0115
 2306DPPE   PO449526  38.672  24.295   0.237 -0.0101 -0.2797  0.1725
 2306DPPE   GL149527  38.737  24.152   0.704  0.0291 -0.0925  0.2598
 2306DPPE   GL249528  38.963  23.896   0.862  0.1339  0.3537  0.2493
 2306DPPE   C1A49529  38.513  23.927   0.990  0.1533  0.3450 -0.0537
 2306DPPE   C2A49530  38.333  24.083   1.450  0.2940  0.0611 -0.0320
 2306DPPE   C3A49531  38.521  23.864   1.782 -0.3868  0.3660 -0.0632
 2306DPPE   C4A49532  38.563  23.549   2.094  0.0248  0.0378  0.1041
 2306DPPE   C1B49533  38.842  23.752   1.288 -0.2317  0.5231  0.0984
 2306DPPE   C2B49534  38.948  23.512   1.643  0.0131  0.0643  0.2956
 2306DPPE   C3B49535  39.001  23.196   1.982  0.4530 -0.2282 -0.2573
 2306DPPE   C4B49536  39.309  22.862   2.124 -0.3134 -0.3519  0.3389
 2307DPPE   NH349537  13.736  15.436   1.543 -0.0745  0.0053 -0.0073
 2307DPPE   PO449538  13.884  15.507   1.117 -0.1167 -0.0293 -0.2551
 2307DPPE   GL149539  13.794  15.922   1.370  0.0753  0.0258  0.0082
 2307DPPE   GL249540  13.425  16.071   1.387 -0.1102  0.2825 -0.1517
 2307DPPE   C1A49541  13.784  16.394   1.430 -0.0022 -0.2557  0.0397
 2307DPPE   C2A49542  13.784  16.569   1.771  0.3780  0.0014 -0.0516
 2307DPPE   C3A49543  14.091  16.541   2.086 -0.0924  0.4280  0.2016
 2307DPPE   C4A49544  14.232  16.779   2.339  0.0491 -0.2156 -0.1543
 2307DPPE   C1B49545  13.015  15.823   1.506 -0.3874  0.2368  0.3687
 2307DPPE   C2B49546  12.677  15.443   1.527  0.1340 -0.1751 -0.4026
 2307DPPE   C3B49547  12.191  15.380   1.584  0.1401 -0.0623  0.1679
 2307DPPE   C4B49548  11.673  15.443   1.640  0.2775 -0.2226  0.0092
 2308DPPE   NH349549   1.281  13.310   5.977 -0.1023 -0.0973 -0.3947
 2308DPPE   PO449550   1.550  12.861   5.954 -0.0473 -0.0334  0.1586
 2308DPPE   GL149551   1.872  13.118   6.124  0.2960 -0.3191 -0.3218
 2308DPPE   GL249552   2.180  13.035   6.252 -0.3455 -0.3470  0.0905
 2308DPPE   C1A49553   1.847  13.421   6.390  0.0755 -0.2607 -0.0856
 2308DPPE   C2A49554   1.648  13.824   6.347 -0.0088  0.2900  0.1936
 2308DPPE   C3A49555   1.422  14.027   6.140 -0.1142  0.3091  0.1604
 2308DPPE   C4A49556   1.343  14.276   5.856  0.2054 -0.0960 -0.2750
 2308DPPE   C1B49557   2.434  13.265   5.893  0.2049 -0.0866 -0.1752
 2308DPPE   C2B49558   2.636  13.615   5.791 -0.0799  0.1143 -0.1786
 2308DPPE   C3B49559   2.553  13.954   6.030  0.1253  0.0145 -0.1508
 2308DPPE   C4B49560   2.512  14.403   5.886 -0.1147  0.0165 -0.1472
 2309DPPE   NH349561  36.523  15.818   7.028 -0.1606  0.2491 -0.0997
 2309DPPE   PO449562  36.798  16.133   6.716  0.1451 -0.1105  0.3966
 2309DPPE   GL149563  37.150  16.037   6.880 -0.0542 -0.2309 -0.1684
 2309DPPE   GL249564  37.069  15.870   7.088 -0.2426  0.2578  0.0156
 2309DPPE   C1A49565  37.414  16.345   7.184  0.4255  0.1672 -0.2691
 2309DPPE   C2A49566  37.820  16.499   7.371  0.0309 -0.1786  0.2819
 2309DPPE   C3A49567  38.229  16.621   7.487  0.1453  0.0015 -0.0103
 2309DPPE   C4A49568  38.619  16.823   7.635  0.1091  0.1693 -0.2559
 2309DPPE   C1B49569  37.291  15.830   7.316 -0.4310  0.0473 -0.3421
 2309DPPE   C2B49570  37.592  15.602   7.394  0.2319 -0.2696 -0.4499
 2309DPPE   C3B49571  37.989  15.566   7.583  0.0846  0.5226  0.0188
 2309DPPE   C4B49572  38.159  15.180   7.491  0.1303  0.0857  0.4253
 2310DPPE   NH349573  33.069  21.772  10.285 -0.2164 -0.2304 -0.2455
 2310DPPE   PO449574  32.764  21.928  10.318  0.0526  0.1936 -0.1320
 2310DPPE   GL149575  32.492  21.953   9.947 -0.0206  0.1110  0.0304
 2310DPPE   GL249576  32.316  21.774   9.917  0.1037  0.2600  0.2889
 2310DPPE   C1A49577  32.345  22.361   9.954 -0.4108  0.0279 -0.0508
 2310DPPE   C2A49578  32.334  22.756   9.677 -0.3553 -0.3740 -0.0309
 2310DPPE   C3A49579  32.092  23.217   9.655  0.0020 -0.0791 -0.0488
 2310DPPE   C4A49580  32.098  23.484   9.882  0.0445 -0.0908 -0.0520
 2310DPPE   C1B49581  31.949  21.966   9.906  0.0597  0.3712 -0.0904
 2310DPPE   C2B49582  31.568  22.151   9.777  0.0977  0.0791 -0.0099
 2310DPPE   C3B49583  31.285  22.335  10.090  0.0779  0.0467 -0.2512
 2310DPPE   C4B49584  31.035  22.771  10.177 -0.0562 -0.0306 -0.1060
 2311DPPE   NH349585   0.913  12.100  15.308  0.2001 -0.0078  0.0420
 2311DPPE   PO449586   0.634  12.101  14.983  0.1534  0.0882 -0.2217
 2311DPPE   GL149587   0.564  11.767  15.144 -0.2302 -0.1871  0.1737
 2311DPPE   GL249588   0.560  11.741  15.520  0.2822  0.3173 -0.3726
 2311DPPE   C1A49589   0.413  11.329  15.195  0.0854 -0.0584 -0.1422
 2311DPPE   C2A49590   0.246  10.942  15.480  0.3262  0.0910 -0.1275
 2311DPPE   C3A49591   0.430  10.702  15.812  0.0095  0.0670  0.2333
 2311DPPE   C4A49592   0.732  10.595  16.147 -0.1164  0.1043 -0.0979
 2311DPPE   C1B49593   0.469  11.371  15.712 -0.1793  0.0100  0.0074
 2311DPPE   C2B49594   0.743  11.118  15.780 -0.2510 -0.1655  0.2216
 2311DPPE   C3B49595   1.082  10.904  15.692  0.0986  0.2758  0.2240
 2311DPPE   C4B49596   1.563  10.745  15.623  0.6009  0.0063  0.1500
 2312DPPE   NH349597  37.849  11.476  13.688  0.0871  0.1481  0.0780
 2312DPPE   PO449598  37.772  11.232  13.263 -0.0258  0.0796  0.1218
 2312DPPE   GL149599  37.549  11.007  13.374  0.1450  0.1865 -0.0527
 2312DPPE   GL249600  37.470  11.028  13.701  0.0986 -0.0233 -0.5752
 2312DPPE   C1A49601  37.093  10.870  13.215 -0.1449 -0.1244  0.0220
 2312DPPE   C2A49602  36.758  10.657  13.062 -0.1825 -0.0419 -0.0883
 2312DPPE   C3A49603  36.677  10.214  13.135  0.2149  0.1805 -0.0463
 2312DPPE   C4A49604  36.693   9.907  13.344  0.0826  0.3890 -0.1350
 2312DPPE   C1B49605  37.233  10.661  13.755 -0.1191  0.0312  0.0885
 2312DPPE   C2B49606  37.036  10.548  14.189  0.3718  0.4243  0.0304
 2312DPPE   C3B49607  36.910  10.627  14.602  0.0891 -0.1050 -0.0269
 2312DPPE   C4B49608  37.138  10.758  14.966  0.3086  0.1070  0.1844
 2313DPPE   NH349609  34.253  22.224  10.545 -0.1711 -0.1571 -0.1232
 2313DPPE   PO449610  34.241  21.957  10.799 -0.1044 -0.3973  0.1881
 2313DPPE   GL149611  34.572  22.242  10.924 -0.2618  0.0518 -0.1686
 2313DPPE   GL249612  34.791  22.446  10.679  0.0633 -0.0076  0.1207
 2313DPPE   C1A49613  34.941  22.327  11.208  0.1566 -0.1656  0.0027
 2313DPPE   C2A49614  35.400  22.232  11.056 -0.3978  0.3667 -0.0247
 2313DPPE   C3A49615  35.771  22.309  10.764  0.0651 -0.0370 -0.0481
 2313DPPE   C4A49616  36.069  22.279  10.607 -0.2428 -0.0820  0.3589
 2313DPPE   C1B49617  35.139  22.639  10.833 -0.0138  0.0135 -0.1552
 2313DPPE   C2B49618  35.395  22.980  10.907 -0.1780 -0.0725  0.4423
 2313DPPE   C3B49619  35.822  23.234  11.013  0.0219 -0.2800  0.1171
 2313DPPE   C4B49620  36.200  23.471  11.092 -0.1273 -0.0255  0.0617
 2314DPPE   NH349621  34.181  19.586  13.352 -0.2412 -0.1143 -0.0605
 2314DPPE   PO449622  34.500  19.884  13.474 -0.0674 -0.2217  0.2522
 2314DPPE   GL149623  34.908  19.672  13.401 -0.1994  0.0831 -0.1407
 2314DPPE   GL249624  35.081  19.756  13.145 -0.0215  0.1180 -0.0600
 2314DPPE   C1A49625  35.274  19.572  13.621 -0.0185  0.2191 -0.0478
 2314DPPE   C2A49626  35.715  19.657  13.553  0.0916 -0.3421 -0.1407
 2314DPPE   C3A49627  36.162  19.753  13.384 -0.0007 -0.2554 -0.0399
 2314DPPE   C4A49628  36.547  19.671  13.281 -0.1079 -0.0781 -0.1223
 2314DPPE   C1B49629  35.443  19.716  12.848  0.0671 -0.1524 -0.0158
 2314DPPE   C2B49630  35.760  19.623  12.536  0.0470  0.2582  0.1172
 2314DPPE   C3B49631  36.180  19.629  12.465 -0.0690  0.1297 -0.0320
 2314DPPE   C4B49632  36.578  19.702  12.693  0.0886  0.0976  0.1029
 2315DPPE   NH349633  37.029  17.067  18.515  0.0863  0.2112  0.1247
 2315DPPE   PO449634  36.687  17.431  18.385  0.1595  0.3485 -0.4271
 2315DPPE   GL149635  37.093  17.757  18.457 -0.2277 -0.1299 -0.4423
 2315DPPE   GL249636  37.161  18.005  18.210 -0.3846  0.1379 -0.0059
 2315DPPE   C1A49637  37.358  17.923  18.748  0.2410 -0.0607 -0.3225
 2315DPPE   C2A49638  37.487  18.085  19.115  0.1201  0.0726  0.2865
 2315DPPE   C3A49639  37.283  18.082  19.482  0.0281  0.0851  0.0852
 2315DPPE   C4A49640  37.119  17.999  19.895 -0.0622  0.1859 -0.1544
 2315DPPE   C1B49641  37.261  18.400  18.191 -0.2426 -0.1028 -0.1352
 2315DPPE   C2B49642  37.499  18.774  18.449 -0.2854 -0.1223  0.4262
 2315DPPE   C3B49643  37.758  19.083  18.353 -0.3374 -0.0635  0.2596
 2315DPPE   C4B49644  37.913  19.148  17.952  0.2411  0.1621 -0.1883
 2316DPPE   NH349645  33.026  19.594  11.564 -0.0400  0.4155  0.2095
 2316DPPE   PO449646  32.965  19.689  11.152  0.0430  0.1060  0.0450
 2316DPPE   GL149647  32.588  19.790  11.398 -0.2363 -0.1590 -0.1327
 2316DPPE   GL249648  32.597  19.874  11.710 -0.2417 -0.2324  0.1182
 2316DPPE   C1A49649  32.130  19.735  11.503 -0.0010 -0.0783 -0.1638
 2316DPPE   C2A49650  31.663  19.740  11.562  0.1148  0.0545 -0.2335
 2316DPPE   C3A49651  31.255  19.958  11.412  0.2221  0.0483  0.0098
 2316DPPE   C4A49652  30.838  19.788  11.378  0.0550 -0.0577 -0.1346
 2316DPPE   C1B49653  32.291  19.838  12.035  0.0042  0.4252 -0.0288
 2316DPPE   C2B49654  31.950  19.813  12.022 -0.0619 -0.1908  0.2754
 2316DPPE   C3B49655  31.484  19.651  12.058 -0.0656  0.0688  0.1006
 2316DPPE   C4B49656  31.237  19.578  11.829 -0.0027 -0.2310  0.0088
 2317DPPE   NH349657  36.772  15.415   3.903  0.2596 -0.2631  0.0624
 2317DPPE   PO449658  37.153  15.131   3.738  0.0844 -0.2584  0.1263
 2317DPPE   GL149659  36.723  15.001   3.638  0.1026  0.0572  0.0749
 2317DPPE   GL249660  36.717  15.033   3.339 -0.0580 -0.3128 -0.0905
 2317DPPE   C1A49661  36.411  14.639   3.530 -0.2273 -0.0901  0.2057
 2317DPPE   C2A49662  36.147  14.364   3.343 -0.0242  0.1077  0.0415
 2317DPPE   C3A49663  36.272  14.172   2.902  0.0738  0.2103 -0.1352
 2317DPPE   C4A49664  36.146  13.781   2.745  0.3642  0.0887 -0.2462
 2317DPPE   C1B49665  36.288  15.104   3.133 -0.1895 -0.2247 -0.0329
 2317DPPE   C2B49666  35.905  14.964   2.996 -0.2436  0.2123 -0.0668
 2317DPPE   C3B49667  35.590  14.566   2.995 -0.3343 -0.1602 -0.1501
 2317DPPE   C4B49668  35.817  14.072   3.066 -0.1004  0.1824  0.1333
 2318DPPE   NH349669  35.221  17.142  17.290 -0.3820  0.0803 -0.1752
 2318DPPE   PO449670  35.406  16.814  17.261  0.1032 -0.1189 -0.0453
 2318DPPE   GL149671  35.078  16.545  17.282 -0.1640 -0.0260  0.0886
 2318DPPE   GL249672  34.860  16.818  17.340 -0.2471 -0.4094  0.0874
 2318DPPE   C1A49673  34.748  16.375  17.488  0.1295  0.3807 -0.1831
 2318DPPE   C2A49674  34.509  16.066  17.724  0.0366 -0.2319  0.1200
 2318DPPE   C3A49675  34.050  15.930  17.910  0.0793  0.1836 -0.0670
 2318DPPE   C4A49676  33.713  16.025  18.256 -0.2654  0.2819 -0.0851
 2318DPPE   C1B49677  34.407  16.767  17.547 -0.0168 -0.2578  0.1875
 2318DPPE   C2B49678  34.203  16.475  17.922  0.0546 -0.0462 -0.0398
 2318DPPE   C3B49679  33.806  16.549  18.268  0.4210  0.0313  0.2428
 2318DPPE   C4B49680  33.772  16.725  18.687 -0.0865  0.3833  0.1532
 2319DPPE   NH349681   0.413  14.672  17.382 -0.2767  0.0415 -0.0834
 2319DPPE   PO449682   0.600  15.053  17.729  0.2187 -0.0951 -0.2553
 2319DPPE   GL149683   0.910  15.273  17.897 -0.2575 -0.2132 -0.3730
 2319DPPE   GL249684   0.980  15.175  18.197 -0.0411 -0.1629 -0.2603
 2319DPPE   C1A49685   1.131  15.571  17.873 -0.1663  0.0659  0.3166
 2319DPPE   C2A49686   1.475  15.818  17.832 -0.2395 -0.0122 -0.0079
 2319DPPE   C3A49687   1.710  16.144  18.050 -0.1821  0.1356  0.1181
 2319DPPE   C4A49688   2.050  16.038  18.014  0.0985 -0.1520 -0.0677
 2319DPPE   C1B49689   1.331  15.290  18.274  0.2178  0.0369  0.1242
 2319DPPE   C2B49690   1.712  15.174  18.288 -0.0969 -0.0711 -0.0971
 2319DPPE   C3B49691   2.061  15.348  18.308  0.1585  0.0147  0.1273
 2319DPPE   C4B49692   2.265  15.627  18.261  0.3655 -0.0835 -0.2283
 2320DPPE   NH349693  37.286  11.734  11.335  0.0914  0.1683 -0.3455
 2320DPPE   PO449694  37.410  11.778  11.766 -0.0911 -0.1648 -0.2240
 2320DPPE   GL149695  36.971  11.541  11.685 -0.1775 -0.1554  0.1661
 2320DPPE   GL249696  36.774  11.574  11.344 -0.2507 -0.3659 -0.2942
 2320DPPE   C1A49697  36.551  11.323  11.715 -0.0375 -0.2219  0.0007
 2320DPPE   C2A49698  36.267  11.121  11.849 -0.1386 -0.0364 -0.1811
 2320DPPE   C3A49699  36.153  10.774  11.661 -0.1266  0.2259  0.2614
 2320DPPE   C4A49700  36.117  10.391  11.549 -0.0655 -0.0829 -0.1793
 2320DPPE   C1B49701  36.711  11.168  11.191  0.0097  0.0483 -0.1270
 2320DPPE   C2B49702  36.394  10.861  11.266 -0.0650  0.0573 -0.2994
 2320DPPE   C3B49703  35.949  10.690  11.165  0.4189  0.0314  0.1533
 2320DPPE   C4B49704  35.501  10.617  11.038  0.1266  0.1353  0.0260
 2321DPPE   NH349705  34.528  15.866  13.594  0.2009  0.0010 -0.1237
 2321DPPE   PO449706  34.601  15.721  13.158 -0.4622 -0.1448 -0.0388
 2321DPPE   GL149707  34.508  15.372  13.297 -0.0432 -0.0954 -0.0824
 2321DPPE   GL249708  34.466  15.284  13.611  0.3161  0.0632  0.0904
 2321DPPE   C1A49709  34.290  14.952  13.249 -0.1490 -0.4507 -0.2343
 2321DPPE   C2A49710  33.884  14.726  13.289  0.0820 -0.1814 -0.2265
 2321DPPE   C3A49711  33.643  14.334  13.534  0.1448 -0.2080 -0.0435
 2321DPPE   C4A49712  33.456  13.900  13.657  0.2148  0.0013  0.3029
 2321DPPE   C1B49713  34.101  15.048  13.754  0.3813 -0.2119  0.0445
 2321DPPE   C2B49714  33.869  14.813  13.998  0.1634  0.0052  0.0091
 2321DPPE   C3B49715  33.432  14.687  14.019  0.1090 -0.1413 -0.0952
 2321DPPE   C4B49716  33.148  14.508  14.301  0.0555  0.0465  0.2330
 2322DPPE   NH349717  35.843  15.504   8.987 -0.0610  0.4724  0.2575
 2322DPPE   PO449718  36.052  15.360   8.620 -0.2055 -0.2013  0.3086
 2322DPPE   GL149719  36.335  15.704   8.399  0.2550 -0.1169  0.1400
 2322DPPE   GL249720  36.341  15.956   8.578  0.0385 -0.0165 -0.3886
 2322DPPE   C1A49721  36.614  16.130   8.191 -0.0225  0.1507 -0.1485
 2322DPPE   C2A49722  37.000  16.411   8.066 -0.0935 -0.0487  0.3487
 2322DPPE   C3A49723  37.326  16.549   7.911  0.1275  0.2855  0.0620
 2322DPPE   C4A49724  37.404  16.688   7.546  0.1445 -0.1266 -0.2484
 2322DPPE   C1B49725  36.639  15.874   8.817 -0.6011 -0.1284 -0.1776
 2322DPPE   C2B49726  36.956  16.056   9.089 -0.1758  0.0551  0.4351
 2322DPPE   C3B49727  37.358  16.168   9.318 -0.0670 -0.0276  0.0108
 2322DPPE   C4B49728  37.716  16.397   9.508 -0.3699  0.0810 -0.1164
 2323DPPE   NH349729  37.245  17.777   2.356  0.0830  0.0073 -0.2224
 2323DPPE   PO449730  36.909  17.598   2.402  0.1685 -0.0355  0.1842
 2323DPPE   GL149731  36.764  17.880   2.066  0.0378 -0.0380 -0.1823
 2323DPPE   GL249732  37.072  17.932   1.900  0.2606  0.0811  0.1186
 2323DPPE   C1A49733  36.607  18.238   1.844 -0.3191  0.0412 -0.0366
 2323DPPE   C2A49734  36.623  18.407   1.381  0.2019 -0.1015 -0.1985
 2323DPPE   C3A49735  36.618  18.526   0.889  0.0463 -0.2824  0.0263
 2323DPPE   C4A49736  36.600  18.358   0.438  0.3379 -0.4656 -0.0048
 2323DPPE   C1B49737  37.057  18.109   1.621  0.2178  0.2288  0.0149
 2323DPPE   C2B49738  37.124  18.347   1.282 -0.0522  0.3313  0.3077
 2323DPPE   C3B49739  37.271  18.686   0.891  0.2377  0.3522 -0.1189
 2323DPPE   C4B49740  37.182  19.151   0.722  0.1006  0.1455 -0.1509
 2324DPPE   NH349741   2.352  10.983   7.597 -0.1455  0.0080  0.1053
 2324DPPE   PO449742   2.456  10.950   7.182 -0.1894 -0.0283  0.0292
 2324DPPE   GL149743   2.865  10.809   7.272  0.0752 -0.1222  0.0975
 2324DPPE   GL249744   2.703  10.501   7.264  0.1533  0.2057 -0.1135
 2324DPPE   C1A49745   3.252  10.840   7.359  0.1694  0.2324 -0.0222
 2324DPPE   C2A49746   3.698  10.807   7.571 -0.3042  0.2318  0.0981
 2324DPPE   C3A49747   3.926  10.444   7.506  0.0626  0.0157 -0.0923
 2324DPPE   C4A49748   3.926  10.142   7.258  0.1293 -0.0069  0.1559
 2324DPPE   C1B49749   3.124  10.485   6.877  0.0300 -0.2010 -0.0458
 2324DPPE   C2B49750   3.543  10.469   6.492  0.0148  0.1779  0.0861
 2324DPPE   C3B49751   3.409  10.360   6.052 -0.4219  0.0573 -0.2794
 2324DPPE   C4B49752   3.403  10.453   5.577  0.4202 -0.1446  0.0339
 2325DPPE   NH349753  35.969  14.353  13.998  0.0262 -0.1939 -0.1638
 2325DPPE   PO449754  35.705  14.813  13.932 -0.1584  0.0521  0.0600
 2325DPPE   GL149755  35.381  14.632  14.127  0.1361 -0.0976  0.2032
 2325DPPE   GL249756  35.237  14.734  14.415 -0.2887  0.4515 -0.0017
 2325DPPE   C1A49757  35.191  14.249  14.357 -0.1112  0.0417 -0.2088
 2325DPPE   C2A49758  35.091  13.894  14.401 -0.2312  0.2455 -0.1067
 2325DPPE   C3A49759  35.058  13.440  14.557  0.1040 -0.2791  0.2753
 2325DPPE   C4A49760  34.661  13.413  14.651  0.1405 -0.1194 -0.1402
 2325DPPE   C1B49761  34.860  14.619  14.469  0.1675  0.0540 -0.4735
 2325DPPE   C2B49762  34.581  14.402  14.509 -0.2095  0.0259 -0.0886
 2325DPPE   C3B49763  34.386  14.027  14.585  0.1027 -0.2017  0.1719
 2325DPPE   C4B49764  33.998  13.930  14.615  0.2073 -0.1315  0.1870
 2326DPPE   NH349765   1.314  14.548   4.436 -0.1177 -0.0188  0.0581
 2326DPPE   PO449766   1.398  14.914   4.033  0.1436 -0.0842 -0.1610
 2326DPPE   GL149767   1.371  15.257   4.019  0.3094  0.0150 -0.1710
 2326DPPE   GL249768   1.081  15.405   3.860 -0.0164 -0.1622  0.0267
 2326DPPE   C1A49769   1.714  15.474   4.176  0.2387 -0.1182 -0.2834
 2326DPPE   C2A49770   1.923  15.757   4.117 -0.1227  0.4820  0.0771
 2326DPPE   C3A49771   2.290  15.732   3.664  0.0411 -0.1255 -0.1648
 2326DPPE   C4A49772   2.130  15.697   3.278  0.0010  0.0535  0.0570
 2326DPPE   C1B49773   1.347  15.722   3.851 -0.1410 -0.3006 -0.0193
 2326DPPE   C2B49774   1.536  16.041   4.148 -0.1076  0.2402 -0.0586
 2326DPPE   C3B49775   1.728  16.250   4.534  0.0783 -0.3094  0.0815
 2326DPPE   C4B49776   1.708  16.716   4.681  0.1194 -0.5103 -0.1300
 2327DPPE   NH349777   0.018  11.433   9.807 -0.0656  0.2394 -0.2248
 2327DPPE   PO449778   0.250  11.243  10.174 -0.2205 -0.0277  0.2453
 2327DPPE   GL149779   0.077  10.852  10.162 -0.0748 -0.0354 -0.1122
 2327DPPE   GL249780   0.235  10.601  10.062 -0.1550 -0.1885  0.0249
 2327DPPE   C1A49781  -0.415  10.718  10.238  0.3219  0.0321 -0.1869
 2327DPPE   C2A49782  -0.662  10.434  10.229 -0.0031 -0.2149 -0.2586
 2327DPPE   C3A49783  -0.899  10.125  10.248  0.1941 -0.0553  0.0037
 2327DPPE   C4A49784  -1.210   9.707  10.172 -0.0730  0.2424  0.0175
 2327DPPE   C1B49785  -0.081  10.348  10.190 -0.0931 -0.1013  0.2653
 2327DPPE   C2B49786  -0.383  10.030  10.149 -0.0907  0.3034 -0.4332
 2327DPPE   C3B49787  -0.666   9.696  10.211  0.1927  0.0155  0.0068
 2327DPPE   C4B49788  -0.866   9.325   9.904  0.0865  0.1067  0.2479
 2328DPPE   NH349789  35.259  17.980  15.939 -0.1978 -0.0613 -0.4858
 2328DPPE   PO449790  34.807  18.103  16.030  0.0021  0.2317 -0.3218
 2328DPPE   GL149791  34.430  18.242  16.206  0.0554  0.3455 -0.1679
 2328DPPE   GL249792  34.245  18.584  16.184  0.1240 -0.1510  0.3379
 2328DPPE   C1A49793  33.894  18.118  16.312  0.1820 -0.0808 -0.2654
 2328DPPE   C2A49794  33.776  18.052  16.700 -0.1037  0.0477 -0.1237
 2328DPPE   C3A49795  33.384  17.989  16.719 -0.0367  0.1839  0.1396
 2328DPPE   C4A49796  33.027  18.241  16.754 -0.2605  0.2173  0.4148
 2328DPPE   C1B49797  33.730  18.608  16.215  0.2169 -0.0250  0.0729
 2328DPPE   C2B49798  33.321  18.645  16.453 -0.0358  0.2168  0.1022
 2328DPPE   C3B49799  33.112  18.851  16.784 -0.1501 -0.0027  0.2382
 2328DPPE   C4B49800  33.053  18.604  17.154  0.1290 -0.2810 -0.1337
 2329DPPE   NH349801  34.917  15.534   9.283 -0.1939  0.1913 -0.0673
 2329DPPE   PO449802  35.127  15.492   8.936 -0.0044  0.2113  0.2297
 2329DPPE   GL149803  34.807  15.179   8.893 -0.2243 -0.0013  0.0988
 2329DPPE   GL249804  34.710  15.149   8.593 -0.1173 -0.1162 -0.2656
 2329DPPE   C1A49805  34.398  15.130   9.111  0.0032  0.0556 -0.2772
 2329DPPE   C2A49806  34.095  14.802   9.031  0.0491  0.1177  0.0137
 2329DPPE   C3A49807  33.636  14.653   9.218 -0.0659 -0.2566 -0.6661
 2329DPPE   C4A49808  33.229  14.381   9.236 -0.1635 -0.0819  0.2094
 2329DPPE   C1B49809  34.395  14.887   8.604  0.2601  0.2303  0.2878
 2329DPPE   C2B49810  34.216  14.476   8.653  0.1842  0.2614 -0.1808
 2329DPPE   C3B49811  33.867  14.062   8.791 -0.4432 -0.0348  0.0675
 2329DPPE   C4B49812  33.668  13.754   8.860  0.3074  0.1024  0.0150
 2330DPPE   NH349813  35.291  22.645   7.377  0.1328  0.0134 -0.3763
 2330DPPE   PO449814  34.963  22.867   7.516 -0.0646 -0.1901  0.1652
 2330DPPE   GL149815  35.226  23.069   7.774 -0.0237  0.0476 -0.1953
 2330DPPE   GL249816  35.130  23.421   7.773 -0.2062  0.0326  0.1248
 2330DPPE   C1A49817  35.702  22.947   7.835  0.1770  0.0228 -0.1206
 2330DPPE   C2A49818  35.974  22.837   8.210  0.3471 -0.2148 -0.0850
 2330DPPE   C3A49819  36.460  22.740   8.189 -0.2645 -0.1190  0.1270
 2330DPPE   C4A49820  36.637  22.436   8.368  0.0605 -0.0027 -0.2854
 2330DPPE   C1B49821  35.532  23.653   7.838  0.2542  0.1034  0.0743
 2330DPPE   C2B49822  35.844  23.983   7.699 -0.0193  0.1650  0.3151
 2330DPPE   C3B49823  36.021  24.256   7.440  0.1726  0.1580 -0.1096
 2330DPPE   C4B49824  36.259  24.527   7.173  0.0742  0.1009  0.0648
 2331DPPE   NH349825   2.018  12.592   6.014  0.0738 -0.0710  0.0609
 2331DPPE   PO449826   2.215  12.502   5.667  0.1763  0.0195 -0.2756
 2331DPPE   GL149827   2.740  12.441   5.671 -0.0951 -0.0428  0.1815
 2331DPPE   GL249828   2.846  12.183   5.944 -0.1639  0.3237  0.1238
 2331DPPE   C1A49829   3.165  12.423   5.421  0.0943  0.2278  0.1653
 2331DPPE   C2A49830   3.505  12.130   5.275 -0.1185 -0.4671  0.1716
 2331DPPE   C3A49831   3.778  12.195   5.526  0.2421 -0.0741  0.2808
 2331DPPE   C4A49832   4.177  12.024   5.759  0.1081 -0.0263  0.1291
 2331DPPE   C1B49833   3.331  12.224   5.832  0.1971 -0.0517 -0.1064
 2331DPPE   C2B49834   3.685  11.846   5.781 -0.0459  0.1677  0.1114
 2331DPPE   C3B49835   4.052  11.599   5.604  0.1788  0.1606 -0.0982
 2331DPPE   C4B49836   4.117  11.670   5.129  0.0115 -0.1401 -0.5303
 2332DPPE   NH349837   2.694  11.843  13.712 -0.2209  0.1490  0.1826
 2332DPPE   PO449838   2.988  11.625  13.899  0.5195 -0.0077 -0.0556
 2332DPPE   GL149839   3.314  11.465  13.907 -0.0070  0.0402 -0.0017
 2332DPPE   GL249840   3.373  11.312  13.650 -0.1206 -0.2176  0.0240
 2332DPPE   C1A49841   3.666  11.652  13.923  0.0182  0.0256  0.3779
 2332DPPE   C2A49842   3.972  11.879  13.727  0.0040 -0.7646  0.0553
 2332DPPE   C3A49843   3.953  12.087  13.351  0.0562  0.0857  0.0469
 2332DPPE   C4A49844   3.642  11.994  13.105 -0.1691 -0.0831  0.3016
 2332DPPE   C1B49845   3.503  10.989  13.963 -0.0223  0.2806 -0.1805
 2332DPPE   C2B49846   3.349  10.674  14.236  0.1237 -0.0923  0.0707
 2332DPPE   C3B49847   3.178  10.450  14.586  0.1456  0.1178 -0.2173
 2332DPPE   C4B49848   3.251  10.168  14.930  0.4222  0.1662 -0.1951
 2333DPPE   NH349849   2.793  10.751  11.866  0.0961  0.4294  0.3239
 2333DPPE   PO449850   3.193  10.938  12.035 -0.2253  0.0091 -0.0623
 2333DPPE   GL149851   3.596  10.947  12.136 -0.0352  0.0203  0.2266
 2333DPPE   GL249852   3.647  10.954  11.715  0.2844 -0.0130  0.3879
 2333DPPE   C1A49853   4.012  10.852  12.182 -0.0514  0.1066  0.0538
 2333DPPE   C2A49854   4.204  10.554  12.319 -0.0361 -0.1131  0.0975
 2333DPPE   C3A49855   4.113  10.063  12.288 -0.1893 -0.1827 -0.2003
 2333DPPE   C4A49856   4.087   9.736  12.113 -0.3121  0.2904 -0.1995
 2333DPPE   C1B49857   3.783  10.535  11.685  0.0374  0.1048  0.1735
 2333DPPE   C2B49858   4.097  10.392  11.813  0.1824  0.0812  0.2144
 2333DPPE   C3B49859   4.466  10.082  11.924 -0.0152 -0.0625  0.0668
 2333DPPE   C4B49860   5.040  10.001  11.949  0.0367  0.2703  0.0457
 2334DPPE   NH349861   0.101  14.607   5.180 -0.1852  0.0505 -0.1419
 2334DPPE   PO449862  -0.157  14.364   5.418 -0.0475  0.0325  0.2438
 2334DPPE   GL149863   0.078  14.633   5.669  0.0808  0.0220 -0.0280
 2334DPPE   GL249864  -0.059  14.896   5.924  0.2144 -0.0126  0.2364
 2334DPPE   C1A49865   0.413  14.953   5.763  0.1326  0.0102 -0.1294
 2334DPPE   C2A49866   0.812  15.091   5.891  0.1303  0.0364 -0.2044
 2334DPPE   C3A49867   0.979  15.440   6.137  0.2566  0.2000 -0.0657
 2334DPPE   C4A49868   1.029  15.967   6.236  0.4401  0.0115 -0.0612
 2334DPPE   C1B49869   0.166  15.188   6.177 -0.1714 -0.1662 -0.6040
 2334DPPE   C2B49870   0.565  15.311   6.304  0.0217  0.1842 -0.1702
 2334DPPE   C3B49871   0.710  15.456   6.547  0.2257  0.3287  0.2205
 2334DPPE   C4B49872   1.145  15.707   6.642  0.1186  0.2234  0.0788
 2335DPPE   NH349873   0.917  13.742   4.606 -0.0499  0.0256  0.1443
 2335DPPE   PO449874   0.856  14.203   4.601  0.1476  0.0901  0.1491
 2335DPPE   GL149875   1.084  14.390   4.909  0.2385  0.3573  0.1436
 2335DPPE   GL249876   1.078  14.659   4.838  0.1592  0.0929 -0.1664
 2335DPPE   C1A49877   1.350  14.639   5.235  0.3197 -0.0040  0.2082
 2335DPPE   C2A49878   1.616  14.970   5.445  0.0255 -0.2026 -0.0886
 2335DPPE   C3A49879   1.887  15.285   5.406 -0.1062 -0.2033 -0.3149
 2335DPPE   C4A49880   2.170  15.443   5.757  0.0477 -0.1416  0.0010
 2335DPPE   C1B49881   1.504  14.975   4.953 -0.2533  0.0576  0.0261
 2335DPPE   C2B49882   1.930  15.226   4.839 -0.0057 -0.1551  0.0763
 2335DPPE   C3B49883   2.116  15.302   4.398 -0.1685  0.0663 -0.3786
 2335DPPE   C4B49884   2.058  15.035   4.107  0.0682  0.1700 -0.2115
 2336DPPE   NH349885  35.289  15.546  10.681 -0.0273  0.0746  0.1282
 2336DPPE   PO449886  35.484  15.692  11.100 -0.1582  0.3023  0.0282
 2336DPPE   GL149887  35.851  15.945  11.121 -0.2476 -0.0141 -0.1579
 2336DPPE   GL249888  35.957  16.080  11.503  0.2281  0.0290  0.1073
 2336DPPE   C1A49889  36.331  15.995  11.096 -0.0289  0.2977  0.1434
 2336DPPE   C2A49890  36.717  16.076  11.068  0.1301 -0.1373  0.1201
 2336DPPE   C3A49891  37.059  16.154  10.977 -0.0673 -0.0140  0.0383
 2336DPPE   C4A49892  37.444  16.106  10.949  0.0769  0.1312  0.0854
 2336DPPE   C1B49893  36.154  16.456  11.591  0.0362 -0.0439 -0.1780
 2336DPPE   C2B49894  36.510  16.760  11.584  0.2415  0.2074 -0.1989
 2336DPPE   C3B49895  36.833  17.057  11.567 -0.2562  0.2172 -0.0904
 2336DPPE   C4B49896  37.265  16.974  11.447  0.0927  0.2729  0.0677
 2337DPPE   NH349897   3.216  10.979  10.859  0.1455  0.0692  0.0305
 2337DPPE   PO449898   3.257  10.964  10.343  0.2809  0.0703 -0.0939
 2337DPPE   GL149899   3.648  11.112  10.473  0.1813  0.0773 -0.0973
 2337DPPE   GL249900   3.669  10.864  10.692  0.2055  0.0710 -0.0910
 2337DPPE   C1A49901   4.119  11.002  10.362 -0.2510  0.4331 -0.1632
 2337DPPE   C2A49902   4.533  11.151  10.538  0.0195 -0.4184 -0.0720
 2337DPPE   C3A49903   4.792  11.365  10.369 -0.1605  0.2537 -0.1670
 2337DPPE   C4A49904   5.120  11.678  10.346  0.1549 -0.3619 -0.0397
 2337DPPE   C1B49905   4.154  10.775  10.760  0.0110  0.2730 -0.2453
 2337DPPE   C2B49906   4.627  10.697  10.834 -0.0739 -0.2532 -0.1599
 2337DPPE   C3B49907   4.907  10.806  10.540 -0.0241 -0.3379 -0.0847
 2337DPPE   C4B49908   5.268  10.781  10.267 -0.2395  0.1685 -0.1420
 2338DPPE   NH349909   2.111  10.598   9.681 -0.2362 -0.1418  0.0132
 2338DPPE   PO449910   2.406  10.127   9.813  0.2191  0.2510  0.0451
 2338DPPE   GL149911   2.254   9.736   9.782 -0.0822 -0.4041 -0.0937
 2338DPPE   GL249912   2.048   9.704   9.612  0.0097  0.0814  0.0435
 2338DPPE   C1A49913   2.133   9.345   9.952  0.0809 -0.4163 -0.2971
 2338DPPE   C2A49914   2.167   8.940   9.968 -0.1438  0.2266 -0.2561
 2338DPPE   C3A49915   2.189   8.521   9.903  0.0893  0.0351 -0.0861
 2338DPPE   C4A49916   2.265   8.273   9.588  0.2180 -0.2254  0.0602
 2338DPPE   C1B49917   1.846   9.289   9.540  0.3286 -0.0146 -0.1147
 2338DPPE   C2B49918   1.660   8.930   9.568  0.4511  0.0700  0.1100
 2338DPPE   C3B49919   1.617   8.513   9.571 -0.1456  0.1152 -0.2205
 2338DPPE   C4B49920   1.740   8.219   9.850  0.1793 -0.1219 -0.1244
 2339DPPE   NH349921  34.506  16.536   9.947  0.0553  0.0039  0.0083
 2339DPPE   PO449922  34.210  16.440  10.255 -0.0455  0.0749 -0.0817
 2339DPPE   GL149923  33.910  16.215  10.540  0.2805  0.1411  0.2052
 2339DPPE   GL249924  33.827  16.202  10.828  0.3839 -0.1506  0.4291
 2339DPPE   C1A49925  33.528  15.999  10.467 -0.0543  0.0934  0.1033
 2339DPPE   C2A49926  33.176  15.661  10.483 -0.2118 -0.2137  0.1194
 2339DPPE   C3A49927  32.754  15.390  10.492  0.2307 -0.1306  0.2577
 2339DPPE   C4A49928  32.340  15.354  10.691 -0.1023  0.0450 -0.6180
 2339DPPE   C1B49929  33.402  16.001  10.943 -0.3453  0.1916 -0.2000
 2339DPPE   C2B49930  33.267  15.684  11.182 -0.1705  0.0295  0.0950
 2339DPPE   C3B49931  33.075  15.377  11.562 -0.0923  0.0950 -0.0722
 2339DPPE   C4B49932  32.817  15.077  11.646  0.0032 -0.2497  0.3415
 2340DPPE   NH349933  34.774  17.402   6.943 -0.1757 -0.2523  0.1319
 2340DPPE   PO449934  34.689  17.644   7.280 -0.1177  0.1600  0.1342
 2340DPPE   GL149935  34.293  17.462   7.097  0.1802 -0.3159 -0.1351
 2340DPPE   GL249936  34.291  17.588   6.886  0.1720 -0.1257  0.4446
 2340DPPE   C1A49937  33.881  17.589   7.177 -0.1732  0.0281  0.2005
 2340DPPE   C2A49938  33.552  17.432   7.047 -0.1546 -0.0966 -0.1811
 2340DPPE   C3A49939  33.175  17.590   6.961  0.0344  0.0768 -0.3736
 2340DPPE   C4A49940  32.814  17.687   6.679  0.3756 -0.0097 -0.0435
 2340DPPE   C1B49941  33.925  17.473   6.628  0.0589  0.1616 -0.1890
 2340DPPE   C2B49942  33.526  17.377   6.469  0.4207  0.1683 -0.2141
 2340DPPE   C3B49943  33.258  17.067   6.321 -0.2127  0.1361 -0.0522
 2340DPPE   C4B49944  32.991  16.699   6.383  0.1286  0.2104  0.0226
 2341DPPE   NH349945  33.038  18.982  12.373 -0.1300 -0.1823 -0.1974
 2341DPPE   PO449946  33.259  18.608  12.644  0.4446  0.2559 -0.1917
 2341DPPE   GL149947  32.852  18.801  12.837  0.0582  0.3112 -0.0545
 2341DPPE   GL249948  32.605  18.601  12.568  0.4522  0.1288  0.1169
 2341DPPE   C1A49949  32.475  18.818  13.126 -0.1130  0.0142  0.2163
 2341DPPE   C2A49950  32.018  18.644  13.247 -0.1580  0.3379  0.2946
 2341DPPE   C3A49951  31.616  18.692  13.520  0.0010  0.1656 -0.0663
 2341DPPE   C4A49952  31.190  18.472  13.401  0.1470  0.1760  0.1424
 2341DPPE   C1B49953  32.287  18.377  12.325  0.0824  0.1496 -0.1982
 2341DPPE   C2B49954  31.847  18.290  12.239 -0.0728  0.1827 -0.2508
 2341DPPE   C3B49955  31.464  18.193  12.008  0.1572  0.1354  0.0020
 2341DPPE   C4B49956  30.955  18.273  11.885  0.0243  0.2641  0.1954
 2342DPPE   NH349957  33.364  22.486  10.260 -0.0414  0.0326 -0.0181
 2342DPPE   PO449958  32.966  22.372  10.589  0.0128  0.1564  0.1751
 2342DPPE   GL149959  32.527  22.305  10.469  0.0590 -0.2356  0.0082
 2342DPPE   GL249960  32.486  22.656  10.357  0.0230 -0.0924  0.0765
 2342DPPE   C1A49961  32.158  22.119  10.342 -0.1754 -0.3174 -0.0334
 2342DPPE   C2A49962  31.756  22.274  10.378  0.0983 -0.1897  0.1445
 2342DPPE   C3A49963  31.214  22.049  10.502 -0.0942 -0.6457  0.2144
 2342DPPE   C4A49964  31.117  21.562  10.455  0.1010  0.0480 -0.1066
 2342DPPE   C1B49965  32.149  22.970  10.134  0.0867  0.3005 -0.0008
 2342DPPE   C2B49966  31.760  22.884   9.805 -0.1863 -0.2477  0.1501
 2342DPPE   C3B49967  31.425  23.069   9.527 -0.1308  0.1891 -0.0893
 2342DPPE   C4B49968  31.139  23.288   9.376 -0.2744  0.2232  0.0326
 2343DPPE   NH349969  34.699  19.148   7.780  0.2056  0.2110 -0.2043
 2343DPPE   PO449970  34.889  18.744   7.687  0.1901  0.2742 -0.0023
 2343DPPE   GL149971  35.119  19.103   7.511 -0.0009 -0.1945 -0.0574
 2343DPPE   GL249972  35.477  19.044   7.404  0.0184  0.3753  0.1143
 2343DPPE   C1A49973  35.326  19.541   7.445  0.3084 -0.3189 -0.2412
 2343DPPE   C2A49974  35.684  19.697   7.670 -0.1473  0.1554  0.0224
 2343DPPE   C3A49975  35.928  19.635   7.938  0.0158  0.3393  0.0780
 2343DPPE   C4A49976  36.260  19.443   8.160 -0.1908  0.1165  0.0702
 2343DPPE   C1B49977  35.879  19.249   7.418 -0.1391  0.1512  0.0750
 2343DPPE   C2B49978  36.351  19.142   7.584 -0.1805 -0.1519  0.0152
 2343DPPE   C3B49979  36.736  19.099   7.858  0.2109 -0.0695  0.0625
 2343DPPE   C4B49980  37.043  19.263   7.770 -0.1298 -0.1721 -0.0974
 2344DPPE   NH349981  37.832  14.639   6.674  0.0346  0.2829  0.1279
 2344DPPE   PO449982  37.967  14.792   6.294 -0.2482 -0.4233 -0.1266
 2344DPPE   GL149983  38.071  15.146   6.335 -0.0703  0.0135 -0.2538
 2344DPPE   GL249984  38.013  15.451   6.247  0.0381 -0.0035 -0.1416
 2344DPPE   C1A49985  38.323  15.224   6.603  0.1781  0.0417 -0.0373
 2344DPPE   C2A49986  38.551  15.310   7.012 -0.4151 -0.3564 -0.0014
 2344DPPE   C3A49987  39.014  15.239   7.137 -0.1104 -0.2303 -0.3303
 2344DPPE   C4A49988  39.272  15.504   7.304 -0.0833 -0.0515  0.0027
 2344DPPE   C1B49989  38.094  15.644   6.556  0.0157 -0.0109 -0.0926
 2344DPPE   C2B49990  38.108  15.958   6.696  0.2108  0.2212  0.2071
 2344DPPE   C3B49991  38.061  16.408   6.914 -0.0851  0.0214 -0.1710
 2344DPPE   C4B49992  38.347  16.777   6.903  0.0807 -0.3306  0.1683
 2345DPPE   NH349993  35.261  19.453  15.742 -0.0618  0.4190 -0.1097
 2345DPPE   PO449994  35.361  19.335  15.321  0.1478  0.0544 -0.0281
 2345DPPE   GL149995  35.683  19.458  15.024  0.2240  0.2726  0.0559
 2345DPPE   GL249996  35.885  19.701  15.179  0.3010 -0.0860  0.0962
 2345DPPE   C1A49997  36.052  19.571  14.728 -0.1198  0.1307 -0.0945
 2345DPPE   C2A49998  36.426  19.548  14.435  0.0538 -0.1447  0.0374
 2345DPPE   C3A49999  36.775  19.892  14.198 -0.0828  0.0235  0.0402
 2345DPPE   C4A50000  37.036  20.238  14.176  0.1323 -0.0995 -0.0617
 2345DPPE   C1B50001  36.227  19.913  15.134  0.3223  0.0215 -0.1764
 2345DPPE   C2B50002  36.526  19.890  15.370 -0.1974  0.0762  0.0028
 2345DPPE   C3B50003  36.923  20.058  15.500  0.0882  0.3793  0.0361
 2345DPPE   C4B50004  37.247  20.327  15.639 -0.0495 -0.1080 -0.2442
 2346DPPE   NH350005  34.130  21.516  11.139  0.0789  0.2902  0.4023
 2346DPPE   PO450006  34.390  21.989  11.298  0.0788 -0.2602 -0.1963
 2346DPPE   GL150007  34.781  21.808  11.486 -0.0235  0.1843  0.1522
 2346DPPE   GL250008  34.864  21.742  11.910 -0.2581  0.1410 -0.1568
 2346DPPE   C1A50009  35.221  21.845  11.304 -0.0864  0.3347  0.0444
 2346DPPE   C2A50010  35.614  21.888  11.289 -0.0934  0.0240 -0.4158
 2346DPPE   C3A50011  35.967  21.889  11.060  0.2132  0.0851 -0.2810
 2346DPPE   C4A50012  36.393  21.925  10.776  0.0531  0.0495  0.3866
 2346DPPE   C1B50013  35.183  21.543  11.912 -0.3088 -0.3060 -0.0474
 2346DPPE   C2B50014  35.499  21.329  12.074  0.4809  0.0437 -0.0677
 2346DPPE   C3B50015  35.932  21.290  12.052 -0.0385  0.0688 -0.0793
 2346DPPE   C4B50016  36.294  21.347  11.953 -0.0812 -0.0253  0.0006
 2347DPPE   NH350017   2.510  11.512   5.219 -0.0599  0.1928 -0.2974
 2347DPPE   PO450018   2.364  11.332   4.865  0.2075 -0.3344 -0.1336
 2347DPPE   GL150019   2.051  10.971   4.706 -0.3969  0.3201  0.0961
 2347DPPE   GL250020   1.785  11.044   4.482  0.2231 -0.0712  0.2089
 2347DPPE   C1A50021   2.019  10.645   4.281  0.3014 -0.0440  0.2398
 2347DPPE   C2A50022   1.862  10.206   3.935 -0.1271 -0.0996  0.2585
 2347DPPE   C3A50023   1.500  10.072   3.821  0.1035 -0.1019  0.0076
 2347DPPE   C4A50024   1.102  10.108   4.039 -0.0124  0.0602 -0.2740
 2347DPPE   C1B50025   1.492  10.665   4.305  0.0518 -0.0378  0.0547
 2347DPPE   C2B50026   1.211  10.399   4.500 -0.0120  0.1519 -0.0246
 2347DPPE   C3B50027   1.044   9.959   4.577 -0.4156  0.4380  0.2495
 2347DPPE   C4B50028   0.669   9.836   4.759  0.0250  0.0291 -0.0528
 2348DPPE   NH350029   2.596  10.714  12.939 -0.0956 -0.2400  0.2723
 2348DPPE   PO450030   2.799  10.732  12.438 -0.0082  0.0516 -0.1011
 2348DPPE   GL150031   2.716  10.288  12.570 -0.2460 -0.0143 -0.1903
 2348DPPE   GL250032   2.520  10.307  12.683  0.2015  0.0505  0.0906
 2348DPPE   C1A50033   2.840   9.897  12.553  0.0174  0.1000 -0.1572
 2348DPPE   C2A50034   2.861   9.465  12.494 -0.2529  0.2330 -0.3468
 2348DPPE   C3A50035   2.791   9.105  12.762  0.3057 -0.0573  0.0630
 2348DPPE   C4A50036   2.420   8.932  12.944  0.0001  0.0236 -0.1740
 2348DPPE   C1B50037   2.364   9.918  12.775  0.1671  0.1381 -0.0783
 2348DPPE   C2B50038   2.505   9.692  13.147  0.0239 -0.1872 -0.2246
 2348DPPE   C3B50039   2.547   9.383  13.304  0.2162  0.0495 -0.3261
 2348DPPE   C4B50040   2.857   9.038  13.490  0.0072  0.0470 -0.0498
 2349DPPE   NH350041  33.600  23.664   8.412 -0.3077 -0.0166  0.0270
 2349DPPE   PO450042  33.938  23.897   8.417  0.0967 -0.2183 -0.1291
 2349DPPE   GL150043  34.177  24.203   8.414  0.1233 -0.0110 -0.3964
 2349DPPE   GL250044  34.051  24.247   8.764 -0.2834  0.2585 -0.1722
 2349DPPE   C1A50045  34.358  24.624   8.531  0.1926 -0.1161  0.1468
 2349DPPE   C2A50046  34.247  24.903   8.858 -0.0456  0.2363 -0.0502
 2349DPPE   C3A50047  34.114  25.222   9.102  0.0362  0.0903  0.0814
 2349DPPE   C4A50048  33.943  25.636   9.111 -0.0259 -0.1568 -0.0091
 2349DPPE   C1B50049  33.801  24.638   8.728 -0.1285  0.0649  0.1437
 2349DPPE   C2B50050  33.486  24.537   8.536 -0.0405 -0.1892 -0.0480
 2349DPPE   C3B50051  33.014  24.628   8.393  0.0419  0.1576  0.0268
 2349DPPE   C4B50052  32.692  24.992   8.392  0.0358 -0.2593  0.3021
 2350DPPE   NH350053   2.194  11.301   6.943 -0.0285  0.1596  0.0405
 2350DPPE   PO450054   2.006  11.354   7.390  0.1101 -0.0141 -0.4506
 2350DPPE   GL150055   2.520  11.427   7.358 -0.0164  0.0221  0.3340
 2350DPPE   GL250056   2.539  11.794   7.092  0.0987  0.2191 -0.1303
 2350DPPE   C1A50057   3.051  11.393   7.324  0.4763  0.2385 -0.2028
 2350DPPE   C2A50058   3.558  11.277   7.352 -0.0553 -0.5186  0.0086
 2350DPPE   C3A50059   3.910  11.391   7.190 -0.0449 -0.2126  0.2832
 2350DPPE   C4A50060   4.339  11.464   6.998 -0.0112  0.0523  0.0591
 2350DPPE   C1B50061   2.942  11.828   6.964  0.1650 -0.0448 -0.0814
 2350DPPE   C2B50062   3.453  11.701   7.039  0.0676  0.2035 -0.1864
 2350DPPE   C3B50063   3.671  11.355   6.767 -0.0537 -0.0205 -0.1395
 2350DPPE   C4B50064   3.988  11.292   6.540 -0.3630  0.0584  0.0490
 2351DPPE   NH350065  33.317  22.341   6.546 -0.3519 -0.0860  0.1608
 2351DPPE   PO450066  33.374  22.659   6.799  0.0959  0.0203 -0.1440
 2351DPPE   GL150067  33.230  22.938   6.629  0.1735  0.0135  0.1564
 2351DPPE   GL250068  33.014  22.725   6.444  0.0237 -0.0282  0.0292
 2351DPPE   C1A50069  32.909  23.198   6.517 -0.0590 -0.0085  0.3895
 2351DPPE   C2A50070  32.506  23.309   6.411  0.2078 -0.1093  0.2244
 2351DPPE   C3A50071  32.094  23.686   6.308  0.1538  0.2219  0.1220
 2351DPPE   C4A50072  32.213  24.131   6.434  0.1405  0.1833 -0.0491
 2351DPPE   C1B50073  32.863  22.721   6.069 -0.0236 -0.0352 -0.2517
 2351DPPE   C2B50074  33.065  22.789   5.683 -0.2018  0.0385  0.2197
 2351DPPE   C3B50075  32.898  22.600   5.310 -0.1304  0.0181 -0.0694
 2351DPPE   C4B50076  32.737  22.649   4.910  0.0799 -0.2331  0.0618
 2352DPPE   NH350077   0.112  13.475   4.381 -0.3162 -0.0744 -0.1902
 2352DPPE   PO450078   0.181  13.038   4.244 -0.1120 -0.2206 -0.0794
 2352DPPE   GL150079   0.057  12.818   3.876 -0.1154  0.3098 -0.0201
 2352DPPE   GL250080   0.014  12.604   3.984  0.1045  0.0130  0.0042
 2352DPPE   C1A50081  -0.081  12.692   3.448  0.0575 -0.1051  0.0321
 2352DPPE   C2A50082  -0.271  12.725   2.999 -0.1610  0.3326  0.0780
 2352DPPE   C3A50083  -0.186  12.839   2.591 -0.3005  0.0645  0.0203
 2352DPPE   C4A50084  -0.171  13.220   2.142  0.0801  0.0823  0.0786
 2352DPPE   C1B50085  -0.344  12.376   3.904 -0.1486 -0.1119  0.0488
 2352DPPE   C2B50086  -0.708  12.259   4.129  0.1630 -0.5580 -0.1974
 2352DPPE   C3B50087  -0.933  11.815   4.249  0.0550  0.1929  0.2023
 2352DPPE   C4B50088  -0.987  11.418   4.000 -0.1657 -0.1219 -0.0662
 2353DPPE   NH350089  35.261  19.730   6.843  0.0462 -0.0155 -0.1280
 2353DPPE   PO450090  34.930  20.060   6.955  0.0191  0.2344 -0.1786
 2353DPPE   GL150091  35.298  20.143   7.111 -0.0734 -0.2434 -0.2002
 2353DPPE   GL250092  35.485  20.405   7.034 -0.0100  0.0248  0.0910
 2353DPPE   C1A50093  35.594  20.166   7.444  0.0091 -0.1284  0.1536
 2353DPPE   C2A50094  35.979  20.119   7.555 -0.4397 -0.0784  0.1929
 2353DPPE   C3A50095  36.357  20.000   7.869 -0.0503 -0.1147  0.0344
 2353DPPE   C4A50096  36.578  19.913   8.199 -0.0121  0.1242 -0.0955
 2353DPPE   C1B50097  35.621  20.743   6.926 -0.1458  0.6283 -0.1329
 2353DPPE   C2B50098  36.054  20.940   6.916  0.3426 -0.1259 -0.0671
 2353DPPE   C3B50099  36.263  21.109   7.252 -0.1384 -0.2246  0.0587
 2353DPPE   C4B50100  36.064  21.298   7.609  0.1103 -0.0902 -0.1947
 2354DPPE   NH350101  34.751  23.885   7.250  0.0771 -0.0640  0.0072
 2354DPPE   PO450102  34.653  24.185   7.427  0.0618  0.1328 -0.2497
 2354DPPE   GL150103  34.851  24.457   7.267 -0.1085 -0.2367 -0.1709
 2354DPPE   GL250104  35.108  24.242   7.263 -0.2605 -0.0622  0.0509
 2354DPPE   C1A50105  35.043  24.796   7.353  0.0214  0.0239 -0.1614
 2354DPPE   C2A50106  35.481  24.967   7.348 -0.0303  0.1717  0.0437
 2354DPPE   C3A50107  35.989  24.969   7.373  0.2581  0.0277  0.0927
 2354DPPE   C4A50108  36.363  24.714   7.672 -0.0434  0.3040 -0.0264
 2354DPPE   C1B50109  35.446  24.473   7.439  0.2448 -0.1681 -0.0125
 2354DPPE   C2B50110  35.776  24.657   7.661  0.1225  0.1458  0.2585
 2354DPPE   C3B50111  36.028  24.880   7.962  0.5626 -0.1530 -0.0954
 2354DPPE   C4B50112  35.849  25.166   8.184  0.1417 -0.1710 -0.0833
 2355DPPE   NH350113  37.358  12.659  13.968 -0.2004 -0.1978 -0.3847
 2355DPPE   PO450114  37.142  12.578  13.535 -0.0763  0.0678 -0.0439
 2355DPPE   GL150115  36.935  12.355  13.930  0.0900  0.2240 -0.2086
 2355DPPE   GL250116  37.221  12.145  13.946 -0.1064  0.0157 -0.1553
 2355DPPE   C1A50117  36.444  12.166  14.102  0.1940 -0.0055 -0.1936
 2355DPPE   C2A50118  36.046  12.076  14.148 -0.4429  0.0634  0.1277
 2355DPPE   C3A50119  35.647  11.899  14.136  0.0127  0.1243 -0.0221
 2355DPPE   C4A50120  35.275  11.921  14.367 -0.0116  0.0615 -0.2099
 2355DPPE   C1B50121  36.872  11.877  14.065  0.2637 -0.5295 -0.0972
 2355DPPE   C2B50122  36.426  11.681  14.128 -0.2517  0.1798  0.0792
 2355DPPE   C3B50123  36.110  11.523  13.915  0.0310 -0.2391 -0.2359
 2355DPPE   C4B50124  35.828  11.339  14.102 -0.1143  0.6370 -0.0888
 2356DPPE   NH350125   1.180  13.355  13.768  0.0181  0.1424 -0.1246
 2356DPPE   PO450126   0.904  13.234  13.497 -0.2018 -0.1816  0.1916
 2356DPPE   GL150127   0.970  13.553  13.236  0.0619  0.0642  0.0012
 2356DPPE   GL250128   1.269  13.610  13.322 -0.1994  0.3842  0.0046
 2356DPPE   C1A50129   1.096  13.974  13.051 -0.1665  0.0445 -0.1272
 2356DPPE   C2A50130   1.325  14.348  13.144 -0.0089  0.2656 -0.1086
 2356DPPE   C3A50131   1.539  14.755  13.123  0.1277  0.0804 -0.1588
 2356DPPE   C4A50132   1.739  14.978  12.830 -0.2149 -0.0475 -0.0641
 2356DPPE   C1B50133   1.298  13.970  13.496 -0.0073  0.2432 -0.1252
 2356DPPE   C2B50134   1.521  14.255  13.626 -0.0963 -0.3335  0.0808
 2356DPPE   C3B50135   1.705  14.777  13.638 -0.1109  0.3702 -0.2497
 2356DPPE   C4B50136   1.896  15.037  13.827 -0.3249  0.0040  0.0054
 2357DPPE   NH350137  36.136  15.335  15.704 -0.2629 -0.1637  0.1465
 2357DPPE   PO450138  35.751  15.140  15.747 -0.2344 -0.2016  0.0094
 2357DPPE   GL150139  35.623  14.717  15.829 -0.4087 -0.1560 -0.3259
 2357DPPE   GL250140  35.701  14.334  15.640  0.1123  0.1786  0.0356
 2357DPPE   C1A50141  35.300  14.371  15.946  0.2153 -0.0921  0.1600
 2357DPPE   C2A50142  35.060  13.914  16.103 -0.0092  0.2510  0.2971
 2357DPPE   C3A50143  34.898  13.512  15.937  0.2733 -0.0114 -0.1354
 2357DPPE   C4A50144  34.596  13.351  15.944  0.0006  0.0845 -0.2070
 2357DPPE   C1B50145  35.527  13.962  15.810  0.0490  0.3722  0.1884
 2357DPPE   C2B50146  35.407  13.577  16.040  0.0372  0.2403  0.1057
 2357DPPE   C3B50147  35.199  13.179  16.137  0.0308  0.2597 -0.0482
 2357DPPE   C4B50148  35.237  12.717  16.151  0.2818  0.1509 -0.2580
 2358DPPE   NH350149   1.524  13.842   3.968 -0.3070  0.1163 -0.0090
 2358DPPE   PO450150   1.634  13.687   4.340 -0.0031  0.1564 -0.1098
 2358DPPE   GL150151   2.047  13.657   4.531  0.1871 -0.1280 -0.3915
 2358DPPE   GL250152   1.988  13.560   4.846 -0.0261  0.0298  0.2706
 2358DPPE   C1A50153   2.414  13.874   4.514 -0.1777  0.1269 -0.2597
 2358DPPE   C2A50154   2.867  14.055   4.528 -0.2065 -0.2060 -0.3043
 2358DPPE   C3A50155   3.330  14.200   4.743  0.2013  0.0039 -0.2708
 2358DPPE   C4A50156   3.642  14.520   4.900  0.0892 -0.0831 -0.0836
 2358DPPE   C1B50157   2.334  13.648   5.040 -0.1579  0.0625 -0.1459
 2358DPPE   C2B50158   2.739  13.828   5.056  0.3996 -0.0202 -0.0170
 2358DPPE   C3B50159   3.099  13.710   4.890  0.0378 -0.1130  0.0628
 2358DPPE   C4B50160   3.219  13.369   4.627  0.4619 -0.0648 -0.1021
 2359DPPE   NH350161   0.084  10.936  13.504  0.0786 -0.0169  0.3541
 2359DPPE   PO450162  -0.111  11.290  13.579  0.1637  0.0481 -0.1229
 2359DPPE   GL150163  -0.311  11.051  13.883  0.4053  0.0697 -0.1227
 2359DPPE   GL250164  -0.412  10.874  13.637  0.1744  0.1502 -0.0027
 2359DPPE   C1A50165  -0.221  10.791  14.267  0.0762 -0.0175 -0.1352
 2359DPPE   C2A50166  -0.213  10.468  14.400 -0.0966  0.0078  0.2824
 2359DPPE   C3A50167  -0.451  10.136  14.155  0.0408  0.4090 -0.0123
 2359DPPE   C4A50168  -0.695   9.751  13.936  0.0813 -0.0968 -0.0814
 2359DPPE   C1B50169  -0.710  10.631  14.000  0.4584  0.0495  0.0056
 2359DPPE   C2B50170  -0.923  10.223  14.107 -0.0395 -0.0981 -0.0689
 2359DPPE   C3B50171  -0.894   9.854  14.396  0.2242 -0.2783  0.1923
 2359DPPE   C4B50172  -1.031   9.829  14.800  0.1098  0.3813  0.1025
 2360DPPE   NH350173  35.353  17.666   8.378  0.1274 -0.2102  0.2876
 2360DPPE   PO450174  35.002  17.916   8.136 -0.0675 -0.5740 -0.1024
 2360DPPE   GL150175  35.225  18.221   8.303 -0.0419 -0.0490  0.1102
 2360DPPE   GL250176  35.032  18.358   8.577  0.0715  0.0954 -0.2026
 2360DPPE   C1A50177  35.495  18.544   8.180 -0.0766  0.1317  0.0997
 2360DPPE   C2A50178  35.612  18.763   7.856  0.3490  0.0471 -0.3973
 2360DPPE   C3A50179  35.976  18.756   7.642  0.1519 -0.0623 -0.5028
 2360DPPE   C4A50180  36.120  18.854   7.267 -0.2534 -0.1577  0.0806
 2360DPPE   C1B50181  35.348  18.664   8.716 -0.2228 -0.2568  0.1980
 2360DPPE   C2B50182  35.770  18.830   8.545 -0.4904 -0.0563  0.0205
 2360DPPE   C3B50183  35.810  19.173   8.333  0.0942 -0.6163  0.0693
 2360DPPE   C4B50184  35.952  19.150   7.892  0.1392 -0.3510 -0.3116
 2361DPPE   NH350185   0.717  14.367  15.799 -0.2287 -0.2587  0.1692
 2361DPPE   PO450186   0.898  14.065  16.078 -0.0299  0.0819 -0.5246
 2361DPPE   GL150187   1.180  14.376  15.976 -0.0688  0.0684  0.1766
 2361DPPE   GL250188   1.309  14.517  16.190  0.1044  0.2730 -0.0177
 2361DPPE   C1A50189   1.566  14.491  15.674 -0.0142  0.2031  0.0624
 2361DPPE   C2A50190   1.944  14.535  15.789 -0.0033  0.2534 -0.0247
 2361DPPE   C3A50191   2.155  14.752  15.947 -0.0079  0.2076 -0.0700
 2361DPPE   C4A50192   2.500  14.984  16.082 -0.0279  0.1535 -0.0297
 2361DPPE   C1B50193   1.620  14.879  16.071  0.3397  0.0956  0.1352
 2361DPPE   C2B50194   1.999  15.203  16.106  0.0378  0.4649  0.0577
 2361DPPE   C3B50195   2.254  15.391  15.965 -0.1138  0.0230  0.1334
 2361DPPE   C4B50196   2.389  15.698  16.021 -0.1979  0.0696  0.2986
 2362DPPE   NH350197  34.572  18.652   5.468 -0.0255  0.2494  0.2916
 2362DPPE   PO450198  34.678  18.295   5.099  0.0139 -0.3201 -0.0449
 2362DPPE   GL150199  34.256  18.293   4.807  0.0099 -0.0232 -0.0562
 2362DPPE   GL250200  34.134  18.536   4.607  0.0930 -0.0389 -0.2698
 2362DPPE   C1A50201  33.838  18.124   4.582  0.0736 -0.0505  0.1950
 2362DPPE   C2A50202  33.393  18.063   4.346  0.1940  0.0118 -0.2522
 2362DPPE   C3A50203  33.058  18.044   4.280  0.1258 -0.3220  0.0374
 2362DPPE   C4A50204  32.922  17.654   4.361  0.3460 -0.3648 -0.4333
 2362DPPE   C1B50205  33.778  18.394   4.170 -0.0867 -0.4333  0.0273
 2362DPPE   C2B50206  33.632  18.221   3.739  0.0458  0.2326  0.2083
 2362DPPE   C3B50207  33.439  18.085   3.379 -0.1669  0.4409  0.0645
 2362DPPE   C4B50208  32.968  18.129   3.442  0.1039 -0.0345 -0.0499
 2363DPPE   NH350209  35.556  14.919   8.115 -0.1085 -0.0122  0.0036
 2363DPPE   PO450210  35.804  14.563   7.935  0.0770  0.2425 -0.0741
 2363DPPE   GL150211  35.436  14.328   7.791 -0.0807 -0.0391 -0.0160
 2363DPPE   GL250212  35.558  14.092   7.637 -0.0050 -0.0650  0.1248
 2363DPPE   C1A50213  35.074  14.231   7.477 -0.1161  0.0331  0.0557
 2363DPPE   C2A50214  34.679  14.298   7.350 -0.0441 -0.0089 -0.0294
 2363DPPE   C3A50215  34.410  14.087   7.102  0.1934  0.0449 -0.0198
 2363DPPE   C4A50216  34.027  14.082   6.953  0.2104 -0.1449 -0.0399
 2363DPPE   C1B50217  35.198  13.919   7.900  0.2715 -0.1687 -0.0447
 2363DPPE   C2B50218  34.964  13.560   7.936 -0.1202  0.0933  0.5151
 2363DPPE   C3B50219  34.646  13.470   7.763 -0.1752  0.2056  0.0180
 2363DPPE   C4B50220  34.404  13.616   7.652  0.4532 -0.1224 -0.0025
 2364DPPE   NH350221   0.021  10.519  11.959 -0.2486 -0.1229  0.2601
 2364DPPE   PO450222  -0.293  10.490  12.245  0.0461  0.0110 -0.0188
 2364DPPE   GL150223  -0.472  10.135  12.371  0.2812  0.0088  0.0025
 2364DPPE   GL250224  -0.328  10.061  12.713 -0.1413 -0.0030 -0.3670
 2364DPPE   C1A50225  -0.466   9.742  12.289 -0.1601 -0.3500  0.2412
 2364DPPE   C2A50226  -0.837   9.734  12.103  0.1535  0.0313 -0.3302
 2364DPPE   C3A50227  -1.193   9.547  11.728 -0.2933  0.3492  0.1824
 2364DPPE   C4A50228  -1.645   9.342  11.617 -0.0044  0.0841 -0.1556
 2364DPPE   C1B50229  -0.545   9.607  12.867 -0.2905 -0.0072 -0.0321
 2364DPPE   C2B50230  -0.943   9.535  12.993  0.3666 -0.2915 -0.0553
 2364DPPE   C3B50231  -1.349   9.477  13.269  0.0631 -0.2138 -0.1094
 2364DPPE   C4B50232  -1.339   9.584  13.662  0.0225  0.0847 -0.0596
 2365DPPE   NH350233  35.223  15.898   7.687 -0.2184 -0.0883  0.1323
 2365DPPE   PO450234  35.281  16.123   7.324 -0.2494 -0.0703  0.3592
 2365DPPE   GL150235  34.931  15.940   7.199  0.2624 -0.0263 -0.0929
 2365DPPE   GL250236  34.874  15.735   7.029  0.1578  0.3053 -0.0483
 2365DPPE   C1A50237  34.422  15.779   7.235 -0.0899  0.0333 -0.1837
 2365DPPE   C2A50238  34.042  15.666   7.297  0.1044 -0.2455  0.0820
 2365DPPE   C3A50239  33.571  15.442   7.268  0.0558 -0.1172 -0.1772
 2365DPPE   C4A50240  33.168  15.637   6.959 -0.2520 -0.1654 -0.2261
 2365DPPE   C1B50241  34.490  15.712   6.765 -0.0177  0.3622  0.3654
 2365DPPE   C2B50242  34.064  15.623   6.821  0.1747 -0.1475 -0.0917
 2365DPPE   C3B50243  33.694  15.494   6.566  0.0548 -0.1517  0.1811
 2365DPPE   C4B50244  33.244  15.465   6.452  0.0271  0.0129  0.0113
 2366DPPE   NH350245   1.529  10.873   6.532  0.0695 -0.1522 -0.0311
 2366DPPE   PO450246   1.541  10.499   6.322 -0.0505  0.0209 -0.0113
 2366DPPE   GL150247   1.223  10.157   6.253 -0.3184  0.1873 -0.1180
 2366DPPE   GL250248   1.143  10.021   6.593  0.2474 -0.1165 -0.0689
 2366DPPE   C1A50249   1.051   9.826   6.073  0.1201 -0.2126  0.3154
 2366DPPE   C2A50250   0.659   9.499   5.936  0.3063  0.0513 -0.1880
 2366DPPE   C3A50251   0.399   9.272   6.124  0.1166 -0.3426  0.3210
 2366DPPE   C4A50252   0.576   8.971   6.368 -0.0480 -0.1264 -0.1411
 2366DPPE   C1B50253   1.186   9.637   6.799  0.0218 -0.1569  0.0376
 2366DPPE   C2B50254   1.267   9.221   6.931 -0.3318  0.1517 -0.0882
 2366DPPE   C3B50255   1.260   8.842   7.154  0.0319  0.0733 -0.1798
 2366DPPE   C4B50256   1.095   8.901   7.577 -0.2630 -0.1299  0.4719
 2367DPPE   NH350257  35.146  18.600   7.222  0.0720  0.0269 -0.2540
 2367DPPE   PO450258  35.473  18.425   6.982  0.0422  0.0259 -0.0827
 2367DPPE   GL150259  35.898  18.393   6.997 -0.2725 -0.1659 -0.0059
 2367DPPE   GL250260  36.164  18.451   6.769 -0.1980  0.0747  0.0074
 2367DPPE   C1A50261  36.191  18.269   7.259 -0.1248 -0.1270 -0.0744
 2367DPPE   C2A50262  36.256  18.285   7.578  0.1541  0.1588  0.0124
 2367DPPE   C3A50263  36.518  18.617   7.834 -0.0164 -0.3542  0.2135
 2367DPPE   C4A50264  36.642  18.773   8.227  0.0225 -0.3398 -0.5474
 2367DPPE   C1B50265  36.579  18.604   6.932 -0.2353 -0.0728 -0.0706
 2367DPPE   C2B50266  36.776  19.021   6.859  0.1629 -0.0530 -0.0170
 2367DPPE   C3B50267  36.972  19.362   6.747 -0.3428 -0.1171 -0.0275
 2367DPPE   C4B50268  36.952  19.752   6.744 -0.1390  0.1436  0.1777
 2368DPPE   NH350269  38.184  12.729  11.023  0.0384 -0.0723 -0.1199
 2368DPPE   PO450270  37.982  12.993  11.175  0.0040 -0.0004  0.1487
 2368DPPE   GL150271  38.190  13.379  11.191  0.2623  0.0394 -0.1422
 2368DPPE   GL250272  38.025  13.536  11.103  0.1675  0.1853 -0.1176
 2368DPPE   C1A50273  38.355  13.716  11.581  0.1118 -0.2510  0.1520
 2368DPPE   C2A50274  38.491  14.078  11.420  0.3036 -0.0081 -0.0332
 2368DPPE   C3A50275  38.783  14.461  11.213 -0.1369 -0.3001 -0.1841
 2368DPPE   C4A50276  39.156  14.596  11.053 -0.0703 -0.1919 -0.2522
 2368DPPE   C1B50277  38.236  13.903  11.064 -0.4358  0.0407 -0.2313
 2368DPPE   C2B50278  38.505  14.111  10.887 -0.1756  0.0797 -0.0429
 2368DPPE   C3B50279  38.639  14.524  10.748 -0.1017  0.5223  0.1722
 2368DPPE   C4B50280  38.853  14.899  10.788 -0.1156 -0.1659  0.1135
 2369DPPE   NH350281  37.560  12.284  13.501  0.1254  0.0811 -0.0061
 2369DPPE   PO450282  37.431  12.461  13.166  0.0075 -0.0415 -0.1125
 2369DPPE   GL150283  37.157  12.129  13.264  0.2994  0.4596  0.0516
 2369DPPE   GL250284  36.909  12.343  13.158 -0.2618 -0.2063 -0.3768
 2369DPPE   C1A50285  36.906  11.923  13.534 -0.1706 -0.0714  0.1520
 2369DPPE   C2A50286  36.636  11.585  13.726 -0.0596 -0.2751  0.0397
 2369DPPE   C3A50287  36.389  11.191  13.724 -0.2554  0.0702 -0.4448
 2369DPPE   C4A50288  36.103  10.834  13.637  0.0014  0.0223 -0.5408
 2369DPPE   C1B50289  36.585  12.149  13.043  0.1562 -0.0538  0.0841
 2369DPPE   C2B50290  36.249  12.088  13.036 -0.1524 -0.3287  0.3043
 2369DPPE   C3B50291  35.845  11.891  13.108  0.2078  0.0440  0.2153
 2369DPPE   C4B50292  35.442  11.898  13.295 -0.1465  0.1915 -0.0964
 2370DPPE   NH350293   0.471  10.623  13.592  0.0849  0.3610  0.1150
 2370DPPE   PO450294   0.861  10.712  13.426 -0.1362  0.1910 -0.1306
 2370DPPE   GL150295   0.900  10.314  13.664  0.0727  0.3228  0.1564
 2370DPPE   GL250296   1.200  10.185  13.669 -0.0436 -0.0225 -0.1033
 2370DPPE   C1A50297   0.789   9.895  13.695 -0.1127 -0.0725  0.0344
 2370DPPE   C2A50298   0.543   9.668  13.780 -0.0031 -0.1269  0.1053
 2370DPPE   C3A50299   0.154   9.560  13.852 -0.1404 -0.3170 -0.1261
 2370DPPE   C4A50300  -0.269   9.507  14.010  0.2710  0.1658  0.1222
 2370DPPE   C1B50301   1.209   9.910  13.969  0.0531  0.0509 -0.0482
 2370DPPE   C2B50302   0.849   9.902  14.217 -0.2058 -0.0042  0.2383
 2370DPPE   C3B50303   0.586   9.615  14.379 -0.2194 -0.1085 -0.3396
 2370DPPE   C4B50304   0.935   9.405  14.538 -0.2646  0.0187  0.1399
 2371DPPE   NH350305  34.687  20.003   4.346  0.0696  0.0600 -0.1768
 2371DPPE   PO450306  34.893  19.907   4.096 -0.0736 -0.0024  0.1071
 2371DPPE   GL150307  34.531  20.073   3.797 -0.4044 -0.2676 -0.0011
 2371DPPE   GL250308  34.636  20.024   3.351  0.1368 -0.1613  0.1807
 2371DPPE   C1A50309  34.319  20.366   3.695  0.1124 -0.2872  0.2029
 2371DPPE   C2A50310  34.068  20.633   3.637  0.2035  0.1677 -0.2883
 2371DPPE   C3A50311  34.022  20.906   3.407 -0.0613 -0.0974  0.0588
 2371DPPE   C4A50312  33.884  21.174   3.210  0.0531  0.1462  0.4307
 2371DPPE   C1B50313  34.185  19.911   3.440  0.2193  0.0451 -0.0918
 2371DPPE   C2B50314  33.747  19.939   3.547  0.0338 -0.1305  0.0401
 2371DPPE   C3B50315  33.384  19.821   3.743  0.0869 -0.1475 -0.2537
 2371DPPE   C4B50316  33.053  20.069   3.586  0.0389 -0.1088 -0.0724
 2372DPPE   NH350317  37.955  12.698   7.199  0.0369 -0.0702  0.0006
 2372DPPE   PO450318  37.603  12.689   6.907 -0.0363 -0.3329  0.2018
 2372DPPE   GL150319  37.495  12.344   6.693 -0.1124  0.1875  0.3278
 2372DPPE   GL250320  37.564  12.337   6.288  0.0871 -0.1875  0.2101
 2372DPPE   C1A50321  37.240  12.019   6.518 -0.2405 -0.3387 -0.0100
 2372DPPE   C2A50322  37.120  11.701   6.257 -0.0210 -0.0826  0.1035
 2372DPPE   C3A50323  37.044  11.289   6.107  0.1800  0.1681  0.0148
 2372DPPE   C4A50324  36.642  10.992   6.194  0.2001 -0.1975 -0.1700
 2372DPPE   C1B50325  37.271  12.191   6.020 -0.0108  0.1354  0.1514
 2372DPPE   C2B50326  36.870  12.023   5.974 -0.2315 -0.1207 -0.1028
 2372DPPE   C3B50327  36.487  12.028   5.696 -0.1528  0.2752 -0.0407
 2372DPPE   C4B50328  36.184  12.041   5.454  0.2627 -0.0103 -0.0637
 2373DPPE   NH350329  35.325  15.181  14.027  0.3274  0.1002  0.3065
 2373DPPE   PO450330  35.441  15.221  13.613  0.1029 -0.4053 -0.0367
 2373DPPE   GL150331  35.295  14.763  13.648  0.3095  0.0265  0.0049
 2373DPPE   GL250332  35.301  14.548  13.455  0.1928 -0.1863  0.1875
 2373DPPE   C1A50333  34.936  14.560  13.862 -0.1944 -0.2280  0.1287
 2373DPPE   C2A50334  34.577  14.281  14.000  0.1089  0.1454  0.1504
 2373DPPE   C3A50335  34.247  13.949  14.052  0.2608 -0.1091 -0.3109
 2373DPPE   C4A50336  34.276  13.598  14.261 -0.0336  0.0774  0.0046
 2373DPPE   C1B50337  35.034  14.251  13.467 -0.2556 -0.2226 -0.0364
 2373DPPE   C2B50338  34.666  14.148  13.522  0.0648 -0.2582  0.4755
 2373DPPE   C3B50339  34.313  13.916  13.565 -0.3410  0.1154  0.4163
 2373DPPE   C4B50340  33.956  13.780  13.657  0.0656 -0.2066 -0.1399
 2374DPPE   NH350341  35.070  17.966   5.259  0.2830 -0.1044 -0.0739
 2374DPPE   PO450342  34.751  18.087   5.594  0.1451 -0.2192  0.1625
 2374DPPE   GL150343  34.592  17.801   5.262  0.4352  0.4412  0.1166
 2374DPPE   GL250344  34.549  17.835   4.965 -0.0237 -0.0607  0.2301
 2374DPPE   C1A50345  34.279  17.493   5.152  0.0986  0.2790  0.2495
 2374DPPE   C2A50346  33.885  17.339   5.010  0.0626  0.1554 -0.0581
 2374DPPE   C3A50347  33.438  17.333   4.882  0.0536  0.0179 -0.2790
 2374DPPE   C4A50348  33.009  17.354   4.767  0.1590  0.2039  0.0031
 2374DPPE   C1B50349  34.211  17.780   4.665 -0.1040 -0.1473 -0.2670
 2374DPPE   C2B50350  33.779  17.608   4.524  0.0775 -0.0925 -0.1470
 2374DPPE   C3B50351  33.373  17.429   4.404  0.1749  0.1552  0.0640
 2374DPPE   C4B50352  33.239  17.321   4.008  0.2136 -0.2287 -0.0309
 2375DPPE   NH350353  34.371  16.022  10.483 -0.1846  0.4216  0.0142
 2375DPPE   PO450354  34.520  15.960  10.046  0.1584 -0.0659  0.1524
 2375DPPE   GL150355  34.166  15.757   9.878 -0.2840  0.0481  0.1550
 2375DPPE   GL250356  33.962  15.952  10.112  0.1510 -0.0996  0.0251
 2375DPPE   C1A50357  33.792  15.536   9.702  0.1918  0.2455 -0.1892
 2375DPPE   C2A50358  33.629  15.223   9.657  0.1052 -0.0018 -0.1571
 2375DPPE   C3A50359  33.274  15.050   9.541  0.0510 -0.2151 -0.0577
 2375DPPE   C4A50360  33.070  15.319   9.323  0.2449  0.2339  0.0836
 2375DPPE   C1B50361  33.764  16.080   9.788  0.3141  0.0880  0.0607
 2375DPPE   C2B50362  33.359  15.892   9.933 -0.0979 -0.4062 -0.0645
 2375DPPE   C3B50363  33.041  15.913  10.009  0.2154 -0.3143  0.0455
 2375DPPE   C4B50364  32.672  15.848  10.236 -0.1238  0.0990  0.1636
 2376DPPE   NH350365  34.224  22.333   8.868  0.0719 -0.1114 -0.1493
 2376DPPE   PO450366  34.283  22.652   9.216 -0.0503 -0.3395  0.0930
 2376DPPE   GL150367  34.749  22.890   9.135  0.0938 -0.2444  0.0417
 2376DPPE   GL250368  34.832  23.113   8.865 -0.0852 -0.0119  0.0440
 2376DPPE   C1A50369  35.203  22.936   9.147 -0.1845 -0.4720 -0.1041
 2376DPPE   C2A50370  35.483  23.309   9.263  0.1890  0.1322 -0.0482
 2376DPPE   C3A50371  35.524  23.711   9.398 -0.2175  0.1232 -0.1617
 2376DPPE   C4A50372  35.668  23.869   9.762  0.1586  0.1914  0.0219
 2376DPPE   C1B50373  35.170  23.340   8.746  0.0949 -0.0100  0.0966
 2376DPPE   C2B50374  35.596  23.513   8.834 -0.3447 -0.0943 -0.3564
 2376DPPE   C3B50375  35.928  23.702   8.787 -0.0476  0.0473  0.0078
 2376DPPE   C4B50376  36.302  23.630   8.612  0.3191 -0.3411 -0.1392
 2377DPPE   NH350377  34.437  18.787  15.524  0.1656  0.4680  0.1181
 2377DPPE   PO450378  34.425  18.379  15.710  0.2077  0.2288 -0.0570
 2377DPPE   GL150379  33.972  18.183  15.769  0.1226 -0.0158  0.1592
 2377DPPE   GL250380  33.755  18.455  15.744  0.0450 -0.0958  0.1676
 2377DPPE   C1A50381  33.556  17.860  15.815  0.0254 -0.3558  0.2919
 2377DPPE   C2A50382  33.185  17.876  15.788 -0.1564  0.0124  0.1563
 2377DPPE   C3A50383  32.833  17.584  15.830 -0.1824 -0.0943  0.1153
 2377DPPE   C4A50384  32.341  17.341  15.932  0.0256  0.1900 -0.1158
 2377DPPE   C1B50385  33.401  18.331  16.010  0.2499  0.0959  0.0293
 2377DPPE   C2B50386  33.129  18.132  16.251  0.1461  0.2546 -0.1368
 2377DPPE   C3B50387  32.755  17.939  16.481 -0.1091  0.1745 -0.0269
 2377DPPE   C4B50388  32.366  18.079  16.469 -0.3093 -0.0779 -0.0937
 2378DPPE   NH350389  38.382  11.388   8.427 -0.1239 -0.3702  0.1760
 2378DPPE   PO450390  38.577  11.535   8.056  0.2562  0.2287 -0.0441
 2378DPPE   GL150391  38.352  11.203   7.975 -0.0006  0.0112 -0.4195
 2378DPPE   GL250392  38.578  11.003   8.128  0.1323  0.1856 -0.1824
 2378DPPE   C1A50393  38.062  10.839   8.139  0.2068  0.0600 -0.0188
 2378DPPE   C2A50394  37.802  10.418   8.080 -0.0450  0.3223 -0.1911
 2378DPPE   C3A50395  37.370  10.140   8.009 -0.2834 -0.0305 -0.2465
 2378DPPE   C4A50396  37.283   9.851   7.779 -0.1328 -0.0271 -0.2965
 2378DPPE   C1B50397  38.424  10.743   7.806 -0.4813 -0.1299 -0.0570
 2378DPPE   C2B50398  38.261  10.357   7.777  0.0306 -0.2951  0.0174
 2378DPPE   C3B50399  37.959   9.939   7.842  0.0374  0.2739 -0.1764
 2378DPPE   C4B50400  37.736   9.575   7.741  0.2495 -0.4625 -0.1121
 2379DPPE   NH350401  35.534  19.216   3.673 -0.1649 -0.2344  0.1458
 2379DPPE   PO450402  35.373  18.920   3.540  0.0000  0.4254  0.5614
 2379DPPE   GL150403  35.148  18.708   3.281 -0.2261  0.1508 -0.0876
 2379DPPE   GL250404  35.323  18.869   2.998 -0.0737 -0.1570 -0.0499
 2379DPPE   C1A50405  34.835  18.631   3.106 -0.0806 -0.1400 -0.0053
 2379DPPE   C2A50406  34.590  18.551   2.713 -0.1864  0.1169  0.1904
 2379DPPE   C3A50407  34.367  18.517   2.332  0.0570  0.0336 -0.0407
 2379DPPE   C4A50408  34.006  18.733   2.108  0.0473  0.0092 -0.3016
 2379DPPE   C1B50409  34.948  19.224   2.778 -0.2304  0.2775 -0.2080
 2379DPPE   C2B50410  34.849  19.364   2.402 -0.2954  0.1475 -0.0435
 2379DPPE   C3B50411  35.004  19.367   1.955 -0.1671  0.1211  0.0222
 2379DPPE   C4B50412  35.332  19.101   1.702 -0.2279 -0.5378 -0.0959
 2380DPPE   NH350413  33.222  17.679  11.179 -0.0218 -0.0105 -0.1785
 2380DPPE   PO450414  33.428  17.406  10.892  0.0814  0.1988  0.0532
 2380DPPE   GL150415  33.112  17.208  11.144 -0.0466 -0.0016  0.0524
 2380DPPE   GL250416  33.192  16.874  10.990  0.0268 -0.1574  0.0630
 2380DPPE   C1A50417  32.741  17.262  11.311  0.3863  0.1103 -0.0771
 2380DPPE   C2A50418  32.256  17.358  11.262  0.0065 -0.2031 -0.3123
 2380DPPE   C3A50419  31.868  17.459  11.538  0.0948 -0.1254 -0.1123
 2380DPPE   C4A50420  31.340  17.301  11.620  0.0390 -0.2362  0.0165
 2380DPPE   C1B50421  32.717  16.972  10.900  0.3226  0.0815 -0.3575
 2380DPPE   C2B50422  32.442  16.898  11.182  0.1477  0.2739 -0.2499
 2380DPPE   C3B50423  32.146  16.886  11.475  0.0507 -0.2371 -0.0764
 2380DPPE   C4B50424  31.695  16.975  11.676  0.0780 -0.2169 -0.0413
 2381DPPE   NH350425  34.484  19.716   7.114 -0.1791  0.1233 -0.0785
 2381DPPE   PO450426  33.997  19.675   6.934  0.2807  0.0745 -0.0817
 2381DPPE   GL150427  33.690  19.853   6.964 -0.0672  0.1547 -0.1727
 2381DPPE   GL250428  33.712  19.954   6.743 -0.0558 -0.3015  0.1272
 2381DPPE   C1A50429  33.284  19.845   7.223  0.0902 -0.0500  0.2743
 2381DPPE   C2A50430  32.858  19.680   7.278 -0.0972 -0.3089  0.1291
 2381DPPE   C3A50431  32.436  19.458   7.218  0.3779 -0.1001 -0.1962
 2381DPPE   C4A50432  32.058  19.550   7.307 -0.0484  0.0347  0.1630
 2381DPPE   C1B50433  33.288  19.722   6.676 -0.0781 -0.1828 -0.1051
 2381DPPE   C2B50434  32.945  19.748   6.496  0.0879 -0.0114 -0.1679
 2381DPPE   C3B50435  32.590  19.881   6.480  0.0059 -0.0868  0.0170
 2381DPPE   C4B50436  32.290  19.754   6.138  0.1842  0.0344  0.1918
 2382DPPE   NH350437   0.192  13.957  17.456 -0.0575 -0.6796 -0.2438
 2382DPPE   PO450438   0.561  13.822  17.797 -0.4031 -0.1013 -0.2011
 2382DPPE   GL150439   0.726  13.709  18.063 -0.3202 -0.1758  0.1644
 2382DPPE   GL250440   1.068  13.841  18.053 -0.0530  0.0487  0.2892
 2382DPPE   C1A50441   0.812  13.417  18.368 -0.3831  0.1414  0.0679
 2382DPPE   C2A50442   0.753  13.125  18.725 -0.1158  0.0267  0.1815
 2382DPPE   C3A50443   0.712  12.838  18.811  0.1530 -0.0867 -0.0845
 2382DPPE   C4A50444   0.326  12.634  18.970 -0.2422 -0.2318  0.3598
 2382DPPE   C1B50445   1.562  13.734  17.978  0.4578 -0.0738 -0.0748
 2382DPPE   C2B50446   2.020  13.837  17.862 -0.0568  0.1753  0.1765
 2382DPPE   C3B50447   2.389  13.905  17.739 -0.0880  0.1579 -0.0373
 2382DPPE   C4B50448   2.779  14.122  17.919  0.0527  0.0867 -0.0293
 2383DPPE   NH350449  33.157  19.763   9.927  0.1460  0.5559 -0.1042
 2383DPPE   PO450450  33.217  19.807  10.285  0.2528  0.3621 -0.0774
 2383DPPE   GL150451  32.846  19.828  10.375  0.3855  0.2403 -0.2873
 2383DPPE   GL250452  32.805  19.521  10.193  0.1687 -0.1672  0.1941
 2383DPPE   C1A50453  32.504  19.735  10.493 -0.5224  0.0275  0.0351
 2383DPPE   C2A50454  32.155  19.708  10.455 -0.1014  0.1396 -0.1618
 2383DPPE   C3A50455  31.810  19.940  10.445  0.2194 -0.0864  0.1874
 2383DPPE   C4A50456  31.454  19.787  10.545 -0.0834 -0.0339  0.1348
 2383DPPE   C1B50457  32.385  19.450  10.022 -0.0328 -0.3094 -0.2040
 2383DPPE   C2B50458  31.962  19.341  10.114  0.1670 -0.0689 -0.1598
 2383DPPE   C3B50459  31.526  19.259  10.256  0.0988  0.0919  0.5608
 2383DPPE   C4B50460  31.131  19.326  10.482  0.0494 -0.2631  0.5282
 2384DPPE   NH350461  35.056  15.477   8.439  0.1606  0.1169 -0.0101
 2384DPPE   PO450462  35.251  15.633   8.096 -0.2290 -0.1370  0.2472
 2384DPPE   GL150463  34.912  15.526   7.799 -0.3504  0.3293 -0.2153
 2384DPPE   GL250464  34.710  15.799   7.614 -0.2920 -0.4417 -0.1089
 2384DPPE   C1A50465  34.671  15.353   7.465 -0.0584 -0.1112  0.4294
 2384DPPE   C2A50466  34.456  15.344   7.054 -0.4174  0.1246  0.0529
 2384DPPE   C3A50467  34.013  15.132   6.964 -0.1741 -0.3714  0.3453
 2384DPPE   C4A50468  33.508  15.134   6.873  0.0998  0.0447 -0.0663
 2384DPPE   C1B50469  34.328  15.717   7.850 -0.1587  0.3868 -0.0018
 2384DPPE   C2B50470  33.946  15.453   7.799  0.1601  0.2191  0.1040
 2384DPPE   C3B50471  33.803  15.073   7.803  0.2633  0.3648  0.0586
 2384DPPE   C4B50472  33.939  14.674   7.756 -0.0452  0.3196 -0.0623
 2385DPPE   NH350473  34.620  22.554  13.666  0.0516  0.3258  0.3262
 2385DPPE   PO450474  34.383  22.657  13.330 -0.0328  0.0005 -0.3367
 2385DPPE   GL150475  34.804  22.757  13.208 -0.0328  0.4311  0.1177
 2385DPPE   GL250476  34.753  23.031  13.173  0.1328  0.2471  0.2073
 2385DPPE   C1A50477  35.177  22.665  12.980 -0.0464  0.1823  0.3441
 2385DPPE   C2A50478  35.587  22.914  12.968  0.0160  0.0489  0.1243
 2385DPPE   C3A50479  35.878  23.205  13.114 -0.1367  0.2066 -0.1236
 2385DPPE   C4A50480  36.026  23.600  13.428 -0.2034  0.1961  0.0002
 2385DPPE   C1B50481  35.139  23.020  13.426  0.0336 -0.0067 -0.1529
 2385DPPE   C2B50482  35.357  23.365  13.380 -0.1363  0.0138 -0.0616
 2385DPPE   C3B50483  35.481  23.764  13.265  0.0354  0.1161 -0.0539
 2385DPPE   C4B50484  35.824  24.106  13.290 -0.1488 -0.1183  0.2230
 2386DPPE   NH350485   0.381  14.479   2.863 -0.1422 -0.4129 -0.3699
 2386DPPE   PO450486   0.615  14.842   2.839 -0.3836  0.2319  0.1343
 2386DPPE   GL150487   0.623  14.770   2.482  0.4067  0.1062  0.3169
 2386DPPE   GL250488   0.659  14.367   2.458 -0.0534  0.3127  0.0702
 2386DPPE   C1A50489   0.528  14.726   2.144 -0.0353  0.1401  0.0303
 2386DPPE   C2A50490   0.271  14.545   1.849  0.2593 -0.0600 -0.2403
 2386DPPE   C3A50491   0.474  14.160   1.566  0.3084 -0.0866  0.1366
 2386DPPE   C4A50492   0.193  13.845   1.433 -0.0974  0.3953 -0.0184
 2386DPPE   C1B50493   0.754  14.351   1.916 -0.0826 -0.2089  0.0398
 2386DPPE   C2B50494   1.188  14.382   1.616  0.0528 -0.2370  0.0218
 2386DPPE   C3B50495   1.419  14.508   1.296  0.1627  0.0074 -0.2359
 2386DPPE   C4B50496   1.728  14.325   1.193 -0.1585  0.0058 -0.1299
 2387DPPE   NH350497  34.641  21.787   8.276  0.1714 -0.2086 -0.0786
 2387DPPE   PO450498  34.852  21.482   7.852 -0.2207 -0.1391 -0.0643
 2387DPPE   GL150499  35.194  21.521   8.076 -0.0458  0.1105  0.1913
 2387DPPE   GL250500  35.147  21.724   8.338 -0.2612  0.2873 -0.2215
 2387DPPE   C1A50501  35.608  21.723   8.087 -0.3488  0.2204 -0.3345
 2387DPPE   C2A50502  35.954  21.574   8.245 -0.1235  0.1477  0.1003
 2387DPPE   C3A50503  36.356  21.821   8.331 -0.0143 -0.3020 -0.0365
 2387DPPE   C4A50504  36.522  22.109   7.993 -0.0676  0.1845 -0.0964
 2387DPPE   C1B50505  35.294  22.119   8.455  0.2051  0.0972 -0.3374
 2387DPPE   C2B50506  35.604  22.448   8.540  0.1387  0.3222  0.3823
 2387DPPE   C3B50507  36.029  22.590   8.621 -0.0957  0.1960  0.1219
 2387DPPE   C4B50508  36.333  22.871   8.787 -0.1057 -0.0471 -0.0527
 2388DPPE   NH350509  35.821  17.612  18.150  0.2488 -0.1576  0.1333
 2388DPPE   PO450510  35.441  17.594  18.127 -0.1602 -0.1245 -0.0562
 2388DPPE   GL150511  35.367  17.633  18.412 -0.0056 -0.1867  0.3702
 2388DPPE   GL250512  35.395  17.319  18.593 -0.2210  0.2358  0.0034
 2388DPPE   C1A50513  35.083  17.717  18.756  0.1562 -0.1513 -0.2557
 2388DPPE   C2A50514  34.927  17.816  19.168 -0.4958  0.0680  0.1789
 2388DPPE   C3A50515  35.008  17.818  19.594 -0.1637  0.1478 -0.0922
 2388DPPE   C4A50516  34.941  17.702  20.052  0.1221 -0.0230  0.1464
 2388DPPE   C1B50517  35.684  17.179  18.963  0.1593  0.0587  0.0895
 2388DPPE   C2B50518  36.090  17.117  19.127 -0.2336  0.1068 -0.0227
 2388DPPE   C3B50519  36.225  17.267  19.491  0.0417 -0.2657  0.1217
 2388DPPE   C4B50520  36.121  17.538  19.755  0.0660  0.1163 -0.1008
 2389DPPE   NH350521  35.623  16.836  17.728  0.3136 -0.0998 -0.1728
 2389DPPE   PO450522  35.150  16.907  17.704  0.2027  0.0586 -0.2959
 2389DPPE   GL150523  34.897  16.883  18.062 -0.1420  0.1635 -0.1097
 2389DPPE   GL250524  34.689  16.713  17.942 -0.2327  0.3659  0.0700
 2389DPPE   C1A50525  34.867  16.776  18.493  0.1743  0.1848  0.0504
 2389DPPE   C2A50526  34.640  16.420  18.757 -0.3448  0.1571  0.1061
 2389DPPE   C3A50527  34.560  15.978  18.995  0.0308  0.2157  0.0050
 2389DPPE   C4A50528  34.227  15.681  18.976 -0.0240 -0.0334 -0.1795
 2389DPPE   C1B50529  34.419  16.833  18.271 -0.1677  0.1255 -0.2540
 2389DPPE   C2B50530  33.994  17.020  18.353  0.3263  0.0425  0.1073
 2389DPPE   C3B50531  33.647  17.166  18.509 -0.0827  0.3111  0.0032
 2389DPPE   C4B50532  33.422  17.383  18.415 -0.0344  0.0069  0.2461
 2390DPPE   NH350533   2.469  11.627  14.161  0.4020  0.2123 -0.0662
 2390DPPE   PO450534   2.251  11.466  14.483 -0.1390  0.1192  0.0213
 2390DPPE   GL150535   2.426  11.465  14.874 -0.3654 -0.0707 -0.2673
 2390DPPE   GL250536   2.239  11.316  15.055  0.2460  0.1075 -0.2730
 2390DPPE   C1A50537   2.854  11.365  15.033  0.0107  0.0761  0.2962
 2390DPPE   C2A50538   3.276  11.421  14.824  0.2797 -0.0412  0.1065
 2390DPPE   C3A50539   3.581  11.684  14.926  0.2713 -0.0907  0.0200
 2390DPPE   C4A50540   3.833  11.904  15.074  0.0362 -0.1206  0.0035
 2390DPPE   C1B50541   2.347  10.891  15.119  0.0635 -0.1063  0.1147
 2390DPPE   C2B50542   2.358  10.460  15.346  0.0860 -0.1406  0.1492
 2390DPPE   C3B50543   2.594  10.159  15.547 -0.0947 -0.1762  0.0605
 2390DPPE   C4B50544   2.496   9.812  15.828 -0.0890 -0.0380  0.1987
 2391DPPE   NH350545  37.107  17.963   3.601  0.2662  0.1674  0.1301
 2391DPPE   PO450546  37.154  18.292   3.920  0.1918 -0.0143  0.2102
 2391DPPE   GL150547  37.288  18.677   3.842  0.2715  0.1195 -0.1671
 2391DPPE   GL250548  37.268  18.871   4.123  0.0156 -0.0143  0.0527
 2391DPPE   C1A50549  37.639  18.881   3.626 -0.0341  0.1559 -0.1872
 2391DPPE   C2A50550  37.754  19.088   3.465 -0.0770 -0.1599  0.3021
 2391DPPE   C3A50551  38.050  19.431   3.278 -0.2742 -0.1027  0.1047
 2391DPPE   C4A50552  38.445  19.544   3.054 -0.0998  0.0671  0.2926
 2391DPPE   C1B50553  37.642  19.057   4.157 -0.1163 -0.4226  0.2330
 2391DPPE   C2B50554  37.975  19.068   4.072  0.0189  0.1781  0.0633
 2391DPPE   C3B50555  38.437  19.125   3.977 -0.2525 -0.1825  0.2813
 2391DPPE   C4B50556  38.668  18.773   3.794  0.0981  0.1534 -0.2408
 2392DPPE   NH350557  36.793  16.048   4.648  0.0826  0.0219 -0.0604
 2392DPPE   PO450558  36.724  15.628   4.431  0.1926  0.1843 -0.0533
 2392DPPE   GL150559  36.388  15.388   4.444  0.0616 -0.0394 -0.1683
 2392DPPE   GL250560  36.050  15.535   4.331 -0.0287  0.1047  0.2079
 2392DPPE   C1A50561  36.059  14.973   4.390  0.1280  0.0191 -0.0129
 2392DPPE   C2A50562  36.140  14.533   4.311 -0.1930  0.0595 -0.0546
 2392DPPE   C3A50563  35.914  14.192   4.354 -0.0607 -0.3087 -0.1916
 2392DPPE   C4A50564  35.783  13.867   4.450 -0.0675  0.1191 -0.1994
 2392DPPE   C1B50565  35.722  15.279   4.002  0.0563 -0.2225  0.0866
 2392DPPE   C2B50566  35.438  14.919   3.845  0.2852 -0.1299 -0.3421
 2392DPPE   C3B50567  35.300  14.750   3.450 -0.4363 -0.1920  0.1087
 2392DPPE   C4B50568  35.167  14.333   3.297  0.2328  0.1873 -0.0949
 2393DPPE   NH350569  36.533  12.989  10.834  0.2043 -0.1654  0.0656
 2393DPPE   PO450570  36.717  12.620  11.036  0.0121  0.5874  0.1714
 2393DPPE   GL150571  36.539  12.289  10.975  0.0898 -0.0164 -0.2521
 2393DPPE   GL250572  36.549  12.193  11.313 -0.2208  0.3630  0.1306
 2393DPPE   C1A50573  36.327  12.011  10.771 -0.1296 -0.0786  0.2092
 2393DPPE   C2A50574  36.055  11.660  10.873 -0.0954  0.1293 -0.1600
 2393DPPE   C3A50575  35.914  11.349  10.762 -0.7003 -0.2244 -0.3332
 2393DPPE   C4A50576  35.692  10.964  10.777 -0.2211  0.0037  0.2954
 2393DPPE   C1B50577  36.325  11.849  11.326  0.2397  0.0064 -0.1348
 2393DPPE   C2B50578  36.262  11.455  11.258  0.1138  0.4157 -0.3436
 2393DPPE   C3B50579  35.955  11.201  11.292  0.2423 -0.1318  0.2338
 2393DPPE   C4B50580  35.696  11.126  11.562 -0.1853  0.3232  0.3961
 2394DPPE   NH350581  36.347  13.694  13.643 -0.1549 -0.2416 -0.0282
 2394DPPE   PO450582  36.591  13.336  13.964  0.2333 -0.2514  0.1642
 2394DPPE   GL150583  36.388  13.085  14.152 -0.0771 -0.1212  0.2443
 2394DPPE   GL250584  36.363  12.807  13.852 -0.6331 -0.0461 -0.1261
 2394DPPE   C1A50585  36.154  12.759  14.291 -0.2067  0.3133 -0.0118
 2394DPPE   C2A50586  35.912  12.400  14.506 -0.1781  0.0975  0.1465
 2394DPPE   C3A50587  35.722  12.068  14.635  0.3373 -0.0242 -0.1407
 2394DPPE   C4A50588  35.513  11.857  15.015  0.0560  0.0845  0.1427
 2394DPPE   C1B50589  36.135  12.531  13.787  0.0987  0.0303 -0.2374
 2394DPPE   C2B50590  35.721  12.455  14.063  0.0134 -0.0218  0.1967
 2394DPPE   C3B50591  35.293  12.215  13.871 -0.4267 -0.2586  0.0335
 2394DPPE   C4B50592  35.115  11.804  13.661 -0.0064 -0.0140  0.3458
 2395DPPE   NH350593  35.276  17.083   5.358 -0.3248 -0.0648 -0.1619
 2395DPPE   PO450594  35.273  17.158   5.745  0.4609  0.2085  0.3646
 2395DPPE   GL150595  34.906  17.010   5.672  0.2214  0.0802 -0.3119
 2395DPPE   GL250596  34.937  16.672   5.545  0.0548 -0.0310 -0.0664
 2395DPPE   C1A50597  34.510  16.945   5.515  0.4997 -0.0315 -0.1720
 2395DPPE   C2A50598  34.325  17.021   5.060 -0.0176  0.0993 -0.3686
 2395DPPE   C3A50599  33.998  16.859   4.882  0.2599 -0.0586  0.1113
 2395DPPE   C4A50600  33.578  16.554   4.851  0.2846 -0.4181  0.0313
 2395DPPE   C1B50601  34.648  16.562   5.247  0.1715  0.0541 -0.4275
 2395DPPE   C2B50602  34.414  16.393   4.978  0.3586 -0.1372 -0.0254
 2395DPPE   C3B50603  34.388  16.037   4.916  0.4269 -0.3008  0.1533
 2395DPPE   C4B50604  34.019  15.867   4.813 -0.1488 -0.1530 -0.1648
 2396DPPE   NH350605  36.588  15.483  14.427 -0.0307  0.0640  0.0389
 2396DPPE   PO450606  36.330  15.888  14.491 -0.0306 -0.1317  0.0344
 2396DPPE   GL150607  36.741  15.990  14.301 -0.0384  0.0143 -0.1151
 2396DPPE   GL250608  36.695  16.375  14.258  0.0184 -0.0421 -0.0287
 2396DPPE   C1A50609  37.178  16.217  14.144 -0.3215 -0.4486  0.0384
 2396DPPE   C2A50610  37.454  16.631  14.141  0.0082  0.0800  0.1972
 2396DPPE   C3A50611  37.709  17.022  14.092 -0.0968  0.3869  0.1907
 2396DPPE   C4A50612  37.827  17.399  14.002 -0.1850 -0.4608  0.0124
 2396DPPE   C1B50613  36.990  16.708  14.357 -0.2898  0.1655  0.0238
 2396DPPE   C2B50614  37.267  17.022  14.335 -0.2438 -0.0596  0.2215
 2396DPPE   C3B50615  37.334  17.346  14.142  0.0891 -0.1351 -0.0182
 2396DPPE   C4B50616  37.348  17.719  13.987 -0.0355  0.1440  0.3367
 2397DPPE   NH350617  35.652  14.838   7.598  0.0059  0.0136 -0.1760
 2397DPPE   PO450618  35.435  15.257   7.762  0.0516 -0.2077 -0.0557
 2397DPPE   GL150619  35.146  14.967   7.610 -0.3042  0.4328  0.1730
 2397DPPE   GL250620  35.016  15.083   7.199  0.0607 -0.1170 -0.3318
 2397DPPE   C1A50621  35.035  14.607   7.794 -0.3678 -0.0471  0.2542
 2397DPPE   C2A50622  34.860  14.281   7.894 -0.3093  0.1861  0.1257
 2397DPPE   C3A50623  34.704  13.986   7.820  0.1937  0.0806  0.1157
 2397DPPE   C4A50624  34.255  14.167   7.756 -0.2875 -0.0013 -0.0900
 2397DPPE   C1B50625  34.698  14.830   7.480 -0.1653  0.4021 -0.1369
 2397DPPE   C2B50626  34.404  14.633   7.777  0.0866  0.1003  0.1802
 2397DPPE   C3B50627  34.254  14.545   8.136 -0.2613  0.2020 -0.3177
 2397DPPE   C4B50628  33.843  14.342   8.350  0.0359  0.2356  0.0029
 2398DPPE   NH350629   1.615  10.611  12.937  0.1399 -0.3092  0.1674
 2398DPPE   PO450630   1.294  10.681  13.189 -0.3187  0.4393 -0.0698
 2398DPPE   GL150631   0.953  10.325  13.101  0.0668 -0.3607 -0.1618
 2398DPPE   GL250632   0.631  10.247  13.248 -0.0474 -0.2005 -0.0648
 2398DPPE   C1A50633   0.953   9.841  13.138  0.3671  0.1226  0.0399
 2398DPPE   C2A50634   0.948   9.445  12.937  0.2452 -0.1058  0.0101
 2398DPPE   C3A50635   0.988   9.119  13.060 -0.0234  0.1738  0.2951
 2398DPPE   C4A50636   1.100   8.776  12.987 -0.0487  0.3748 -0.2613
 2398DPPE   C1B50637   0.418   9.773  13.308  0.2300 -0.0852 -0.2004
 2398DPPE   C2B50638   0.072   9.461  13.375  0.0901 -0.2283  0.0149
 2398DPPE   C3B50639   0.080   9.062  13.288  0.3148 -0.3514  0.0744
 2398DPPE   C4B50640  -0.040   8.527  13.028 -0.3017  0.2057  0.1167
 2399DPPE   NH350641  33.077  21.140   9.982  0.1391 -0.0460 -0.2424
 2399DPPE   PO450642  33.218  20.715   9.763 -0.1488 -0.1538 -0.1203
 2399DPPE   GL150643  32.893  20.792   9.652  0.1789 -0.0115 -0.0368
 2399DPPE   GL250644  32.969  21.112   9.465  0.1317  0.0657  0.1258
 2399DPPE   C1A50645  32.491  20.854   9.460 -0.0091  0.0855 -0.0944
 2399DPPE   C2A50646  32.004  20.811   9.387 -0.0169  0.1214 -0.1887
 2399DPPE   C3A50647  31.624  20.747   9.095  0.2109 -0.0065  0.1089
 2399DPPE   C4A50648  31.372  20.415   8.717  0.0977  0.1720  0.0719
 2399DPPE   C1B50649  32.691  21.281   9.199 -0.0796 -0.0902  0.1742
 2399DPPE   C2B50650  32.334  21.377   9.286  0.3289 -0.2134  0.2223
 2399DPPE   C3B50651  32.086  21.732   9.412  0.3046  0.0890 -0.2008
 2399DPPE   C4B50652  31.758  21.929   9.233  0.0578 -0.0331 -0.5110
 2400DPPE   NH350653  36.550  13.633   9.911 -0.0354  0.4264 -0.1402
 2400DPPE   PO450654  36.274  13.821   9.762 -0.1933  0.2675  0.0172
 2400DPPE   GL150655  36.031  13.514   9.784 -0.0466 -0.2352  0.1697
 2400DPPE   GL250656  35.811  13.440   9.996 -0.0576 -0.0079 -0.1768
 2400DPPE   C1A50657  35.859  13.086   9.571 -0.0998  0.0932 -0.1880
 2400DPPE   C2A50658  35.558  12.911   9.472  0.1634 -0.1094 -0.1856
 2400DPPE   C3A50659  35.271  12.869   9.184 -0.1986 -0.0772 -0.0277
 2400DPPE   C4A50660  35.134  12.520   8.964 -0.1745 -0.0120 -0.2792
 2400DPPE   C1B50661  35.524  13.115  10.040  0.0420 -0.1676 -0.2166
 2400DPPE   C2B50662  35.215  12.749   9.984  0.1155 -0.1939 -0.2279
 2400DPPE   C3B50663  34.926  12.373  10.104  0.3458  0.0452  0.1261
 2400DPPE   C4B50664  34.621  12.064  10.173  0.2241 -0.2202 -0.0715
 2401DPPE   NH350665  35.383  16.072   8.259 -0.2791  0.1288  0.0848
 2401DPPE   PO450666  34.909  15.947   8.120  0.5421  0.1715  0.1145
 2401DPPE   GL150667  34.602  15.617   8.280  0.1821 -0.0596 -0.1800
 2401DPPE   GL250668  34.640  15.670   8.615  0.4099 -0.4781 -0.0150
 2401DPPE   C1A50669  34.283  15.323   8.234 -0.0196 -0.2401  0.2076
 2401DPPE   C2A50670  34.037  14.971   8.269 -0.0167  0.3383  0.0022
 2401DPPE   C3A50671  33.625  14.764   8.159  0.1502  0.2187  0.4084
 2401DPPE   C4A50672  33.322  14.470   8.222  0.2934  0.1887  0.1905
 2401DPPE   C1B50673  34.258  15.420   8.684 -0.2370 -0.1539  0.0692
 2401DPPE   C2B50674  33.905  15.186   8.718 -0.0970 -0.1289  0.4440
 2401DPPE   C3B50675  33.608  14.842   8.736 -0.0946  0.3178  0.0377
 2401DPPE   C4B50676  33.434  14.446   8.804 -0.0285  0.0582  0.0305
 2402DPPE   NH350677  37.705  13.728  15.256 -0.0209  0.1880 -0.1482
 2402DPPE   PO450678  37.546  13.234  15.207  0.0683 -0.3708  0.2179
 2402DPPE   GL150679  37.211  13.005  15.339 -0.0876 -0.0850 -0.0081
 2402DPPE   GL250680  36.919  13.059  15.171  0.0811  0.0528  0.2325
 2402DPPE   C1A50681  37.055  12.753  15.681 -0.2512  0.0609  0.1690
 2402DPPE   C2A50682  36.947  12.456  16.001 -0.0398 -0.2619 -0.3243
 2402DPPE   C3A50683  36.803  12.037  16.000 -0.1723  0.0733 -0.1830
 2402DPPE   C4A50684  36.485  11.884  15.710  0.0626 -0.1667  0.2999
 2402DPPE   C1B50685  36.693  12.683  15.263 -0.0118  0.0371  0.2308
 2402DPPE   C2B50686  36.347  12.305  15.309 -0.1525 -0.1513 -0.3141
 2402DPPE   C3B50687  36.029  12.076  15.450  0.2006  0.0743 -0.0685
 2402DPPE   C4B50688  35.942  11.611  15.488 -0.2310  0.1991  0.2923
 2403DPPE   NH350689   0.652  13.932   5.564  0.1353 -0.2084  0.0319
 2403DPPE   PO450690   0.557  13.782   5.984  0.2113  0.0851 -0.1918
 2403DPPE   GL150691   0.907  13.954   6.095  0.1198  0.0971  0.0710
 2403DPPE   GL250692   1.002  13.682   6.212 -0.1992 -0.0304  0.0139
 2403DPPE   C1A50693   1.025  14.346   6.215  0.1746 -0.0585  0.4929
 2403DPPE   C2A50694   1.467  14.474   6.347 -0.2428 -0.2306  0.1133
 2403DPPE   C3A50695   1.876  14.247   6.240  0.0485 -0.0023 -0.1886
 2403DPPE   C4A50696   2.197  14.043   6.425 -0.0164 -0.4698 -0.2375
 2403DPPE   C1B50697   1.142  13.912   6.562  0.0480  0.1057 -0.1312
 2403DPPE   C2B50698   1.455  14.081   6.739 -0.3027 -0.1201  0.2673
 2403DPPE   C3B50699   1.809  14.318   6.714 -0.0332 -0.0511  0.0270
 2403DPPE   C4B50700   2.219  14.493   6.704 -0.1631 -0.0457 -0.2687
 2404DPPE   NH350701  38.363  13.919   3.586 -0.1384  0.1836 -0.0089
 2404DPPE   PO450702  38.631  13.617   3.458  0.1594 -0.2240  0.1428
 2404DPPE   GL150703  38.589  13.453   3.128  0.2092 -0.1631 -0.0131
 2404DPPE   GL250704  38.726  13.559   2.838  0.0970 -0.2450 -0.0138
 2404DPPE   C1A50705  38.256  13.274   3.096 -0.1841  0.3556  0.0195
 2404DPPE   C2A50706  37.805  13.094   2.935 -0.0488 -0.0329 -0.0387
 2404DPPE   C3A50707  37.441  13.103   2.777  0.3687  0.3280 -0.3922
 2404DPPE   C4A50708  37.036  13.016   2.790 -0.1781 -0.0705  0.0490
 2404DPPE   C1B50709  38.389  13.585   2.687 -0.1289 -0.2871 -0.1672
 2404DPPE   C2B50710  38.230  13.660   2.392  0.0821  0.0328  0.1234
 2404DPPE   C3B50711  38.066  13.674   1.977  0.1130 -0.1064 -0.0336
 2404DPPE   C4B50712  38.033  13.684   1.522  0.0490 -0.2023 -0.1945
 2405DPPE   NH350713  33.705  17.812  11.889 -0.0615 -0.1184  0.0878
 2405DPPE   PO450714  33.405  17.663  12.167 -0.1047  0.1698  0.2221
 2405DPPE   GL150715  33.191  17.496  12.583 -0.2338 -0.1626 -0.0822
 2405DPPE   GL250716  33.217  17.695  12.846 -0.1825 -0.0765 -0.0183
 2405DPPE   C1A50717  32.844  17.294  12.739  0.2119 -0.0194 -0.1881
 2405DPPE   C2A50718  32.490  17.179  12.998 -0.1565 -0.2068 -0.0705
 2405DPPE   C3A50719  32.069  17.084  13.164 -0.0422 -0.2011  0.0887
 2405DPPE   C4A50720  31.690  17.174  13.394 -0.2937  0.2409 -0.0509
 2405DPPE   C1B50721  32.855  17.522  13.258  0.0252 -0.1356 -0.2742
 2405DPPE   C2B50722  32.430  17.362  13.488 -0.3070 -0.0066  0.2636
 2405DPPE   C3B50723  32.128  17.056  13.695 -0.0381  0.1996 -0.2352
 2405DPPE   C4B50724  31.797  16.991  14.098 -0.0797  0.3240  0.0758
 2406DPPE   NH350725  33.975  19.063   9.296 -0.1331  0.2054  0.0329
 2406DPPE   PO450726  33.938  19.560   9.028 -0.0429  0.3289 -0.0293
 2406DPPE   GL150727  34.269  19.324   8.998  0.1688  0.0852 -0.3649
 2406DPPE   GL250728  34.442  19.618   9.134  0.1367  0.1375  0.1597
 2406DPPE   C1A50729  34.686  19.174   8.648  0.3598  0.1680  0.1261
 2406DPPE   C2A50730  35.036  18.972   8.481  0.0629  0.2412  0.0709
 2406DPPE   C3A50731  35.322  19.053   8.187  0.3281 -0.4928  0.0140
 2406DPPE   C4A50732  35.493  19.238   7.880  0.1443 -0.0309  0.0361
 2406DPPE   C1B50733  34.843  19.530   9.049 -0.7119  0.4877 -0.1167
 2406DPPE   C2B50734  35.350  19.630   9.169  0.1713 -0.0249 -0.1390
 2406DPPE   C3B50735  35.804  19.706   9.349  0.1082 -0.1738 -0.2625
 2406DPPE   C4B50736  36.017  20.032   9.532  0.2628 -0.0677  0.0449
 2407DPPE   NH350737   0.142  13.356   3.902 -0.2974 -0.4320 -0.0200
 2407DPPE   PO450738   0.555  13.111   3.880 -0.5311  0.0327 -0.1551
 2407DPPE   GL150739   0.487  12.746   3.448  0.0567 -0.0797 -0.0970
 2407DPPE   GL250740   0.762  12.424   3.367  0.0824 -0.1173 -0.0635
 2407DPPE   C1A50741   0.261  12.446   3.227 -0.0145  0.0539 -0.2846
 2407DPPE   C2A50742   0.189  12.062   2.950 -0.0142 -0.1042 -0.2580
 2407DPPE   C3A50743  -0.257  11.999   2.932 -0.1112 -0.0960  0.0557
 2407DPPE   C4A50744  -0.719  12.102   2.902  0.0922 -0.2242  0.1578
 2407DPPE   C1B50745   0.524  12.037   3.396 -0.1970 -0.0996  0.2093
 2407DPPE   C2B50746   0.252  11.784   3.473 -0.0322  0.1025 -0.0215
 2407DPPE   C3B50747   0.098  11.486   3.214  0.1350  0.1885 -0.1672
 2407DPPE   C4B50748  -0.119  11.148   3.147 -0.1405  0.4176  0.1254
 2408DPPE   NH350749  35.004  16.270  14.617 -0.0993 -0.1808  0.3507
 2408DPPE   PO450750  34.723  16.092  14.308 -0.0241  0.0151 -0.0856
 2408DPPE   GL150751  34.369  15.942  14.079  0.0238 -0.3751  0.1177
 2408DPPE   GL250752  34.160  16.058  14.199 -0.0992  0.1443  0.2929
 2408DPPE   C1A50753  34.112  15.569  13.938  0.2037  0.2658  0.2643
 2408DPPE   C2A50754  33.722  15.296  13.912  0.1960 -0.0221  0.0442
 2408DPPE   C3A50755  33.365  15.157  13.911 -0.0332  0.1139  0.0571
 2408DPPE   C4A50756  32.901  15.257  13.992  0.0380  0.1032  0.2003
 2408DPPE   C1B50757  33.968  15.780  14.394  0.0313 -0.0258 -0.3308
 2408DPPE   C2B50758  33.684  15.636  14.730 -0.1203  0.0212 -0.0736
 2408DPPE   C3B50759  33.338  15.847  14.997  0.2527  0.2391 -0.0891
 2408DPPE   C4B50760  33.057  15.684  15.253  0.0216 -0.1110  0.2796
 2409DPPE   NH350761  36.280  20.293   4.335  0.0473  0.1988  0.0414
 2409DPPE   PO450762  36.131  20.136   3.933  0.6891 -0.2945  0.2013
 2409DPPE   GL150763  36.439  20.488   3.863  0.0066  0.0038 -0.1921
 2409DPPE   GL250764  36.499  20.454   3.560  0.1155 -0.0502  0.3105
 2409DPPE   C1A50765  36.643  20.825   3.886 -0.3299  0.1524 -0.0832
 2409DPPE   C2A50766  36.532  21.250   3.815  0.0577  0.1228 -0.0364
 2409DPPE   C3A50767  36.809  21.545   3.582 -0.1547 -0.1459 -0.2303
 2409DPPE   C4A50768  36.805  21.938   3.551  0.0394  0.0836  0.0947
 2409DPPE   C1B50769  36.348  20.732   3.467 -0.0282  0.0355  0.0968
 2409DPPE   C2B50770  36.537  21.111   3.330 -0.3211 -0.3270 -0.0344
 2409DPPE   C3B50771  36.692  21.335   3.106  0.1498  0.0302 -0.0503
 2409DPPE   C4B50772  36.807  21.506   2.772 -0.0315 -0.3033 -0.1701
 2410DPPE   NH350773  34.815  18.587  16.285 -0.2290 -0.0864 -0.3016
 2410DPPE   PO450774  34.787  18.924  16.475 -0.2675  0.0827  0.0060
 2410DPPE   GL150775  34.566  19.056  16.887  0.0612  0.0686 -0.0026
 2410DPPE   GL250776  34.702  19.205  17.149 -0.0680  0.3038  0.0761
 2410DPPE   C1A50777  34.377  18.803  17.175 -0.0123  0.1337  0.2124
 2410DPPE   C2A50778  33.977  18.756  17.280  0.0891  0.2404 -0.0016
 2410DPPE   C3A50779  33.660  18.930  17.521 -0.2104  0.0128 -0.2333
 2410DPPE   C4A50780  33.230  18.888  17.582 -0.0387 -0.1825 -0.2210
 2410DPPE   C1B50781  34.820  19.033  17.604 -0.1717 -0.0305  0.6444
 2410DPPE   C2B50782  34.841  19.352  17.900 -0.0125  0.1668 -0.1423
 2410DPPE   C3B50783  35.117  19.537  18.210 -0.2223  0.0589  0.0232
 2410DPPE   C4B50784  35.633  19.495  18.278  0.3596  0.2140 -0.1399
 2411DPPE   NH350785  37.782  16.056  17.197 -0.0888 -0.0106 -0.2340
 2411DPPE   PO450786  38.187  16.048  17.428 -0.0639 -0.1488  0.0980
 2411DPPE   GL150787  38.517  16.286  17.721  0.0808  0.2173 -0.1355
 2411DPPE   GL250788  38.460  16.597  17.797 -0.3068  0.0934  0.1599
 2411DPPE   C1A50789  38.921  16.374  17.905 -0.0552 -0.1507  0.1408
 2411DPPE   C2A50790  39.154  16.569  18.144 -0.0127 -0.2212 -0.1944
 2411DPPE   C3A50791  39.254  16.797  18.491 -0.2205  0.0831  0.2047
 2411DPPE   C4A50792  39.488  17.125  18.563  0.4223 -0.4196 -0.1138
 2411DPPE   C1B50793  38.664  16.795  18.060  0.1353  0.2325 -0.0353
 2411DPPE   C2B50794  38.976  17.075  18.192  0.3155 -0.0061  0.1557
 2411DPPE   C3B50795  39.324  17.482  18.168  0.0601 -0.0883 -0.3988
 2411DPPE   C4B50796  39.654  17.628  18.394  0.2878  0.3055 -0.2502
 2412DPPE   NH350797  37.682  15.810  18.673 -0.0364  0.1884 -0.4645
 2412DPPE   PO450798  37.786  15.910  18.245  0.1108 -0.0866  0.1163
 2412DPPE   GL150799  38.111  16.110  18.503  0.0617  0.2587 -0.0428
 2412DPPE   GL250800  38.450  16.257  18.302 -0.2722 -0.0162 -0.1851
 2412DPPE   C1A50801  38.258  16.474  18.813  0.0596  0.2513  0.0585
 2412DPPE   C2A50802  38.592  16.647  19.003  0.0707 -0.2842 -0.1327
 2412DPPE   C3A50803  38.849  16.979  19.048  0.2021  0.2117 -0.1284
 2412DPPE   C4A50804  38.589  17.388  18.905 -0.2816 -0.2031  0.0864
 2412DPPE   C1B50805  38.749  16.555  18.475  0.2243  0.1323  0.1471
 2412DPPE   C2B50806  38.680  17.003  18.544  0.3122  0.0276  0.2326
 2412DPPE   C3B50807  39.001  17.206  18.678  0.2757  0.1093  0.1346
 2412DPPE   C4B50808  39.153  17.591  18.704  0.3024 -0.1252 -0.1046
 2413DPPE   NH350809  35.042  16.686  13.875  0.2209 -0.2884  0.0698
 2413DPPE   PO450810  35.446  16.535  13.728  0.1075 -0.2086 -0.0690
 2413DPPE   GL150811  35.835  16.605  13.425  0.1842 -0.4005 -0.2161
 2413DPPE   GL250812  35.880  16.974  13.382  0.5651  0.1056 -0.1811
 2413DPPE   C1A50813  36.211  16.663  13.132 -0.0404  0.2538  0.2728
 2413DPPE   C2A50814  36.560  16.962  13.002  0.2130  0.1560 -0.3854
 2413DPPE   C3A50815  36.630  17.349  13.080 -0.0518  0.3211 -0.3772
 2413DPPE   C4A50816  36.948  17.659  13.135  0.1980 -0.1861  0.1333
 2413DPPE   C1B50817  36.289  17.011  13.474  0.0318 -0.0391  0.1302
 2413DPPE   C2B50818  36.616  17.239  13.624  0.1927  0.1947  0.1989
 2413DPPE   C3B50819  36.967  17.475  13.631 -0.0622 -0.1754 -0.0429
 2413DPPE   C4B50820  37.330  17.654  13.499  0.1667 -0.1994 -0.2407
 2414DPPE   NH350821  37.145  17.354   3.995  0.0364  0.2454 -0.0597
 2414DPPE   PO450822  37.377  17.727   4.067  0.0044  0.0726 -0.3043
 2414DPPE   GL150823  37.667  17.977   4.163  0.2201 -0.0322  0.0591
 2414DPPE   GL250824  37.640  18.245   3.960  0.2480 -0.1121 -0.2427
 2414DPPE   C1A50825  38.048  17.861   4.173 -0.1028 -0.2663  0.0539
 2414DPPE   C2A50826  38.348  17.844   3.890 -0.0294 -0.0888  0.0005
 2414DPPE   C3A50827  38.774  17.878   4.233 -0.4042 -0.0181  0.1498
 2414DPPE   C4A50828  39.079  18.084   4.407 -0.3249 -0.0983  0.0839
 2414DPPE   C1B50829  37.904  18.586   3.896  0.0914  0.0871 -0.0377
 2414DPPE   C2B50830  38.145  18.813   3.578 -0.1364  0.1888 -0.1849
 2414DPPE   C3B50831  38.189  18.929   3.127 -0.1659 -0.0680 -0.1328
 2414DPPE   C4B50832  38.401  19.069   2.774 -0.2036 -0.3019 -0.0725
 2415DPPE   NH350833  34.006  18.224   8.870 -0.0189  0.0431  0.3297
 2415DPPE   PO450834  33.566  18.189   8.949 -0.1060 -0.0671 -0.0433
 2415DPPE   GL150835  33.179  17.988   8.880 -0.0805  0.0280  0.0656
 2415DPPE   GL250836  33.109  17.668   9.033 -0.1344 -0.0517 -0.2551
 2415DPPE   C1A50837  32.721  17.942   8.678  0.0337  0.0899 -0.0807
 2415DPPE   C2A50838  32.292  17.866   8.551  0.0103  0.1977 -0.0217
 2415DPPE   C3A50839  31.945  17.609   8.487 -0.1830  0.2729  0.5751
 2415DPPE   C4A50840  31.591  17.628   8.359 -0.0898  0.1884 -0.1803
 2415DPPE   C1B50841  32.815  17.473   8.836  0.0422  0.0170  0.5457
 2415DPPE   C2B50842  32.510  17.198   8.630 -0.3076  0.2510  0.2238
 2415DPPE   C3B50843  32.059  17.029   8.403 -0.0230 -0.0938 -0.0402
 2415DPPE   C4B50844  31.719  17.216   8.553  0.0274 -0.0847  0.1582
 2416DPPE   NH350845  35.112  15.197  11.653  0.2385 -0.2713 -0.1495
 2416DPPE   PO450846  34.759  15.007  11.397 -0.0554 -0.1089  0.1399
 2416DPPE   GL150847  34.543  14.755  11.143  0.0898  0.0298  0.2970
 2416DPPE   GL250848  34.376  14.655  11.461 -0.3473  0.1546  0.0905
 2416DPPE   C1A50849  34.263  14.723  10.851  0.0974  0.3082  0.2875
 2416DPPE   C2A50850  33.889  14.494  10.831  0.3023  0.1759 -0.2925
 2416DPPE   C3A50851  33.603  14.151  10.822 -0.2775  0.4964 -0.2027
 2416DPPE   C4A50852  33.256  13.897  10.811  0.1608  0.0946  0.0109
 2416DPPE   C1B50853  34.080  14.316  11.601 -0.3685 -0.1779 -0.2103
 2416DPPE   C2B50854  33.706  14.192  11.733  0.0124  0.0304  0.1867
 2416DPPE   C3B50855  33.264  14.002  11.745  0.0770  0.1598 -0.3286
 2416DPPE   C4B50856  32.799  14.055  11.544  0.1261 -0.1851 -0.2089
 2417DPPE   NH350857   1.010  13.265   3.671  0.0759  0.1107  0.4025
 2417DPPE   PO450858   0.646  13.287   3.344  0.1413  0.4155 -0.2341
 2417DPPE   GL150859   0.498  13.005   3.039 -0.0365 -0.0886 -0.0303
 2417DPPE   GL250860   0.174  12.885   2.952 -0.0936  0.1273 -0.1085
 2417DPPE   C1A50861   0.617  12.612   2.940  0.0910 -0.1413 -0.2643
 2417DPPE   C2A50862   0.653  12.194   2.941 -0.1300 -0.0476 -0.1990
 2417DPPE   C3A50863   0.750  11.704   3.057  0.2344 -0.0163  0.0904
 2417DPPE   C4A50864   0.553  11.294   3.213 -0.2258  0.2559  0.1805
 2417DPPE   C1B50865   0.296  12.723   2.499 -0.2256  0.3580 -0.0710
 2417DPPE   C2B50866   0.437  12.564   2.117 -0.2032  0.1903 -0.3234
 2417DPPE   C3B50867   0.721  12.683   1.721 -0.0507  0.0359 -0.0405
 2417DPPE   C4B50868   0.929  12.665   1.264  0.3320  0.2277  0.1714
 2418DPPE   NH350869  32.945  22.899  11.249  0.0784  0.4252 -0.0325
 2418DPPE   PO450870  33.253  23.034  10.951 -0.0629  0.1913 -0.3313
 2418DPPE   GL150871  32.766  23.260  10.968 -0.3947  0.1945 -0.0087
 2418DPPE   GL250872  32.475  23.112  11.081 -0.1451  0.3480 -0.0042
 2418DPPE   C1A50873  32.547  23.617  10.838  0.0372  0.0814  0.0443
 2418DPPE   C2A50874  32.336  23.946  10.924 -0.0624  0.1162  0.1263
 2418DPPE   C3A50875  31.943  24.200  10.958 -0.0020  0.0043 -0.0906
 2418DPPE   C4A50876  31.610  24.556  11.265 -0.2628 -0.1630  0.0903
 2418DPPE   C1B50877  32.081  22.940  11.071  0.2432  0.2453  0.1820
 2418DPPE   C2B50878  31.652  23.140  11.096 -0.1013  0.1287 -0.1195
 2418DPPE   C3B50879  31.219  23.370  11.130  0.0574  0.0769  0.1384
 2418DPPE   C4B50880  31.054  23.762  11.215 -0.3485 -0.0513 -0.0256
 2419DPPE   NH350881   2.230  12.116  12.066  0.1011  0.3824 -0.2401
 2419DPPE   PO450882   1.941  12.128  11.906 -0.0105 -0.3871 -0.3847
 2419DPPE   GL150883   1.893  12.618  11.951 -0.1117  0.0287 -0.1772
 2419DPPE   GL250884   2.093  12.813  11.932 -0.2385 -0.0258  0.0827
 2419DPPE   C1A50885   1.843  12.954  11.507  0.1583 -0.0634 -0.2238
 2419DPPE   C2A50886   1.872  13.340  11.434  0.3658 -0.2362  0.2915
 2419DPPE   C3A50887   1.889  13.751  11.275  0.2234  0.0984  0.3726
 2419DPPE   C4A50888   1.725  14.071  11.332  0.3051 -0.2405 -0.0432
 2419DPPE   C1B50889   2.401  13.087  12.044  0.4121  0.2627  0.0162
 2419DPPE   C2B50890   2.711  13.236  12.069  0.2274 -0.5520 -0.2356
 2419DPPE   C3B50891   3.090  13.231  12.400 -0.2845 -0.0013  0.1668
 2419DPPE   C4B50892   3.525  13.090  12.493  0.2523  0.1238  0.0933
 2420DPPE   NH350893  38.355  13.450  16.742  0.0689  0.3293 -0.2089
 2420DPPE   PO450894  38.073  13.783  16.726  0.1674  0.0841  0.2420
 2420DPPE   GL150895  37.829  13.447  16.958 -0.2617 -0.2876 -0.1741
 2420DPPE   GL250896  38.039  13.247  17.081  0.0910  0.1080  0.5369
 2420DPPE   C1A50897  37.505  13.254  17.034 -0.0654 -0.4078  0.3040
 2420DPPE   C2A50898  37.342  12.803  17.226 -0.0920  0.0290  0.0013
 2420DPPE   C3A50899  37.231  12.474  17.124 -0.0106 -0.0228  0.0512
 2420DPPE   C4A50900  36.873  12.239  17.003  0.1140  0.0352 -0.2249
 2420DPPE   C1B50901  38.201  12.860  17.286 -0.3648 -0.3943  0.0819
 2420DPPE   C2B50902  38.250  12.444  17.290  0.0079  0.0391 -0.0541
 2420DPPE   C3B50903  38.108  12.090  17.529  0.0271  0.1848  0.1401
 2420DPPE   C4B50904  38.000  11.835  17.934  0.2831  0.1024 -0.0223
 2421DPPE   NH350905  36.649  19.184  16.823  0.1575  0.3575  0.3412
 2421DPPE   PO450906  36.731  18.733  16.799 -0.1760  0.0462  0.2027
 2421DPPE   GL150907  37.024  18.537  16.636  0.3757  0.2093 -0.2302
 2421DPPE   GL250908  37.328  18.353  16.821  0.0677  0.3945 -0.0792
 2421DPPE   C1A50909  37.351  18.708  16.514 -0.2577 -0.3175  0.1636
 2421DPPE   C2A50910  37.776  18.563  16.450  0.2861 -0.0518 -0.1145
 2421DPPE   C3A50911  37.962  18.134  16.555 -0.2694 -0.1370  0.3297
 2421DPPE   C4A50912  38.344  17.954  16.374  0.2822 -0.0117  0.0901
 2421DPPE   C1B50913  37.647  18.353  16.900 -0.0418  0.1316 -0.1576
 2421DPPE   C2B50914  38.033  18.481  16.991 -0.0799 -0.0554  0.1292
 2421DPPE   C3B50915  38.348  18.743  17.092  0.0604 -0.0558  0.0186
 2421DPPE   C4B50916  38.371  19.205  17.043  0.0778  0.0600  0.0385
 2422DPPE   NH350917   0.717  10.656  12.738  0.0681  0.0641 -0.4064
 2422DPPE   PO450918   0.445  10.313  12.797  0.1459  0.0692 -0.1252
 2422DPPE   GL150919   0.472   9.906  12.808  0.0572 -0.0059  0.1281
 2422DPPE   GL250920   0.615   9.742  12.461  0.1191  0.3421 -0.0745
 2422DPPE   C1A50921   0.327   9.574  12.903  0.0892  0.3029  0.3180
 2422DPPE   C2A50922   0.439   9.223  12.958 -0.1703  0.3018 -0.1772
 2422DPPE   C3A50923   0.553   8.737  13.090 -0.2015 -0.1708 -0.1829
 2422DPPE   C4A50924   0.821   8.636  13.492 -0.0814  0.2234 -0.1915
 2422DPPE   C1B50925   0.677   9.351  12.498 -0.2274 -0.1579 -0.1496
 2422DPPE   C2B50926   0.746   8.905  12.650  0.2526  0.3762  0.1394
 2422DPPE   C3B50927   0.837   8.452  12.648  0.0133  0.1749  0.0055
 2422DPPE   C4B50928   1.123   8.288  12.886 -0.0590  0.0818  0.0532
 2423DPPE   NH350929  36.823  12.534  11.538 -0.2337 -0.0329  0.2464
 2423DPPE   PO450930  36.913  12.384  11.944 -0.2447 -0.2779 -0.0837
 2423DPPE   GL150931  36.510  12.174  11.796  0.0098  0.0467 -0.3197
 2423DPPE   GL250932  36.569  11.842  11.712 -0.2939 -0.0505  0.1607
 2423DPPE   C1A50933  36.144  12.175  11.719  0.0448 -0.1970  0.0052
 2423DPPE   C2A50934  35.682  12.108  11.686 -0.1720  0.0686 -0.1899
 2423DPPE   C3A50935  35.445  11.936  11.740 -0.0882 -0.1653  0.1292
 2423DPPE   C4A50936  35.176  11.649  11.980  0.3354  0.0044 -0.0280
 2423DPPE   C1B50937  36.164  11.600  11.789  0.1051 -0.0017 -0.1853
 2423DPPE   C2B50938  35.888  11.587  11.578  0.2953 -0.2490 -0.0038
 2423DPPE   C3B50939  35.461  11.550  11.395 -0.3201 -0.1466 -0.1223
 2423DPPE   C4B50940  35.112  11.737  11.462  0.2063  0.2633 -0.0639
 2424DPPE   NH350941   2.370  10.072   9.332 -0.0996  0.0706 -0.0852
 2424DPPE   PO450942   2.137  10.002   9.035  0.1614 -0.2012  0.3292
 2424DPPE   GL150943   2.244   9.514   9.174 -0.0683  0.0218  0.1516
 2424DPPE   GL250944   2.466   9.519   9.398  0.1239  0.2489  0.3104
 2424DPPE   C1A50945   2.405   9.128   9.022  0.0840 -0.4192 -0.1172
 2424DPPE   C2A50946   2.425   8.703   8.901 -0.0694 -0.1818 -0.0225
 2424DPPE   C3A50947   2.503   8.282   8.666 -0.2507  0.0045  0.0473
 2424DPPE   C4A50948   2.311   8.001   8.632  0.2659  0.0221 -0.0807
 2424DPPE   C1B50949   2.368   9.110   9.492 -0.0246  0.2146  0.1171
 2424DPPE   C2B50950   2.114   8.794   9.493  0.2280 -0.0319  0.4107
 2424DPPE   C3B50951   2.020   8.559   9.121  0.0564  0.0095  0.0752
 2424DPPE   C4B50952   1.900   8.239   8.836 -0.0779 -0.1619 -0.1215
 2425DPPE   NH350953  33.297  23.051   9.715 -0.2841  0.1575 -0.1749
 2425DPPE   PO450954  33.395  23.269  10.021 -0.0611  0.0834  0.1506
 2425DPPE   GL150955  33.185  23.496  10.110 -0.1559 -0.0175 -0.0054
 2425DPPE   GL250956  33.075  23.681   9.911  0.0915  0.0640  0.2067
 2425DPPE   C1A50957  33.140  23.958  10.325 -0.1051 -0.0706  0.1363
 2425DPPE   C2A50958  32.844  23.941  10.661  0.0008  0.0382  0.3989
 2425DPPE   C3A50959  32.863  23.976  11.048 -0.1912  0.0239 -0.3196
 2425DPPE   C4A50960  32.988  23.894  11.499 -0.3075  0.2218 -0.4092
 2425DPPE   C1B50961  33.140  24.150   9.878  0.1446 -0.1176 -0.1756
 2425DPPE   C2B50962  33.097  24.377   9.404 -0.0864 -0.1061  0.2970
 2425DPPE   C3B50963  33.229  24.587   8.998  0.1306 -0.0196 -0.1082
 2425DPPE   C4B50964  33.180  24.996   8.847 -0.1496  0.4359  0.1706
 2426DPPE   NH350965  33.677  23.327  12.787  0.0680 -0.2434 -0.1922
 2426DPPE   PO450966  33.914  23.190  13.064  0.2007  0.2411 -0.0501
 2426DPPE   GL150967  33.845  23.581  13.257 -0.0355  0.0727 -0.1681
 2426DPPE   GL250968  33.962  23.588  13.584  0.1691 -0.0202  0.1115
 2426DPPE   C1A50969  33.623  23.926  13.350 -0.1363 -0.3039  0.0128
 2426DPPE   C2A50970  33.246  23.984  13.554 -0.3758 -0.3630 -0.1180
 2426DPPE   C3A50971  33.259  23.713  14.001 -0.3214  0.1057 -0.0306
 2426DPPE   C4A50972  33.178  23.782  14.431 -0.1744 -0.0707  0.0515
 2426DPPE   C1B50973  34.410  23.780  13.767  0.4672 -0.1543 -0.1874
 2426DPPE   C2B50974  34.853  23.789  13.642 -0.2261 -0.1794 -0.0902
 2426DPPE   C3B50975  35.204  23.858  13.868  0.0996  0.2692 -0.2331
 2426DPPE   C4B50976  35.436  24.075  14.106 -0.1522  0.0417  0.1767
 2427DPPE   NH350977  34.564  21.661   6.498 -0.0321  0.0080 -0.1044
 2427DPPE   PO450978  34.964  21.650   6.585 -0.5250  0.3215  0.1752
 2427DPPE   GL150979  35.353  21.551   6.791 -0.1619 -0.0726  0.2106
 2427DPPE   GL250980  35.598  21.735   6.641  0.1396  0.3225 -0.2392
 2427DPPE   C1A50981  35.847  21.342   6.673 -0.0326 -0.2358  0.1558
 2427DPPE   C2A50982  36.299  21.325   6.713  0.1004 -0.0257 -0.1427
 2427DPPE   C3A50983  36.575  21.512   6.454  0.3681 -0.6269 -0.0876
 2427DPPE   C4A50984  36.778  21.437   6.089  0.0262 -0.1988  0.0317
 2427DPPE   C1B50985  35.896  21.953   6.822  0.1085  0.2893 -0.0294
 2427DPPE   C2B50986  36.030  22.001   7.265 -0.1241  0.0218 -0.0359
 2427DPPE   C3B50987  36.471  22.075   7.401 -0.2588 -0.1793 -0.0906
 2427DPPE   C4B50988  36.760  22.297   7.591  0.0636  0.0867  0.2704
 2428DPPE   NH350989  33.978  22.556   6.066  0.1208  0.0770 -0.0062
 2428DPPE   PO450990  33.630  22.297   6.171  0.3466  0.1036  0.2874
 2428DPPE   GL150991  33.146  22.233   6.053  0.2052 -0.1215  0.1862
 2428DPPE   GL250992  32.916  22.189   6.236  0.2664 -0.1002  0.0009
 2428DPPE   C1A50993  32.927  22.325   5.754  0.0820 -0.3325 -0.1597
 2428DPPE   C2A50994  32.547  22.553   5.703 -0.0388  0.3250 -0.5940
 2428DPPE   C3A50995  32.257  22.380   5.622 -0.3588  0.2122 -0.4028
 2428DPPE   C4A50996  31.875  22.099   5.440  0.1006 -0.0447 -0.2806
 2428DPPE   C1B50997  32.546  22.067   5.944  0.0867 -0.1348  0.1332
 2428DPPE   C2B50998  32.133  21.873   5.859 -0.3117  0.1099  0.2851
 2428DPPE   C3B50999  31.994  21.465   5.822 -0.0352 -0.0958  0.1321
 2428DPPE   C4B51000  32.030  21.120   6.014  0.0087  0.1574 -0.1881
 2429DPPE   NH351001  34.318  22.972  12.944  0.0544 -0.3829  0.2142
 2429DPPE   PO451002  34.112  23.192  12.562  0.0973  0.2200  0.3556
 2429DPPE   GL151003  34.139  23.554  12.710  0.2933 -0.3508 -0.1882
 2429DPPE   GL251004  34.422  23.551  12.853 -0.0925 -0.3386  0.1274
 2429DPPE   C1A51005  34.042  23.969  12.936 -0.0473 -0.1533  0.1006
 2429DPPE   C2A51006  34.265  24.405  12.990 -0.1552 -0.2560  0.2190
 2429DPPE   C3A51007  34.610  24.570  12.893 -0.2158  0.2227  0.2321
 2429DPPE   C4A51008  34.837  24.732  12.531  0.1276  0.0347  0.2909
 2429DPPE   C1B51009  34.396  23.590  13.224 -0.0266  0.1367  0.0936
 2429DPPE   C2B51010  34.501  24.076  13.333 -0.0089 -0.1168  0.3143
 2429DPPE   C3B51011  34.858  24.303  13.279  0.0839 -0.1585 -0.0456
 2429DPPE   C4B51012  34.983  24.772  13.358 -0.0019 -0.0979  0.0875
 2430DPPE   NH351013  34.579  16.923  16.541 -0.0341  0.0303  0.2724
 2430DPPE   PO451014  34.888  16.754  16.329  0.1887 -0.2048  0.3838
 2430DPPE   GL151015  34.760  16.482  16.671 -0.4226 -0.0429 -0.2156
 2430DPPE   GL251016  34.711  16.124  16.616 -0.2548  0.0297  0.1962
 2430DPPE   C1A51017  34.578  16.447  17.039  0.1026 -0.1827  0.3209
 2430DPPE   C2A51018  34.239  16.251  17.429  0.1632  0.1740  0.1408
 2430DPPE   C3A51019  33.790  16.066  17.503  0.2538  0.0193 -0.3179
 2430DPPE   C4A51020  33.428  15.930  17.763 -0.0125  0.2667  0.1515
 2430DPPE   C1B51021  34.305  16.155  16.765 -0.0359  0.0042 -0.0196
 2430DPPE   C2B51022  33.905  16.167  17.003 -0.0499 -0.1030  0.1928
 2430DPPE   C3B51023  33.566  16.416  17.012 -0.0496  0.2087 -0.1751
 2430DPPE   C4B51024  33.053  16.430  17.037 -0.3785  0.2945 -0.4417
 2431DPPE   NH351025  37.540  12.877  12.938 -0.2047 -0.6572 -0.2360
 2431DPPE   PO451026  37.352  12.661  12.629  0.2347  0.0364 -0.1443
 2431DPPE   GL151027  36.933  12.530  12.581 -0.0421  0.0667  0.1999
 2431DPPE   GL251028  36.606  12.584  12.375 -0.3138  0.0616  0.0815
 2431DPPE   C1A51029  36.671  12.103  12.534  0.3655 -0.3095  0.1075
 2431DPPE   C2A51030  36.273  11.908  12.609 -0.1648 -0.0765 -0.1262
 2431DPPE   C3A51031  35.787  11.691  12.598 -0.0283 -0.0964 -0.1513
 2431DPPE   C4A51032  35.417  11.612  12.851 -0.2111 -0.0901  0.1199
 2431DPPE   C1B51033  36.244  12.316  12.215  0.1758  0.1329  0.0839
 2431DPPE   C2B51034  36.042  12.016  12.151  0.2629  0.1762 -0.1456
 2431DPPE   C3B51035  35.823  11.711  12.084 -0.0378  0.0963 -0.2065
 2431DPPE   C4B51036  35.510  11.409  12.304 -0.2037  0.1686 -0.1113
 2432DPPE   NH351037  33.009  21.555  11.279  0.2914  0.2247 -0.1149
 2432DPPE   PO451038  32.818  21.947  11.425 -0.0171 -0.0669  0.1023
 2432DPPE   GL151039  32.486  21.762  11.291  0.3380  0.3340  0.1904
 2432DPPE   GL251040  32.318  22.041  11.189 -0.1688  0.1677  0.1475
 2432DPPE   C1A51041  32.273  21.330  11.319 -0.3571  0.1506 -0.2607
 2432DPPE   C2A51042  31.877  21.183  11.153  0.2904  0.1657 -0.3361
 2432DPPE   C3A51043  31.674  20.869  10.933  0.0821 -0.0804  0.1691
 2432DPPE   C4A51044  31.307  20.701  10.913  0.1017 -0.0614 -0.0115
 2432DPPE   C1B51045  32.046  22.199  10.863  0.1444 -0.1015  0.1331
 2432DPPE   C2B51046  31.589  22.154  10.800 -0.0200  0.1112  0.2887
 2432DPPE   C3B51047  31.274  22.479  10.685  0.3370  0.1668  0.1591
 2432DPPE   C4B51048  30.803  22.845  10.706  0.1340 -0.0331  0.1741
 2433DPPE   NH351049  35.366  15.622  16.003 -0.1772 -0.0156 -0.0008
 2433DPPE   PO451050  35.350  16.073  16.027 -0.0673  0.2009  0.1230
 2433DPPE   GL151051  34.977  15.865  16.219  0.0596 -0.1236  0.2149
 2433DPPE   GL251052  34.839  15.656  16.019 -0.0025  0.5257  0.1491
 2433DPPE   C1A51053  34.486  15.735  16.459 -0.0901  0.0400 -0.0151
 2433DPPE   C2A51054  34.350  15.648  16.862  0.1412 -0.1000 -0.0402
 2433DPPE   C3A51055  34.188  15.315  17.137  0.2435 -0.1870 -0.0930
 2433DPPE   C4A51056  33.923  15.093  17.447 -0.0414  0.3593  0.2489
 2433DPPE   C1B51057  34.863  15.223  16.258 -0.3201  0.0161 -0.0825
 2433DPPE   C2B51058  34.627  15.209  16.681  0.1802  0.1106 -0.2305
 2433DPPE   C3B51059  34.469  14.950  17.028  0.0228 -0.2566  0.1368
 2433DPPE   C4B51060  34.319  14.701  17.360  0.1006  0.0369  0.2287
 2434DPPE   NH351061  33.966  18.263  14.413  0.1307  0.3484  0.3380
 2434DPPE   PO451062  34.117  18.018  14.798  0.2783  0.0985  0.3751
 2434DPPE   GL151063  33.697  17.966  14.793 -0.1713 -0.1477  0.0704
 2434DPPE   GL251064  33.528  18.034  14.570  0.0171  0.0997 -0.0722
 2434DPPE   C1A51065  33.415  17.690  14.926 -0.2381 -0.1378  0.2970
 2434DPPE   C2A51066  33.175  17.504  15.146  0.2753 -0.1605 -0.0918
 2434DPPE   C3A51067  32.904  17.283  15.326 -0.0011  0.3473  0.1625
 2434DPPE   C4A51068  32.453  17.261  15.450  0.0259 -0.2840  0.1115
 2434DPPE   C1B51069  33.124  18.033  14.649  0.0773  0.1558 -0.1142
 2434DPPE   C2B51070  32.808  17.803  14.823  0.0522  0.1024  0.1926
 2434DPPE   C3B51071  32.522  17.670  15.190  0.2369 -0.0118 -0.0201
 2434DPPE   C4B51072  32.092  17.628  15.113  0.0214  0.2669 -0.0414
 2435DPPE   NH351073   1.872  11.945   8.533  0.2876  0.0475  0.0538
 2435DPPE   PO451074   1.937  11.782   8.990 -0.0278 -0.3641 -0.1653
 2435DPPE   GL151075   2.275  12.075   8.829 -0.0450  0.2066 -0.5730
 2435DPPE   GL251076   2.170  12.298   8.981  0.4005  0.1129  0.0283
 2435DPPE   C1A51077   2.738  12.332   8.795  0.0584  0.1836 -0.1393
 2435DPPE   C2A51078   3.048  12.356   8.989  0.2446  0.0445 -0.0246
 2435DPPE   C3A51079   3.181  12.519   9.316 -0.0538 -0.0509 -0.2824
 2435DPPE   C4A51080   3.263  12.885   9.367 -0.1486 -0.2587 -0.0265
 2435DPPE   C1B51081   2.455  12.642   9.075 -0.0756  0.4137  0.1739
 2435DPPE   C2B51082   2.463  13.024   9.117  0.1006 -0.0681  0.0837
 2435DPPE   C3B51083   2.474  13.449   9.375  0.3405  0.0106 -0.1553
 2435DPPE   C4B51084   2.348  13.898   9.399  0.0902  0.0856 -0.1467
 2436DPPE   NH351085  34.220  23.662   7.086  0.1414 -0.0357 -0.0244
 2436DPPE   PO451086  34.248  23.327   6.827 -0.4916  0.1327  0.0179
 2436DPPE   GL151087  33.948  23.467   6.636 -0.2000  0.1685  0.0310
 2436DPPE   GL251088  33.591  23.394   6.672  0.1460 -0.2814 -0.4013
 2436DPPE   C1A51089  33.666  23.480   6.205  0.1647  0.0893 -0.0057
 2436DPPE   C2A51090  33.727  23.615   5.786  0.0919  0.0484 -0.0125
 2436DPPE   C3A51091  33.845  23.869   5.462 -0.2862 -0.0756 -0.2772
 2436DPPE   C4A51092  33.766  24.323   5.433 -0.0641 -0.1498 -0.1118
 2436DPPE   C1B51093  33.226  23.601   6.775 -0.1077  0.1668  0.0103
 2436DPPE   C2B51094  32.793  23.570   6.841 -0.1493 -0.1926  0.1895
 2436DPPE   C3B51095  32.482  23.233   6.971 -0.2484  0.1836 -0.2292
 2436DPPE   C4B51096  32.093  23.076   7.041  0.1827  0.0635  0.3236
 2437DPPE   NH351097  37.258  14.647   8.005  0.1242 -0.2188 -0.3110
 2437DPPE   PO451098  37.111  14.862   7.602  0.1025  0.0343 -0.0230
 2437DPPE   GL151099  37.536  14.958   7.721  0.1344 -0.1322 -0.3435
 2437DPPE   GL251100  37.590  15.244   7.700 -0.2277 -0.0297 -0.1524
 2437DPPE   C1A51101  37.902  14.904   7.937  0.0691  0.0972 -0.0893
 2437DPPE   C2A51102  38.197  14.927   8.219 -0.0392  0.1980  0.2941
 2437DPPE   C3A51103  38.439  15.208   8.371  0.2653 -0.0444 -0.0406
 2437DPPE   C4A51104  38.541  15.198   8.851 -0.1647  0.0317 -0.2830
 2437DPPE   C1B51105  37.643  15.656   7.946 -0.1799 -0.0612  0.2476
 2437DPPE   C2B51106  37.956  15.902   7.918  0.0476  0.0908 -0.3530
 2437DPPE   C3B51107  38.342  15.823   7.892 -0.1861 -0.0151  0.2297
 2437DPPE   C4B51108  38.757  15.933   7.855  0.3626 -0.0267  0.1945
 2438DPPE   NH351109  35.317  14.384  11.429  0.2784 -0.1415  0.2480
 2438DPPE   PO451110  35.559  14.422  11.720  0.0639  0.2030 -0.1561
 2438DPPE   GL151111  35.236  14.161  11.878 -0.2317  0.0351 -0.1048
 2438DPPE   GL251112  35.413  13.940  12.204  0.1355  0.2475 -0.0027
 2438DPPE   C1A51113  34.915  13.950  11.910  0.2974 -0.1519  0.3355
 2438DPPE   C2A51114  34.557  13.674  11.935 -0.0998  0.0912 -0.1414
 2438DPPE   C3A51115  34.311  13.322  11.719  0.1842 -0.5390 -0.0343
 2438DPPE   C4A51116  34.227  12.923  11.786  0.3808  0.2405  0.2527
 2438DPPE   C1B51117  35.021  13.667  12.281 -0.2729  0.0344 -0.1006
 2438DPPE   C2B51118  34.797  13.404  12.387 -0.2467 -0.1906  0.0022
 2438DPPE   C3B51119  34.464  13.182  12.223 -0.0468  0.0233 -0.0652
 2438DPPE   C4B51120  34.192  12.843  12.332  0.1637  0.0316  0.1600
 2439DPPE   NH351121  33.535  19.226   9.368 -0.2676  0.1884  0.0706
 2439DPPE   PO451122  33.418  19.405   9.037 -0.0598 -0.1630  0.0116
 2439DPPE   GL151123  32.965  19.232   9.063  0.1349  0.2966 -0.2421
 2439DPPE   GL251124  32.963  19.104   9.356  0.5561  0.1711 -0.1026
 2439DPPE   C1A51125  32.563  19.476   9.033 -0.0499 -0.0460 -0.0028
 2439DPPE   C2A51126  32.272  19.584   8.972 -0.1221  0.1997  0.1137
 2439DPPE   C3A51127  31.895  19.627   9.033 -0.2910 -0.0853  0.2160
 2439DPPE   C4A51128  31.534  19.540   9.202  0.0567 -0.2326 -0.0145
 2439DPPE   C1B51129  32.621  18.828   9.030  0.3666  0.3482 -0.1939
 2439DPPE   C2B51130  32.158  18.735   8.931 -0.0954 -0.2943  0.0663
 2439DPPE   C3B51131  31.800  18.601   8.994 -0.0982 -0.0743 -0.2332
 2439DPPE   C4B51132  31.602  18.201   9.075 -0.3417  0.0234 -0.1534
 2440DPPE   NH351133  35.692  17.631  15.670 -0.2230  0.1104  0.1741
 2440DPPE   PO451134  35.292  17.803  15.457  0.1080  0.1995  0.2349
 2440DPPE   GL151135  35.577  17.950  15.211  0.4906 -0.1247  0.1699
 2440DPPE   GL251136  35.502  17.823  14.939 -0.1458 -0.0627 -0.0570
 2440DPPE   C1A51137  35.946  17.944  15.052 -0.0319  0.1092  0.0439
 2440DPPE   C2A51138  36.386  18.017  14.874 -0.4946 -0.0583  0.2793
 2440DPPE   C3A51139  36.781  17.805  14.950  0.1849 -0.1167 -0.2470
 2440DPPE   C4A51140  37.092  17.521  15.149  0.1151  0.2037  0.1493
 2440DPPE   C1B51141  35.601  18.246  14.712 -0.1110  0.2872 -0.0949
 2440DPPE   C2B51142  35.722  18.337  14.264 -0.0147 -0.2624 -0.2342
 2440DPPE   C3B51143  35.558  18.330  13.839 -0.2114 -0.1381 -0.0306
 2440DPPE   C4B51144  35.453  18.494  13.543 -0.2787  0.0169 -0.0471
 2441DPPE   NH351145  38.102  11.296  10.854 -0.0379 -0.0188 -0.0713
 2441DPPE   PO451146  37.844  11.359  10.582  0.1012 -0.0063 -0.0107
 2441DPPE   GL151147  37.628  11.107  10.283 -0.1012 -0.1023 -0.0138
 2441DPPE   GL251148  37.409  11.213  10.453  0.4993 -0.1567 -0.3047
 2441DPPE   C1A51149  37.523  10.802   9.952  0.2308  0.2206 -0.2613
 2441DPPE   C2A51150  37.460  10.384   9.828 -0.0745  0.2860  0.0269
 2441DPPE   C3A51151  37.398   9.947   9.711  0.4738 -0.3797  0.3401
 2441DPPE   C4A51152  37.350   9.553   9.510  0.1250 -0.1642  0.2240
 2441DPPE   C1B51153  37.223  10.813  10.432  0.2350 -0.1061  0.1088
 2441DPPE   C2B51154  37.131  10.408  10.311  0.1046 -0.1419  0.1849
 2441DPPE   C3B51155  36.900  10.278   9.937  0.0547 -0.1876  0.1669
 2441DPPE   C4B51156  36.846   9.819   9.743  0.1136  0.0853  0.0260
 2442DPPE   NH351157  35.467  18.887   5.009  0.0424 -0.0040 -0.2710
 2442DPPE   PO451158  35.807  18.673   4.737 -0.0689  0.1193  0.3271
 2442DPPE   GL151159  36.198  18.757   5.018  0.0097 -0.3575  0.0248
 2442DPPE   GL251160  36.087  18.859   5.304  0.0201 -0.0287 -0.0374
 2442DPPE   C1A51161  36.665  18.669   5.174 -0.1503 -0.0001 -0.3603
 2442DPPE   C2A51162  37.087  18.586   5.259 -0.1424 -0.0146 -0.2403
 2442DPPE   C3A51163  37.452  18.857   5.371  0.0283 -0.3072  0.0566
 2442DPPE   C4A51164  37.696  18.985   5.717 -0.2629  0.3963 -0.3446
 2442DPPE   C1B51165  36.472  19.061   5.464 -0.1272 -0.1162  0.1968
 2442DPPE   C2B51166  36.959  19.045   5.427 -0.0683  0.2351  0.0149
 2442DPPE   C3B51167  37.296  19.293   5.551  0.1858  0.2270 -0.2024
 2442DPPE   C4B51168  37.771  19.381   5.454  0.0417 -0.0724  0.1138
 2443DPPE   NH351169  34.321  21.863  11.816  0.1162  0.2220 -0.0880
 2443DPPE   PO451170  34.407  21.752  12.149  0.3361  0.0552  0.2171
 2443DPPE   GL151171  34.659  21.600  12.336 -0.0686  0.2691  0.0058
 2443DPPE   GL251172  34.712  21.744  12.620 -0.3542  0.2242 -0.0643
 2443DPPE   C1A51173  35.132  21.597  12.387  0.0625  0.2502 -0.3949
 2443DPPE   C2A51174  35.465  21.563  12.565  0.1254 -0.0818 -0.3532
 2443DPPE   C3A51175  35.943  21.555  12.529  0.0048  0.0896  0.1264
 2443DPPE   C4A51176  36.303  21.761  12.719 -0.0502 -0.1024 -0.0246
 2443DPPE   C1B51177  35.182  22.033  12.698  0.0728  0.0951  0.0181
 2443DPPE   C2B51178  35.462  22.345  12.705 -0.0757 -0.3377 -0.1509
 2443DPPE   C3B51179  35.864  22.554  12.662  0.0026  0.0510  0.0518
 2443DPPE   C4B51180  36.320  22.393  12.443  0.1008  0.0213 -0.2705
 2444DPPE   NH351181  35.751  21.211   5.362  0.0688 -0.0148  0.1007
 2444DPPE   PO451182  35.747  21.604   5.304  0.1680  0.0862 -0.0717
 2444DPPE   GL151183  36.159  21.555   5.200  0.1264  0.2975 -0.2428
 2444DPPE   GL251184  36.396  21.753   5.032  0.0214  0.2834 -0.0160
 2444DPPE   C1A51185  36.666  21.355   5.295  0.1504  0.0582  0.1339
 2444DPPE   C2A51186  37.030  21.191   5.287 -0.0153 -0.3444 -0.1620
 2444DPPE   C3A51187  37.371  20.996   5.544  0.1248 -0.2689 -0.0415
 2444DPPE   C4A51188  37.767  20.923   5.840  0.2443 -0.0329 -0.0349
 2444DPPE   C1B51189  36.700  21.887   5.113  0.2794 -0.2591  0.0055
 2444DPPE   C2B51190  36.902  22.100   5.521 -0.0341 -0.1243 -0.1960
 2444DPPE   C3B51191  37.200  22.081   5.852  0.1690  0.4199 -0.1510
 2444DPPE   C4B51192  37.444  22.318   6.174 -0.3309  0.1102  0.5346
 2445DPPE   NH351193  32.851  22.192  12.955 -0.2212 -0.0065 -0.0785
 2445DPPE   PO451194  32.965  22.621  12.980  0.0779 -0.0813  0.1371
 2445DPPE   GL151195  32.884  23.007  13.088  0.0859 -0.0986 -0.1087
 2445DPPE   GL251196  33.133  23.274  12.919  0.1297 -0.2038 -0.1962
 2445DPPE   C1A51197  32.929  23.302  13.380 -0.2374  0.0130 -0.0524
 2445DPPE   C2A51198  32.875  23.666  13.658 -0.2035 -0.0515  0.1278
 2445DPPE   C3A51199  32.764  24.063  13.858 -0.3392 -0.0268  0.1557
 2445DPPE   C4A51200  32.743  24.592  13.926  0.0364 -0.1096 -0.3811
 2445DPPE   C1B51201  32.752  23.392  12.795 -0.2423  0.1958 -0.2235
 2445DPPE   C2B51202  32.304  23.575  12.665  0.0944 -0.0593  0.2311
 2445DPPE   C3B51203  31.973  23.605  12.461  0.1389  0.2245  0.2453
 2445DPPE   C4B51204  31.659  23.307  12.307  0.1041  0.0655  0.0763
 2446DPPE   NH351205  34.979  18.790  16.935 -0.0889 -0.2561 -0.2622
 2446DPPE   PO451206  35.254  18.582  17.283 -0.1656 -0.1130  0.0795
 2446DPPE   GL151207  35.166  18.649  17.718  0.0435  0.1818 -0.0569
 2446DPPE   GL251208  35.012  18.444  17.855 -0.1393  0.0308 -0.1682
 2446DPPE   C1A51209  35.026  18.924  18.069 -0.1913  0.2333  0.2173
 2446DPPE   C2A51210  34.713  18.813  18.117 -0.3552  0.3384 -0.1798
 2446DPPE   C3A51211  34.396  19.058  17.950 -0.2464  0.0730 -0.2484
 2446DPPE   C4A51212  34.214  19.130  17.546  0.1262 -0.2280  0.3343
 2446DPPE   C1B51213  34.833  18.340  18.256  0.2456  0.2876 -0.4729
 2446DPPE   C2B51214  34.459  18.619  18.479  0.0323  0.0749 -0.1780
 2446DPPE   C3B51215  34.108  18.689  18.294 -0.1833 -0.0878 -0.2234
 2446DPPE   C4B51216  33.828  18.954  18.015  0.2321  0.0682 -0.2164
 2447DPPE   NH351217  35.924  19.346  17.664 -0.1603 -0.1462 -0.1089
 2447DPPE   PO451218  35.482  19.272  17.609 -0.1432  0.0751 -0.2601
 2447DPPE   GL151219  35.334  19.598  17.785  0.2197 -0.2262 -0.0892
 2447DPPE   GL251220  35.570  19.819  17.857  0.1134 -0.3456 -0.0002
 2447DPPE   C1A51221  35.152  19.986  17.860  0.1963  0.0573  0.1831
 2447DPPE   C2A51222  35.415  20.274  17.935 -0.0708  0.0870  0.2419
 2447DPPE   C3A51223  35.521  20.691  18.204 -0.3157 -0.0181 -0.0616
 2447DPPE   C4A51224  35.256  20.936  18.451  0.0160  0.0129 -0.1828
 2447DPPE   C1B51225  35.871  19.897  18.205  0.0406 -0.2152  0.3627
 2447DPPE   C2B51226  36.116  19.581  18.518  0.0041  0.3770  0.0638
 2447DPPE   C3B51227  36.326  19.465  18.956  0.2363  0.3262  0.1348
 2447DPPE   C4B51228  36.633  19.626  19.182  0.0885  0.1444 -0.0820
 2448DPPE   NH351229  36.260  14.211  13.193  0.0496  0.1479  0.4131
 2448DPPE   PO451230  36.013  13.932  13.249  0.1127  0.1650 -0.0487
 2448DPPE   GL151231  35.552  13.743  13.200  0.0385  0.4014  0.2267
 2448DPPE   GL251232  35.403  14.029  13.312 -0.1988 -0.2959  0.0121
 2448DPPE   C1A51233  35.372  13.341  13.089 -0.2497 -0.1131  0.0317
 2448DPPE   C2A51234  34.918  13.175  13.264 -0.0342 -0.1192  0.3702
 2448DPPE   C3A51235  34.531  13.066  13.344  0.1060  0.1807 -0.1422
 2448DPPE   C4A51236  34.169  12.975  13.148  0.0364 -0.0277  0.1311
 2448DPPE   C1B51237  35.026  13.770  13.366 -0.2500  0.2342 -0.3929
 2448DPPE   C2B51238  34.679  13.548  13.501 -0.0267  0.0935 -0.1238
 2448DPPE   C3B51239  34.455  13.390  13.722 -0.1965 -0.0789  0.2582
 2448DPPE   C4B51240  34.141  13.098  13.979  0.2427  0.2306 -0.1872
 2449DPPE   NH351241  37.431  16.077   2.888 -0.1270 -0.0344 -0.0560
 2449DPPE   PO451242  37.545  16.517   2.775 -0.3392  0.0237  0.2053
 2449DPPE   GL151243  37.384  16.366   2.469  0.0117 -0.0199 -0.0118
 2449DPPE   GL251244  37.478  16.060   2.376 -0.2013 -0.2447  0.2195
 2449DPPE   C1A51245  37.442  16.479   2.103  0.3382 -0.0062 -0.1433
 2449DPPE   C2A51246  37.496  16.619   1.622  0.1673  0.1202  0.0135
 2449DPPE   C3A51247  37.574  16.790   1.236 -0.0260 -0.0066 -0.1117
 2449DPPE   C4A51248  37.515  16.687   0.864  0.2982  0.1050 -0.1178
 2449DPPE   C1B51249  37.227  16.000   1.996 -0.0607  0.0231 -0.0192
 2449DPPE   C2B51250  36.755  15.955   1.954  0.1658  0.3881  0.0811
 2449DPPE   C3B51251  36.462  15.986   2.207  0.1329 -0.1676 -0.1300
 2449DPPE   C4B51252  36.098  16.003   2.269 -0.0882  0.1010 -0.0395
 2450DPPE   NH351253  32.965  19.826  13.832 -0.0628  0.3968 -0.1175
 2450DPPE   PO451254  32.888  20.097  13.498 -0.0990  0.0470  0.0660
 2450DPPE   GL151255  32.574  20.163  13.783 -0.0063  0.0815 -0.0236
 2450DPPE   GL251256  32.385  20.266  13.768  0.0075 -0.0524 -0.0306
 2450DPPE   C1A51257  32.317  19.837  14.026 -0.3667 -0.1029  0.0071
 2450DPPE   C2A51258  31.876  19.712  13.927 -0.0948 -0.0256  0.2865
 2450DPPE   C3A51259  31.544  19.539  13.693 -0.2539  0.0622  0.2136
 2450DPPE   C4A51260  31.234  19.447  13.260  0.2303  0.1018  0.0500
 2450DPPE   C1B51261  32.052  20.057  13.610  0.4665 -0.0663 -0.1233
 2450DPPE   C2B51262  31.589  20.093  13.375  0.0166 -0.1261 -0.0336
 2450DPPE   C3B51263  31.190  20.332  13.493 -0.1117 -0.4407  0.1584
 2450DPPE   C4B51264  31.002  20.715  13.644 -0.0797  0.0652 -0.0582
 2451DPPE   NH351265   1.171  10.920  12.778 -0.0650  0.1045 -0.0221
 2451DPPE   PO451266   1.237  10.489  12.676  0.0875  0.1976  0.0169
 2451DPPE   GL151267   1.203  10.060  12.769  0.2175 -0.1972 -0.0699
 2451DPPE   GL251268   1.119   9.772  12.541 -0.3095 -0.0183  0.1380
 2451DPPE   C1A51269   1.412   9.575  12.872 -0.0544 -0.1677  0.0078
 2451DPPE   C2A51270   1.496   9.130  13.036 -0.0453  0.1455  0.0087
 2451DPPE   C3A51271   1.300   8.897  13.397 -0.1051 -0.0733 -0.0395
 2451DPPE   C4A51272   1.072   9.076  13.690  0.0991  0.1120 -0.1426
 2451DPPE   C1B51273   1.216   9.291  12.488 -0.2150  0.3336 -0.2301
 2451DPPE   C2B51274   1.401   8.917  12.580  0.1795 -0.0304  0.0918
 2451DPPE   C3B51275   1.653   8.556  12.466  0.1292 -0.2514  0.1426
 2451DPPE   C4B51276   1.837   8.217  12.318 -0.3505 -0.0278 -0.0760
 2452DPPE   NH351277  35.120  17.139   8.426  0.0631  0.1470 -0.3368
 2452DPPE   PO451278  35.389  17.248   8.721 -0.0452  0.1984 -0.0756
 2452DPPE   GL151279  35.737  17.211   9.045  0.1303 -0.0215  0.2405
 2452DPPE   GL251280  35.466  17.365   9.235 -0.0313 -0.0877 -0.0285
 2452DPPE   C1A51281  36.125  17.220   9.330  0.2963 -0.1635 -0.1588
 2452DPPE   C2A51282  36.561  17.103   9.283 -0.2365  0.4399 -0.3229
 2452DPPE   C3A51283  36.934  17.277   9.139  0.2620  0.1507 -0.1194
 2452DPPE   C4A51284  37.372  17.269   9.239 -0.0963 -0.1733  0.1784
 2452DPPE   C1B51285  35.771  17.430   9.569  0.1891 -0.2234  0.0567
 2452DPPE   C2B51286  36.142  17.520   9.867  0.4751 -0.0892  0.4113
 2452DPPE   C3B51287  36.424  17.801  10.123  0.0103 -0.1821 -0.0950
 2452DPPE   C4B51288  36.663  17.833  10.441 -0.0906 -0.0327 -0.1149
 2453DPPE   NH351289  34.210  19.466   5.742  0.0171  0.0438 -0.0549
 2453DPPE   PO451290  34.140  19.172   6.002  0.1012  0.3465 -0.0985
 2453DPPE   GL151291  33.694  19.126   6.109  0.1498  0.2349  0.2464
 2453DPPE   GL251292  33.627  19.470   6.097 -0.2364 -0.0974  0.1000
 2453DPPE   C1A51293  33.209  19.081   5.967 -0.1371 -0.2107 -0.1850
 2453DPPE   C2A51294  32.894  18.901   5.694 -0.2202 -0.0587  0.0343
 2453DPPE   C3A51295  32.906  18.784   5.232 -0.1620 -0.0280  0.2117
 2453DPPE   C4A51296  32.708  18.859   4.770 -0.1964  0.0560  0.0702
 2453DPPE   C1B51297  33.285  19.410   6.316  0.0468  0.4652 -0.0378
 2453DPPE   C2B51298  32.841  19.292   6.270 -0.2621  0.0813  0.1695
 2453DPPE   C3B51299  32.573  19.260   5.929 -0.2928  0.0847 -0.1091
 2453DPPE   C4B51300  32.380  19.231   5.554 -0.1284  0.0526  0.1722
 2454DPPE   NH351301  34.465  15.998  12.792 -0.3549 -0.2523 -0.2389
 2454DPPE   PO451302  34.075  16.307  12.796 -0.0323  0.0945 -0.0087
 2454DPPE   GL151303  33.615  16.321  12.861 -0.0433 -0.2226 -0.1261
 2454DPPE   GL251304  33.406  16.681  12.930 -0.0134 -0.0893  0.1254
 2454DPPE   C1A51305  33.160  16.126  12.961  0.1923 -0.3077  0.0737
 2454DPPE   C2A51306  32.886  15.794  13.147  0.1737  0.0773  0.0413
 2454DPPE   C3A51307  32.440  15.894  13.362  0.0346 -0.1278  0.3020
 2454DPPE   C4A51308  32.031  16.159  13.512 -0.1033  0.4639 -0.0649
 2454DPPE   C1B51309  33.046  16.663  12.950  0.1705 -0.1044 -0.1059
 2454DPPE   C2B51310  32.518  16.654  12.886 -0.0341 -0.0775  0.0685
 2454DPPE   C3B51311  32.030  16.658  12.840  0.2396 -0.4373  0.0346
 2454DPPE   C4B51312  31.852  16.665  13.163  0.2209 -0.0872  0.3394
 2455DPPE   NH351313  34.453  21.672   9.893 -0.2634  0.1815  0.0862
 2455DPPE   PO451314  34.219  21.703   9.499  0.0615  0.1639 -0.0027
 2455DPPE   GL151315  34.727  21.768   9.467  0.3488  0.0718 -0.1415
 2455DPPE   GL251316  34.813  21.465   9.230 -0.0036 -0.0206  0.0245
 2455DPPE   C1A51317  35.095  21.853   9.585 -0.0234  0.0132  0.2249
 2455DPPE   C2A51318  35.554  21.972   9.730 -0.2697  0.2274 -0.2968
 2455DPPE   C3A51319  35.978  21.947   9.927 -0.0930  0.2741 -0.0135
 2455DPPE   C4A51320  36.359  21.902   9.681  0.1510  0.2286  0.0703
 2455DPPE   C1B51321  35.225  21.336   9.354 -0.1618 -0.3747 -0.3061
 2455DPPE   C2B51322  35.627  21.350   9.505  0.1942  0.0326  0.2287
 2455DPPE   C3B51323  35.915  21.533   9.633 -0.0400  0.0556 -0.0254
 2455DPPE   C4B51324  36.338  21.418   9.821 -0.0119  0.1372  0.4210
 2456DPPE   NH351325   1.098  12.229   9.811 -0.2278  0.1448  0.0621
 2456DPPE   PO451326   1.305  12.152  10.192  0.1466  0.0793  0.2836
 2456DPPE   GL151327   1.426  12.544  10.106 -0.0469  0.0376 -0.0846
 2456DPPE   GL251328   1.153  12.617  10.247 -0.0782  0.0623 -0.1670
 2456DPPE   C1A51329   1.515  12.963  10.244  0.1400 -0.2321 -0.1857
 2456DPPE   C2A51330   1.631  13.360  10.149  0.3388 -0.1591 -0.2077
 2456DPPE   C3A51331   1.740  13.784   9.972 -0.0989 -0.2522  0.1897
 2456DPPE   C4A51332   1.749  13.950   9.603  0.2678 -0.1971 -0.3613
 2456DPPE   C1B51333   1.170  12.858  10.530  0.1345 -0.3991  0.0644
 2456DPPE   C2B51334   1.416  13.250  10.627 -0.0430 -0.1270 -0.0167
 2456DPPE   C3B51335   1.746  13.630  10.588 -0.0308 -0.0933 -0.0364
 2456DPPE   C4B51336   2.016  13.978  10.350  0.1492 -0.3413 -0.1168
 2457DPPE   NH351337  36.878  15.140   4.692 -0.4976 -0.0004 -0.0113
 2457DPPE   PO451338  36.873  15.026   4.195 -0.0130 -0.0793  0.3682
 2457DPPE   GL151339  36.592  14.706   4.023  0.2021  0.0937 -0.2711
 2457DPPE   GL251340  36.842  14.423   4.066  0.1867 -0.3321  0.0955
 2457DPPE   C1A51341  36.377  14.247   3.931 -0.5303 -0.1653  0.2261
 2457DPPE   C2A51342  36.098  13.831   4.080 -0.2232 -0.1105 -0.0691
 2457DPPE   C3A51343  35.733  13.520   3.840 -0.0143 -0.1340 -0.2780
 2457DPPE   C4A51344  35.622  13.130   3.571  0.0320  0.0970  0.0965
 2457DPPE   C1B51345  36.790  14.270   3.596  0.0407  0.1582  0.1196
 2457DPPE   C2B51346  36.612  14.158   3.323  0.2736 -0.1509 -0.1443
 2457DPPE   C3B51347  36.351  13.743   3.193 -0.0743  0.0239  0.3026
 2457DPPE   C4B51348  36.566  13.484   2.999  0.0616  0.2379 -0.1265
 2458DPPE   NH351349  36.050  18.687  16.161  0.1679  0.0571  0.1687
 2458DPPE   PO451350  36.010  19.124  16.031  0.2540  0.1710 -0.0441
 2458DPPE   GL151351  36.463  19.174  15.940 -0.2837  0.2742 -0.2259
 2458DPPE   GL251352  36.558  19.171  15.659 -0.1018 -0.2851  0.2252
 2458DPPE   C1A51353  36.828  19.403  15.971 -0.1803  0.0919 -0.2198
 2458DPPE   C2A51354  37.116  19.849  15.903 -0.2487 -0.0001 -0.1646
 2458DPPE   C3A51355  37.325  20.141  16.117 -0.2075  0.2947 -0.1757
 2458DPPE   C4A51356  37.483  20.531  16.134  0.2944 -0.0805 -0.2695
 2458DPPE   C1B51357  36.756  19.505  15.530 -0.0333  0.1015 -0.2258
 2458DPPE   C2B51358  37.187  19.601  15.471  0.1150 -0.0535 -0.3405
 2458DPPE   C3B51359  37.488  19.764  15.319 -0.2572 -0.0099 -0.1630
 2458DPPE   C4B51360  37.743  20.092  15.345  0.3093 -0.3469  0.3488
 2459DPPE   NH351361  33.843  17.406  12.210  0.1587 -0.1631 -0.0052
 2459DPPE   PO451362  33.863  16.972  12.211 -0.2321  0.3234 -0.1018
 2459DPPE   GL151363  33.556  16.709  12.227 -0.1945  0.0648  0.1827
 2459DPPE   GL251364  33.542  16.533  12.413 -0.0636  0.0497  0.3819
 2459DPPE   C1A51365  33.062  16.678  12.074 -0.1099  0.2023 -0.3446
 2459DPPE   C2A51366  32.698  16.465  11.957  0.0548  0.3645 -0.1307
 2459DPPE   C3A51367  32.259  16.472  11.905 -0.0084  0.3781 -0.0988
 2459DPPE   C4A51368  31.895  16.429  11.792 -0.0339 -0.0984  0.0213
 2459DPPE   C1B51369  33.229  16.414  12.569  0.0683 -0.1289 -0.1023
 2459DPPE   C2B51370  32.697  16.309  12.598  0.0003 -0.2458 -0.1608
 2459DPPE   C3B51371  32.430  16.162  12.316  0.1596  0.3643  0.1492
 2459DPPE   C4B51372  32.046  15.954  12.217  0.2227 -0.1312 -0.1042
 2460DPPE   NH351373   0.342  14.100   3.187  0.0161  0.0630  0.1741
 2460DPPE   PO451374   0.083  14.394   3.431  0.1156 -0.1353 -0.1618
 2460DPPE   GL151375  -0.187  14.168   3.173 -0.3439  0.1550  0.0018
 2460DPPE   GL251376  -0.096  13.844   3.094 -0.2172  0.0254 -0.5024
 2460DPPE   C1A51377  -0.446  14.019   2.738 -0.1253 -0.0010  0.0549
 2460DPPE   C2A51378  -0.524  14.143   2.257 -0.1376 -0.0378 -0.2764
 2460DPPE   C3A51379  -0.534  14.100   1.846  0.0801  0.3108 -0.1663
 2460DPPE   C4A51380  -0.683  14.071   1.302  0.0475  0.0001 -0.1047
 2460DPPE   C1B51381  -0.496  13.582   3.013  0.0655  0.2248  0.3319
 2460DPPE   C2B51382  -0.751  13.531   2.616 -0.2987 -0.1909  0.0994
 2460DPPE   C3B51383  -0.693  13.297   2.248  0.2897  0.0622 -0.1666
 2460DPPE   C4B51384  -0.585  13.287   1.747 -0.1240  0.1486 -0.0162
 2461DPPE   NH351385  36.886  14.640  16.022 -0.1081 -0.2045  0.0574
 2461DPPE   PO451386  36.558  14.583  15.710 -0.1060  0.3582 -0.3629
 2461DPPE   GL151387  36.334  14.226  15.885  0.0815 -0.0172  0.0108
 2461DPPE   GL251388  36.533  13.889  15.826  0.1120  0.1426 -0.1422
 2461DPPE   C1A51389  36.034  13.850  15.750 -0.1479  0.3586 -0.1191
 2461DPPE   C2A51390  35.940  13.511  16.099  0.1246  0.0924 -0.1639
 2461DPPE   C3A51391  35.671  13.320  16.523  0.3203 -0.2057  0.2800
 2461DPPE   C4A51392  35.360  12.977  16.618  0.2107 -0.0648  0.0315
 2461DPPE   C1B51393  36.397  13.429  15.831  0.0416 -0.1247 -0.2386
 2461DPPE   C2B51394  36.135  13.001  15.817  0.0830 -0.0920  0.2621
 2461DPPE   C3B51395  35.738  12.935  16.070  0.1979  0.2523 -0.0673
 2461DPPE   C4B51396  35.608  12.530  16.427  0.1283 -0.5234 -0.2226
 2462DPPE   NH351397  34.176  20.057   9.047  0.0218 -0.1025  0.3863
 2462DPPE   PO451398  34.116  19.942   9.416 -0.1000  0.0608  0.1106
 2462DPPE   GL151399  34.288  19.650   9.713  0.1383 -0.0947 -0.0823
 2462DPPE   GL251400  34.381  19.351   9.599  0.2230 -0.2675 -0.1245
 2462DPPE   C1A51401  34.656  19.624   9.970 -0.0496 -0.0619  0.0730
 2462DPPE   C2A51402  34.962  19.824   9.951 -0.1010  0.0814  0.1219
 2462DPPE   C3A51403  35.279  19.714  10.232  0.0082  0.1763  0.2252
 2462DPPE   C4A51404  35.808  19.685  10.340 -0.1558 -0.2824 -0.0438
 2462DPPE   C1B51405  34.818  19.352   9.526  0.0387  0.1419 -0.2559
 2462DPPE   C2B51406  35.206  19.530   9.650  0.2464  0.1855  0.0985
 2462DPPE   C3B51407  35.616  19.505   9.806  0.2388  0.1122 -0.0923
 2462DPPE   C4B51408  36.031  19.400   9.841 -0.0325 -0.3730 -0.2568
 2463DPPE   NH351409  33.324  20.027   8.055 -0.2406  0.1021 -0.0914
 2463DPPE   PO451410  33.258  19.854   8.434  0.0191  0.1390  0.2639
 2463DPPE   GL151411  32.911  20.175   8.421 -0.0339  0.1935  0.0111
 2463DPPE   GL251412  32.897  20.499   8.552 -0.1930  0.0732  0.3225
 2463DPPE   C1A51413  32.467  20.181   8.272  0.3059 -0.0711 -0.3256
 2463DPPE   C2A51414  32.038  20.102   8.179 -0.0516 -0.0850 -0.1220
 2463DPPE   C3A51415  31.796  19.937   7.958  0.0842  0.0501  0.3921
 2463DPPE   C4A51416  31.365  19.742   7.999 -0.0496 -0.2267  0.0138
 2463DPPE   C1B51417  32.532  20.508   8.716  0.1534  0.1684  0.0019
 2463DPPE   C2B51418  32.069  20.567   8.679  0.0954  0.0734 -0.3299
 2463DPPE   C3B51419  31.754  20.412   8.368 -0.1335 -0.0574 -0.3191
 2463DPPE   C4B51420  31.357  20.434   8.150 -0.1995 -0.0192  0.0413
 2464DPPE   NH351421  35.709  20.887   4.481 -0.0250  0.0576  0.2103
 2464DPPE   PO451422  35.345  21.011   4.432  0.0966  0.0046 -0.0881
 2464DPPE   GL151423  35.421  21.285   4.043 -0.0008  0.0960 -0.0885
 2464DPPE   GL251424  35.158  21.441   4.020  0.0932  0.0847 -0.1149
 2464DPPE   C1A51425  35.799  21.432   4.008  0.1020  0.3368  0.1510
 2464DPPE   C2A51426  36.119  21.710   3.898 -0.0311 -0.1191 -0.0629
 2464DPPE   C3A51427  36.561  21.745   3.958  0.1960 -0.2408  0.2547
 2464DPPE   C4A51428  36.759  21.928   4.436  0.0367  0.0944  0.0484
 2464DPPE   C1B51429  35.509  21.811   3.958 -0.1291  0.2912  0.2074
 2464DPPE   C2B51430  35.827  22.121   3.856  0.2259  0.2224  0.1997
 2464DPPE   C3B51431  36.149  22.316   3.602  0.1727 -0.5422  0.1920
 2464DPPE   C4B51432  36.534  22.370   3.567  0.0650 -0.0693 -0.2923
 2465DPPE   NH351433   2.304  11.692  10.086  0.3668  0.1263  0.3119
 2465DPPE   PO451434   1.969  11.682  10.369  0.2464 -0.1322  0.4284
 2465DPPE   GL151435   2.082  12.142  10.284 -0.0858 -0.1942  0.0158
 2465DPPE   GL251436   1.775  12.180  10.347 -0.2284  0.1244 -0.0524
 2465DPPE   C1A51437   2.442  12.289  10.283 -0.3277  0.1163  0.0350
 2465DPPE   C2A51438   2.761  12.595  10.248 -0.0913 -0.2291  0.1241
 2465DPPE   C3A51439   3.089  12.911  10.379  0.2899 -0.0500  0.0318
 2465DPPE   C4A51440   3.371  13.211  10.427  0.0856 -0.3758  0.3031
 2465DPPE   C1B51441   1.927  12.623  10.223  0.2344 -0.0492 -0.1967
 2465DPPE   C2B51442   1.963  13.050   9.989  0.0423 -0.0686 -0.1540
 2465DPPE   C3B51443   2.249  13.416   9.969 -0.0873  0.1257  0.1926
 2465DPPE   C4B51444   2.591  13.665   9.811  0.0620 -0.0093  0.1159
 2466DPPE   NH351445   1.352  12.830   6.408 -0.0148  0.0585  0.1222
 2466DPPE   PO451446   0.938  13.091   6.292 -0.0580  0.0860  0.1195
 2466DPPE   GL151447   1.162  13.369   6.560  0.1073 -0.1069  0.2886
 2466DPPE   GL251448   0.886  13.529   6.721  0.1061  0.1784 -0.0961
 2466DPPE   C1A51449   1.577  13.400   6.814 -0.1765 -0.1328  0.1444
 2466DPPE   C2A51450   1.892  13.757   6.785  0.1089  0.3057 -0.0231
 2466DPPE   C3A51451   2.152  14.010   6.942 -0.4416  0.1288  0.1137
 2466DPPE   C4A51452   2.610  14.130   6.905  0.0266  0.0719  0.0600
 2466DPPE   C1B51453   1.186  13.721   7.017 -0.2359  0.0317 -0.2679
 2466DPPE   C2B51454   1.513  13.849   7.161  0.0371 -0.3979 -0.1376
 2466DPPE   C3B51455   1.810  14.038   7.346 -0.1055  0.1338  0.2336
 2466DPPE   C4B51456   2.232  14.245   7.500  0.0104  0.2975 -0.4328
 2467DPPE   NH351457  34.552  20.800  15.050 -0.2193 -0.0474  0.3714
 2467DPPE   PO451458  34.815  21.087  14.771  0.2250 -0.0012 -0.1400
 2467DPPE   GL151459  35.197  21.245  15.009  0.1158  0.3325  0.0026
 2467DPPE   GL251460  35.282  21.223  14.663  0.2335 -0.2183 -0.1491
 2467DPPE   C1A51461  35.420  21.603  15.065  0.0555 -0.0796  0.1781
 2467DPPE   C2A51462  35.690  21.831  15.261 -0.0249 -0.0795 -0.1182
 2467DPPE   C3A51463  35.587  22.312  15.354  0.0184 -0.0266  0.1241
 2467DPPE   C4A51464  35.958  22.570  15.430 -0.2910 -0.1524 -0.0103
 2467DPPE   C1B51465  35.615  21.567  14.533  0.1004  0.1593  0.4265
 2467DPPE   C2B51466  35.970  21.811  14.727 -0.0419  0.0351 -0.1238
 2467DPPE   C3B51467  36.166  21.918  15.018  0.0893 -0.1582 -0.0769
 2467DPPE   C4B51468  36.559  22.062  15.248 -0.2541  0.2406  0.1492
 2468DPPE   NH351469  35.773  14.110   9.067 -0.1010  0.1118  0.1267
 2468DPPE   PO451470  35.608  14.478   8.891  0.2096  0.2261 -0.2372
 2468DPPE   GL151471  35.296  14.247   8.729  0.2628  0.3471  0.1235
 2468DPPE   GL251472  35.198  14.029   8.988 -0.1167 -0.0518 -0.0069
 2468DPPE   C1A51473  35.073  13.956   8.486  0.0428 -0.1918  0.1807
 2468DPPE   C2A51474  34.755  13.714   8.335  0.0341  0.2519 -0.1313
 2468DPPE   C3A51475  34.600  13.375   8.484  0.1495 -0.0980  0.1046
 2468DPPE   C4A51476  34.387  13.034   8.554  0.0229  0.0968  0.0917
 2468DPPE   C1B51477  34.877  13.611   8.832 -0.2308 -0.2431 -0.3446
 2468DPPE   C2B51478  34.440  13.381   8.938 -0.0889 -0.5922 -0.0282
 2468DPPE   C3B51479  34.051  13.469   9.100 -0.2743  0.0558  0.3109
 2468DPPE   C4B51480  34.106  13.803   9.319 -0.0850  0.0698  0.0081
 2469DPPE   NH351481   0.373  11.031  11.290 -0.0079 -0.0822 -0.0098
 2469DPPE   PO451482   0.666  10.836  10.944  0.2898 -0.1803 -0.3227
 2469DPPE   GL151483   0.432  10.418  10.803 -0.1144  0.1526  0.0053
 2469DPPE   GL251484   0.229  10.370  10.576 -0.0254  0.2867  0.3276
 2469DPPE   C1A51485   0.504   9.969  10.692 -0.0709 -0.1777 -0.0968
 2469DPPE   C2A51486   0.255   9.639  10.712  0.0714  0.0346  0.0638
 2469DPPE   C3A51487   0.118   9.245  10.587  0.0706  0.0262 -0.1879
 2469DPPE   C4A51488   0.135   8.901  10.753 -0.0412  0.1924  0.1967
 2469DPPE   C1B51489   0.023  10.038  10.596 -0.0438  0.2880 -0.0187
 2469DPPE   C2B51490  -0.225   9.621  10.641  0.4278  0.1845  0.1719
 2469DPPE   C3B51491  -0.421   9.166  10.599 -0.0497  0.1097 -0.0380
 2469DPPE   C4B51492  -0.456   8.866  10.764 -0.0307 -0.0108  0.1782
 2470DPPE   NH351493  34.331  18.621  14.797  0.1479 -0.1548 -0.0625
 2470DPPE   PO451494  34.467  18.327  14.426  0.2999  0.1705  0.0493
 2470DPPE   GL151495  34.904  18.224  14.306  0.0134  0.0526 -0.0511
 2470DPPE   GL251496  34.866  17.856  14.149  0.0985 -0.0040  0.0845
 2470DPPE   C1A51497  35.331  18.076  14.359 -0.2137 -0.0810  0.1568
 2470DPPE   C2A51498  35.459  17.662  14.407 -0.2446  0.3035 -0.0014
 2470DPPE   C3A51499  35.680  17.183  14.368  0.0389 -0.0273  0.2914
 2470DPPE   C4A51500  35.921  16.986  14.012 -0.0018  0.0818 -0.0795
 2470DPPE   C1B51501  35.272  17.840  13.901  0.1504 -0.0957  0.0206
 2470DPPE   C2B51502  35.681  17.875  13.988  0.0829 -0.1329  0.0448
 2470DPPE   C3B51503  36.125  17.981  13.765 -0.0111 -0.0114  0.1302
 2470DPPE   C4B51504  36.558  17.825  13.872  0.1440  0.0419 -0.4524
 2471DPPE   NH351505  37.513  13.645   8.747  0.0878 -0.1965  0.2686
 2471DPPE   PO451506  37.378  14.021   8.562 -0.0924 -0.0298 -0.0544
 2471DPPE   GL151507  37.412  14.514   8.543 -0.1461 -0.2365  0.0865
 2471DPPE   GL251508  37.177  14.646   8.668  0.0594 -0.1844 -0.0750
 2471DPPE   C1A51509  37.790  14.779   8.429  0.0190  0.1761  0.1452
 2471DPPE   C2A51510  38.039  15.045   8.665 -0.0840 -0.3758 -0.1508
 2471DPPE   C3A51511  38.053  15.454   8.764 -0.0035 -0.1217 -0.1099
 2471DPPE   C4A51512  38.128  15.859   8.873 -0.2248  0.2264 -0.1790
 2471DPPE   C1B51513  37.551  14.921   8.921 -0.1919 -0.0405 -0.1360
 2471DPPE   C2B51514  37.550  15.375   8.851 -0.0448 -0.0921  0.0227
 2471DPPE   C3B51515  37.505  15.836   8.997  0.4202  0.1732  0.1276
 2471DPPE   C4B51516  37.100  15.611   8.901  0.0299 -0.0308  0.1333
 2472DPPE   NH351517  33.471  21.648  13.947 -0.4038  0.0739 -0.1702
 2472DPPE   PO451518  33.597  21.340  14.166 -0.0582  0.1831 -0.0708
 2472DPPE   GL151519  33.467  21.332  14.541  0.4019 -0.4086  0.2139
 2472DPPE   GL251520  33.442  21.054  14.558  0.1954  0.1204  0.2359
 2472DPPE   C1A51521  33.238  21.394  14.836 -0.0345  0.2259  0.0501
 2472DPPE   C2A51522  33.142  21.506  15.231 -0.0977  0.0408 -0.0286
 2472DPPE   C3A51523  33.266  21.655  15.614  0.0422  0.1375  0.2672
 2472DPPE   C4A51524  33.689  21.738  15.713 -0.2402  0.1877  0.2715
 2472DPPE   C1B51525  33.063  20.915  14.730 -0.2109  0.0580 -0.0026
 2472DPPE   C2B51526  32.612  20.765  14.678  0.4744 -0.1358  0.2538
 2472DPPE   C3B51527  32.096  20.770  14.616 -0.1984  0.0295 -0.1280
 2472DPPE   C4B51528  31.705  20.821  14.885 -0.2175 -0.1865 -0.0450
 2473DPPE   NH351529  36.454  13.958  10.778 -0.1749  0.0058  0.0482
 2473DPPE   PO451530  35.987  13.822  10.940  0.0912 -0.0959 -0.0537
 2473DPPE   GL151531  35.653  13.592  10.925  0.0052 -0.0407  0.1058
 2473DPPE   GL251532  35.588  13.392  11.178  0.2354 -0.0713 -0.3005
 2473DPPE   C1A51533  35.218  13.587  10.802 -0.1966  0.0449 -0.0020
 2473DPPE   C2A51534  34.819  13.368  10.664  0.2534 -0.0325  0.1527
 2473DPPE   C3A51535  34.395  13.066  10.540 -0.1115  0.0451  0.3499
 2473DPPE   C4A51536  34.033  13.061  10.425  0.0888  0.1568 -0.1138
 2473DPPE   C1B51537  35.136  13.390  11.247 -0.2875 -0.2154 -0.1829
 2473DPPE   C2B51538  34.796  13.400  11.208  0.1762 -0.0109 -0.0958
 2473DPPE   C3B51539  34.468  13.263  11.053  0.0003 -0.0712 -0.2013
 2473DPPE   C4B51540  34.087  13.274  10.887 -0.0156 -0.3060 -0.1544
 2474DPPE   NH351541  34.801  21.350   7.375 -0.2918  0.1658 -0.0184
 2474DPPE   PO451542  34.932  21.674   7.086  0.0623 -0.0712 -0.0975
 2474DPPE   GL151543  35.249  21.413   7.286  0.0899  0.2658  0.3006
 2474DPPE   GL251544  35.312  21.614   7.630  0.0985 -0.0502  0.0665
 2474DPPE   C1A51545  35.616  21.309   7.191  0.0734 -0.0471 -0.1962
 2474DPPE   C2A51546  35.972  21.470   7.114  0.2512  0.4082 -0.0872
 2474DPPE   C3A51547  36.464  21.546   7.142 -0.2697  0.2316 -0.0189
 2474DPPE   C4A51548  36.820  21.561   6.906 -0.1358  0.1949  0.1084
 2474DPPE   C1B51549  35.734  21.669   7.598 -0.2161  0.2821 -0.0740
 2474DPPE   C2B51550  36.101  21.816   7.816 -0.2609 -0.3358 -0.4145
 2474DPPE   C3B51551  36.461  21.621   7.691 -0.1232 -0.2287 -0.1627
 2474DPPE   C4B51552  36.830  21.721   7.456 -0.2476 -0.3627  0.0578
 2475DPPE   NH351553  36.484  18.392   2.684 -0.0389 -0.5447  0.2600
 2475DPPE   PO451554  36.470  18.749   2.696  0.1015  0.1284  0.0374
 2475DPPE   GL151555  36.157  18.914   2.504 -0.2483 -0.1128  0.3711
 2475DPPE   GL251556  36.402  19.135   2.266 -0.2344 -0.3539  0.0181
 2475DPPE   C1A51557  35.969  18.897   2.097 -0.1638 -0.0790 -0.3684
 2475DPPE   C2A51558  35.612  19.153   2.119  0.0447 -0.0868  0.0594
 2475DPPE   C3A51559  35.424  19.431   2.315 -0.1887  0.0106 -0.2377
 2475DPPE   C4A51560  35.210  19.723   2.322 -0.2667  0.1464  0.0614
 2475DPPE   C1B51561  36.806  19.290   2.073  0.0198  0.0365  0.0519
 2475DPPE   C2B51562  37.025  19.632   2.015  0.1797  0.0618 -0.0063
 2475DPPE   C3B51563  37.426  19.747   2.055 -0.1239 -0.0472  0.0362
 2475DPPE   C4B51564  37.758  19.714   2.330 -0.0785  0.0385 -0.2961
 2476DPPE   NH351565  32.803  22.510  11.630  0.0683 -0.2263 -0.0157
 2476DPPE   PO451566  33.079  22.591  12.062 -0.1177 -0.1310 -0.1317
 2476DPPE   GL151567  32.606  22.549  12.103  0.1095  0.0782 -0.0581
 2476DPPE   GL251568  32.502  22.853  12.081 -0.0478 -0.2463  0.2709
 2476DPPE   C1A51569  32.080  22.550  12.022  0.0918 -0.1803 -0.1143
 2476DPPE   C2A51570  31.734  22.224  12.074 -0.3868 -0.0889  0.1327
 2476DPPE   C3A51571  31.271  22.138  11.975 -0.0347 -0.1208 -0.3099
 2476DPPE   C4A51572  30.844  22.126  12.017 -0.0630  0.0234 -0.2868
 2476DPPE   C1B51573  32.416  23.080  12.522 -0.0879 -0.1951 -0.1633
 2476DPPE   C2B51574  32.336  22.987  12.957 -0.1056 -0.1080  0.0162
 2476DPPE   C3B51575  32.319  23.369  13.163  0.0241  0.1880  0.1034
 2476DPPE   C4B51576  32.552  23.639  13.142  0.0456  0.2548  0.2804
 2477DPPE   NH351577  37.114  17.798   2.901 -0.0266 -0.0306  0.4200
 2477DPPE   PO451578  37.591  17.835   2.741 -0.0441  0.2038 -0.0545
 2477DPPE   GL151579  37.769  18.019   2.398  0.1989 -0.1714 -0.1440
 2477DPPE   GL251580  38.010  17.868   2.171 -0.4230 -0.0751  0.2830
 2477DPPE   C1A51581  37.926  18.305   2.071  0.3392 -0.1236  0.2142
 2477DPPE   C2A51582  38.452  18.488   2.032 -0.1847 -0.3394 -0.1215
 2477DPPE   C3A51583  38.830  18.582   1.740  0.2986  0.0219 -0.2232
 2477DPPE   C4A51584  39.235  18.680   1.706  0.1866 -0.3345 -0.0315
 2477DPPE   C1B51585  37.578  17.784   1.819  0.1937  0.1523  0.3935
 2477DPPE   C2B51586  37.293  17.566   1.551  0.2662 -0.0608 -0.0206
 2477DPPE   C3B51587  36.950  17.583   1.215 -0.0662  0.2895 -0.1936
 2477DPPE   C4B51588  36.759  17.408   0.853  0.1867 -0.0758  0.2557
 2478DPPE   NH351589  36.416  14.914  17.126  0.1060  0.1973  0.3144
 2478DPPE   PO451590  36.778  15.164  17.420  0.3407  0.1350 -0.0705
 2478DPPE   GL151591  36.599  14.950  17.716  0.0162 -0.0279 -0.2840
 2478DPPE   GL251592  36.495  14.653  17.618 -0.1705  0.0040  0.3802
 2478DPPE   C1A51593  36.242  14.732  18.045  0.0047 -0.0929 -0.0181
 2478DPPE   C2A51594  35.913  14.383  18.006 -0.1111  0.0233 -0.4449
 2478DPPE   C3A51595  35.621  14.485  17.626  0.0327 -0.1599  0.0741
 2478DPPE   C4A51596  35.435  14.864  17.419  0.2040 -0.0175 -0.1680
 2478DPPE   C1B51597  36.497  14.334  17.781  0.0274  0.2180  0.0129
 2478DPPE   C2B51598  36.256  14.057  17.972  0.2208  0.0057 -0.2281
 2478DPPE   C3B51599  35.874  13.921  18.283 -0.0577  0.1815  0.2304
 2478DPPE   C4B51600  35.612  13.821  18.609 -0.2924  0.1211 -0.3048
 2479DPPE   NH351601   0.183  11.759   7.166  0.0711 -0.2061  0.1309
 2479DPPE   PO451602  -0.113  11.903   7.010 -0.0309  0.1819  0.0355
 2479DPPE   GL151603  -0.364  11.742   7.352 -0.2717 -0.4770  0.1163
 2479DPPE   GL251604  -0.409  11.884   7.493 -0.1517 -0.2073 -0.1505
 2479DPPE   C1A51605  -0.684  11.473   7.456 -0.0274  0.1486 -0.0374
 2479DPPE   C2A51606  -0.795  11.029   7.405 -0.0210  0.0439  0.1540
 2479DPPE   C3A51607  -0.710  10.650   7.096  0.0759 -0.0800 -0.0229
 2479DPPE   C4A51608  -0.541  10.324   6.864 -0.1965  0.0746 -0.0275
 2479DPPE   C1B51609  -0.820  11.794   7.116  0.1470 -0.0104 -0.0016
 2479DPPE   C2B51610  -1.082  11.535   6.875  0.0249 -0.0957  0.2704
 2479DPPE   C3B51611  -1.395  11.286   6.695  0.4237  0.2117  0.1701
 2479DPPE   C4B51612  -1.607  11.041   7.087  0.0299 -0.0401 -0.2700
 2480DPPE   NH351613  35.480  20.122  16.451  0.4063 -0.1726 -0.0036
 2480DPPE   PO451614  35.037  20.170  16.366  0.1415  0.1927  0.4153
 2480DPPE   GL151615  34.868  20.612  16.583 -0.1484  0.1419 -0.0346
 2480DPPE   GL251616  35.136  20.682  16.407  0.3745  0.0925 -0.1473
 2480DPPE   C1A51617  34.753  20.735  16.989 -0.0801  0.0665 -0.0102
 2480DPPE   C2A51618  34.339  20.594  17.127  0.0586 -0.1195 -0.0007
 2480DPPE   C3A51619  33.902  20.713  17.180  0.0185  0.3587 -0.0080
 2480DPPE   C4A51620  33.579  20.928  17.397 -0.0737 -0.3465  0.0275
 2480DPPE   C1B51621  35.240  20.973  16.666 -0.1293  0.0484  0.0315
 2480DPPE   C2B51622  34.928  21.224  17.001  0.1168 -0.0133  0.5601
 2480DPPE   C3B51623  34.734  21.523  17.200 -0.1043 -0.0763 -0.0476
 2480DPPE   C4B51624  34.538  21.660  17.657  0.1154 -0.2050  0.1807
 2481DPPE   NH351625  36.578  17.103   3.248  0.2345  0.0508  0.5143
 2481DPPE   PO451626  36.275  17.316   3.456  0.1016  0.4301  0.0692
 2481DPPE   GL151627  36.082  17.015   3.248 -0.0872  0.3627 -0.1784
 2481DPPE   GL251628  36.315  16.707   3.181 -0.4684  0.1025  0.1062
 2481DPPE   C1A51629  35.817  17.028   2.878 -0.1761  0.1418  0.0430
 2481DPPE   C2A51630  35.676  17.153   2.500  0.1461 -0.0953 -0.3217
 2481DPPE   C3A51631  35.680  16.944   2.119  0.3138  0.2529  0.0235
 2481DPPE   C4A51632  35.671  16.583   1.838 -0.2664  0.0436  0.1280
 2481DPPE   C1B51633  36.035  16.551   2.874 -0.3649  0.0270  0.5283
 2481DPPE   C2B51634  35.689  16.379   2.691 -0.0417 -0.3385 -0.2273
 2481DPPE   C3B51635  35.370  16.705   2.467 -0.1426 -0.1723  0.1058
 2481DPPE   C4B51636  35.127  16.596   2.027  0.1143  0.2057  0.0249
 2482DPPE   NH351637  33.023  22.028   8.857  0.2130 -0.0454 -0.1245
 2482DPPE   PO451638  33.094  22.101   9.323 -0.1031 -0.2850  0.1583
 2482DPPE   GL151639  32.802  22.405   9.133  0.1387 -0.0814  0.2808
 2482DPPE   GL251640  32.576  22.381   8.826  0.0420  0.3319 -0.1752
 2482DPPE   C1A51641  32.333  22.557   9.189  0.1529  0.2091  0.1188
 2482DPPE   C2A51642  31.885  22.829   9.299 -0.2153 -0.0344 -0.0902
 2482DPPE   C3A51643  31.594  23.000   9.044  0.2833 -0.0297 -0.0596
 2482DPPE   C4A51644  31.424  23.493   9.033 -0.1705  0.0813  0.1021
 2482DPPE   C1B51645  32.163  22.424   8.733  0.2171 -0.0902 -0.0438
 2482DPPE   C2B51646  31.814  22.396   9.000  0.3707  0.3765  0.0712
 2482DPPE   C3B51647  31.584  22.462   9.386  0.1412  0.4397  0.0694
 2482DPPE   C4B51648  31.333  22.564   9.677  0.1098 -0.0300  0.1701
 2483DPPE   NH351649  35.410  19.726   5.832 -0.1979 -0.0026  0.0402
 2483DPPE   PO451650  35.764  19.739   5.512  0.5287 -0.4795 -0.1800
 2483DPPE   GL151651  36.108  19.643   5.569  0.0835 -0.1688 -0.0716
 2483DPPE   GL251652  36.154  19.407   5.291 -0.1710 -0.2645  0.2747
 2483DPPE   C1A51653  36.517  19.506   5.660 -0.1566  0.3544  0.0939
 2483DPPE   C2A51654  36.956  19.562   5.735  0.0054 -0.1175 -0.0139
 2483DPPE   C3A51655  37.343  19.846   5.592  0.0659  0.3086 -0.0582
 2483DPPE   C4A51656  37.671  20.157   5.378  0.0747 -0.2350  0.2364
 2483DPPE   C1B51657  36.696  19.462   5.208 -0.1523 -0.1240 -0.1804
 2483DPPE   C2B51658  37.096  19.645   5.199 -0.3742 -0.0807 -0.1036
 2483DPPE   C3B51659  37.584  19.712   5.191  0.0717  0.2449  0.0173
 2483DPPE   C4B51660  37.948  19.793   5.154  0.0038 -0.0949  0.0800
 2484DPPE   NH351661  35.970  14.692  10.650 -0.3641 -0.0396  0.4940
 2484DPPE   PO451662  36.272  14.361  10.584  0.0838  0.1089  0.1887
 2484DPPE   GL151663  36.781  14.342  10.572  0.2789  0.0676 -0.2224
 2484DPPE   GL251664  36.918  14.182  10.285 -0.2004 -0.0053 -0.2074
 2484DPPE   C1A51665  37.208  14.423  10.707 -0.1210 -0.2633 -0.0941
 2484DPPE   C2A51666  37.500  14.455  10.435 -0.0007  0.0007 -0.0133
 2484DPPE   C3A51667  37.919  14.673  10.296  0.0168 -0.1655  0.2167
 2484DPPE   C4A51668  38.389  14.812  10.416  0.1397 -0.1413  0.2566
 2484DPPE   C1B51669  37.319  14.176  10.039 -0.0177 -0.0278  0.0338
 2484DPPE   C2B51670  37.663  14.428   9.881 -0.1321 -0.0942  0.5489
 2484DPPE   C3B51671  37.949  14.678   9.767  0.0933 -0.0488  0.0881
 2484DPPE   C4B51672  38.286  14.946   9.872 -0.1670  0.0521  0.0052
 2485DPPE   NH351673  33.217  21.625   9.343  0.0747  0.1358 -0.2837
 2485DPPE   PO451674  33.378  21.678   8.952  0.1300  0.2093 -0.0132
 2485DPPE   GL151675  32.912  21.510   8.843 -0.0373  0.0683 -0.0452
 2485DPPE   GL251676  32.869  21.637   8.549  0.1303  0.0355 -0.0722
 2485DPPE   C1A51677  32.445  21.447   8.737  0.0688 -0.0763 -0.2845
 2485DPPE   C2A51678  32.045  21.551   8.890  0.1851  0.0244  0.1789
 2485DPPE   C3A51679  31.554  21.579   8.969 -0.1556  0.2303  0.0951
 2485DPPE   C4A51680  31.335  21.227   8.975 -0.0712  0.0728  0.3692
 2485DPPE   C1B51681  32.422  21.952   8.516 -0.2662  0.4133  0.0889
 2485DPPE   C2B51682  32.075  22.196   8.232  0.1276 -0.0850  0.1978
 2485DPPE   C3B51683  31.732  22.453   8.283 -0.1974 -0.2053 -0.0782
 2485DPPE   C4B51684  31.313  22.286   8.395 -0.2523 -0.3620  0.1878
 2486DPPE   NH351685  37.521  15.354  15.997  0.0351  0.2040 -0.0071
 2486DPPE   PO451686  37.236  15.298  15.634 -0.2230 -0.1729  0.0520
 2486DPPE   GL151687  37.608  15.621  15.571 -0.0781 -0.3272  0.2944
 2486DPPE   GL251688  37.762  15.620  15.147  0.1385 -0.1980 -0.1647
 2486DPPE   C1A51689  37.857  15.899  15.748  0.0348 -0.0114 -0.1447
 2486DPPE   C2A51690  38.155  16.213  15.785  0.2278  0.3873  0.1265
 2486DPPE   C3A51691  38.500  16.494  15.537 -0.0179 -0.2908 -0.3750
 2486DPPE   C4A51692  38.743  16.703  15.268 -0.0144  0.0311  0.1680
 2486DPPE   C1B51693  37.655  16.016  15.238  0.0536 -0.3547  0.0515
 2486DPPE   C2B51694  37.722  16.377  15.329 -0.0901  0.1660 -0.0464
 2486DPPE   C3B51695  38.025  16.673  15.417  0.1146 -0.0656  0.2604
 2486DPPE   C4B51696  38.410  17.014  15.436  0.1792 -0.1162 -0.1914
 2487DPPE   NH351697  37.512  15.498   3.896  0.0490 -0.1767  0.0220
 2487DPPE   PO451698  37.541  15.739   3.439  0.0995  0.0780  0.0204
 2487DPPE   GL151699  37.369  15.579   3.009 -0.0670 -0.1915  0.1875
 2487DPPE   GL251700  37.443  15.582   2.613  0.3528  0.1761 -0.3426
 2487DPPE   C1A51701  36.970  15.593   2.807  0.0016  0.2653 -0.0453
 2487DPPE   C2A51702  36.680  15.387   2.469  0.5715  0.0092  0.2937
 2487DPPE   C3A51703  36.771  15.213   2.068  0.0251 -0.2972  0.3657
 2487DPPE   C4A51704  36.858  15.123   1.592  0.0192 -0.0823  0.2044
 2487DPPE   C1B51705  37.190  15.190   2.491 -0.3765 -0.1543 -0.0237
 2487DPPE   C2B51706  37.271  14.871   2.211 -0.0612  0.0734 -0.0023
 2487DPPE   C3B51707  37.046  14.602   1.839  0.0170 -0.0330  0.2003
 2487DPPE   C4B51708  37.042  14.592   1.459  0.0694 -0.1056  0.0359
 2488DPPE   NH351709  35.850  15.730  13.393  0.1418  0.2516 -0.2586
 2488DPPE   PO451710  36.081  15.671  13.751 -0.1954  0.1232  0.0564
 2488DPPE   GL151711  36.541  15.667  13.710  0.1776 -0.0072 -0.2495
 2488DPPE   GL251712  36.619  15.369  13.613  0.3188  0.1254 -0.1430
 2488DPPE   C1A51713  36.659  16.162  13.806  0.3205  0.0199 -0.2275
 2488DPPE   C2A51714  36.868  16.552  13.812 -0.1761 -0.1263 -0.0160
 2488DPPE   C3A51715  37.102  16.943  13.847  0.2503  0.0005 -0.1087
 2488DPPE   C4A51716  37.447  17.204  13.688  0.1967  0.0479 -0.3252
 2488DPPE   C1B51717  37.034  15.483  13.414  0.2029 -0.1814  0.0966
 2488DPPE   C2B51718  37.347  15.708  13.366  0.1114 -0.2645  0.0742
 2488DPPE   C3B51719  37.676  15.929  13.375 -0.3407  0.1723  0.0216
 2488DPPE   C4B51720  38.081  16.018  13.469 -0.2090  0.0090 -0.1202
 2489DPPE   NH351721   1.791  10.418   7.255 -0.1445  0.2851  0.1872
 2489DPPE   PO451722   1.735  10.540   6.847  0.1009 -0.2957 -0.2404
 2489DPPE   GL151723   1.662  10.171   6.685  0.2493 -0.1199 -0.0150
 2489DPPE   GL251724   1.939  10.229   6.485 -0.2049 -0.1443 -0.3569
 2489DPPE   C1A51725   1.615   9.866   6.289  0.3392 -0.1525 -0.0541
 2489DPPE   C2A51726   1.859   9.540   6.134  0.3532 -0.2968  0.2151
 2489DPPE   C3A51727   2.158   9.523   5.786 -0.0401  0.1370  0.1382
 2489DPPE   C4A51728   2.386   9.625   5.345  0.0229 -0.1122 -0.0698
 2489DPPE   C1B51729   2.015   9.839   6.705 -0.2640 -0.1389  0.4044
 2489DPPE   C2B51730   2.109   9.375   6.695 -0.0940 -0.2152 -0.0150
 2489DPPE   C3B51731   2.185   9.202   6.336 -0.0735  0.2345  0.0420
 2489DPPE   C4B51732   2.483   9.256   6.088  0.0859 -0.1785 -0.0673
 2490DPPE   NH351733  34.658  16.998  15.531  0.0070  0.2538  0.0338
 2490DPPE   PO451734  34.500  16.763  15.292 -0.0794  0.1113 -0.2305
 2490DPPE   GL151735  34.032  16.581  15.424 -0.0726  0.2436  0.0474
 2490DPPE   GL251736  34.051  16.544  15.759  0.1734  0.3046 -0.0046
 2490DPPE   C1A51737  33.566  16.597  15.208  0.1167  0.3273 -0.0194
 2490DPPE   C2A51738  33.126  16.314  15.177 -0.4040 -0.1669  0.0326
 2490DPPE   C3A51739  32.766  16.075  15.400 -0.0792  0.1305  0.2738
 2490DPPE   C4A51740  32.458  15.737  15.368 -0.2392  0.0665  0.1447
 2490DPPE   C1B51741  33.724  16.186  15.761 -0.4380 -0.1068 -0.0121
 2490DPPE   C2B51742  33.729  15.695  15.804 -0.0058  0.2530 -0.0431
 2490DPPE   C3B51743  33.723  15.332  16.149  0.0698  0.3426  0.4377
 2490DPPE   C4B51744  33.761  14.872  16.415 -0.0986  0.0655 -0.0424
 2491DPPE   NH351745  37.425  13.428  15.678 -0.0963 -0.0307  0.3116
 2491DPPE   PO451746  37.895  13.248  15.604  0.0112 -0.1767 -0.0186
 2491DPPE   GL151747  37.698  12.960  15.674  0.2499 -0.2095 -0.1081
 2491DPPE   GL251748  37.939  12.802  15.877 -0.1521  0.0263  0.1211
 2491DPPE   C1A51749  37.532  12.591  15.811  0.1679  0.2944  0.0057
 2491DPPE   C2A51750  37.436  12.124  15.743 -0.2019  0.0621 -0.0021
 2491DPPE   C3A51751  37.208  11.698  15.886 -0.4862 -0.3055  0.0905
 2491DPPE   C4A51752  36.688  11.538  15.991 -0.1428 -0.0070 -0.1816
 2491DPPE   C1B51753  37.925  12.313  16.000  0.0160 -0.4758 -0.1776
 2491DPPE   C2B51754  38.188  12.005  16.088 -0.3615  0.2765 -0.5102
 2491DPPE   C3B51755  38.161  11.505  16.172 -0.2373 -0.1864  0.0443
 2491DPPE   C4B51756  38.219  11.247  16.413  0.1153 -0.0839  0.1845
 2492DPPE   NH351757   1.959  10.601   8.439  0.0469  0.0555  0.0225
 2492DPPE   PO451758   1.716  10.235   8.140 -0.2110 -0.3763  0.1255
 2492DPPE   GL151759   1.582   9.933   8.079  0.2315  0.2025 -0.4667
 2492DPPE   GL251760   1.266   9.894   7.991 -0.1056  0.0156 -0.0724
 2492DPPE   C1A51761   1.473   9.544   8.263  0.0799  0.3113 -0.1928
 2492DPPE   C2A51762   1.619   9.127   8.238 -0.0696 -0.0369 -0.1115
 2492DPPE   C3A51763   1.293   8.866   8.361  0.0975 -0.1051  0.0786
 2492DPPE   C4A51764   1.347   8.645   8.673  0.0359 -0.0623 -0.0605
 2492DPPE   C1B51765   1.091   9.520   7.807 -0.2025  0.0360  0.0495
 2492DPPE   C2B51766   1.075   9.202   8.002 -0.3586  0.1418 -0.1490
 2492DPPE   C3B51767   0.835   8.834   8.043  0.0079 -0.4023 -0.1260
 2492DPPE   C4B51768   0.627   8.458   8.169 -0.2452 -0.0271  0.0514
 2493DPPE   NH351769  33.897  16.608  11.681  0.0523 -0.1008 -0.1047
 2493DPPE   PO451770  33.729  16.985  11.562  0.1350  0.1118  0.1976
 2493DPPE   GL151771  33.377  16.762  11.715 -0.2624 -0.0337 -0.1781
 2493DPPE   GL251772  33.123  17.000  11.649  0.0001  0.0048  0.1292
 2493DPPE   C1A51773  33.055  16.429  11.641 -0.2497  0.1879  0.0226
 2493DPPE   C2A51774  32.838  16.053  11.413  0.2396  0.2021  0.0494
 2493DPPE   C3A51775  32.877  15.981  11.044 -0.1743 -0.2184 -0.5134
 2493DPPE   C4A51776  32.988  16.093  10.613  0.0164 -0.1260  0.1576
 2493DPPE   C1B51777  32.827  16.769  11.394  0.2286 -0.1701  0.3170
 2493DPPE   C2B51778  32.512  16.432  11.470 -0.0082 -0.0373 -0.1245
 2493DPPE   C3B51779  32.380  16.059  11.168 -0.2674 -0.0119 -0.1485
 2493DPPE   C4B51780  32.553  15.799  10.736 -0.3213 -0.1272 -0.1921
 2494DPPE   NH351781   0.824  12.173   4.837  0.1157 -0.3080 -0.0026
 2494DPPE   PO451782   1.121  11.881   4.823 -0.4406 -0.0767  0.0028
 2494DPPE   GL151783   0.940  11.592   4.646 -0.2012  0.0558  0.0818
 2494DPPE   GL251784   1.150  11.528   4.506 -0.3139  0.2588 -0.1519
 2494DPPE   C1A51785   0.811  11.233   4.542 -0.0934 -0.0266 -0.1350
 2494DPPE   C2A51786   0.775  10.727   4.523  0.0820  0.0889  0.0004
 2494DPPE   C3A51787   0.284  10.481   4.446 -0.0710  0.0235 -0.5290
 2494DPPE   C4A51788   0.064  10.295   4.173  0.1973 -0.2344 -0.0074
 2494DPPE   C1B51789   1.216  11.071   4.362 -0.2431  0.1249  0.1219
 2494DPPE   C2B51790   1.040  10.964   4.038 -0.1243  0.1299  0.4354
 2494DPPE   C3B51791   0.704  10.665   3.973  0.2741  0.1007 -0.0004
 2494DPPE   C4B51792   0.901  10.368   3.673 -0.0126  0.0022  0.1406
 2495DPPE   NH351793  33.444  22.843   8.882  0.0040 -0.2298  0.1060
 2495DPPE   PO451794  33.228  22.513   8.860  0.2007 -0.0613 -0.2162
 2495DPPE   GL151795  32.932  22.824   8.776 -0.1516  0.1106 -0.0321
 2495DPPE   GL251796  32.863  23.110   8.540  0.0570 -0.3183  0.0044
 2495DPPE   C1A51797  32.539  22.919   8.870 -0.1255 -0.3331  0.0032
 2495DPPE   C2A51798  32.067  22.933   8.807 -0.0079 -0.4120  0.1927
 2495DPPE   C3A51799  31.751  22.752   8.635  0.0703  0.2996 -0.1811
 2495DPPE   C4A51800  31.332  22.527   8.826  0.1437  0.4102 -0.2213
 2495DPPE   C1B51801  32.640  23.330   8.290  0.4091  0.1645  0.2203
 2495DPPE   C2B51802  32.574  23.461   7.927 -0.0789  0.2138 -0.0182
 2495DPPE   C3B51803  32.462  23.850   7.778 -0.0803 -0.3184 -0.1757
 2495DPPE   C4B51804  32.325  24.014   7.387  0.0765  0.2570 -0.2319
 2496DPPE   NH351805  38.282  11.775  13.512  0.3129  0.0638  0.0910
 2496DPPE   PO451806  37.917  11.917  13.387  0.1639  0.0908 -0.0915
 2496DPPE   GL151807  37.561  11.746  13.361 -0.0829  0.5305 -0.2254
 2496DPPE   GL251808  37.338  11.772  13.627  0.2350  0.2512 -0.2350
 2496DPPE   C1A51809  37.161  11.367  13.314  0.4182  0.0162 -0.2994
 2496DPPE   C2A51810  36.692  11.235  13.243  0.3533  0.0857 -0.1004
 2496DPPE   C3A51811  36.291  10.985  13.177  0.0524  0.0656  0.0909
 2496DPPE   C4A51812  35.864  10.821  13.048 -0.2671 -0.0856  0.1938
 2496DPPE   C1B51813  37.192  11.504  13.764 -0.0752 -0.0226  0.0997
 2496DPPE   C2B51814  36.937  11.149  13.699 -0.1471 -0.0784  0.2280
 2496DPPE   C3B51815  36.688  10.751  13.562  0.0333  0.1329 -0.0634
 2496DPPE   C4B51816  36.445  10.411  13.571 -0.4052  0.1921 -0.2456
 2497DPPE   NH351817  33.958  20.426   6.007 -0.1328 -0.1216  0.0445
 2497DPPE   PO451818  33.942  20.792   6.334  0.1052  0.1540 -0.2502
 2497DPPE   GL151819  33.549  20.772   6.158 -0.0764  0.0014  0.0985
 2497DPPE   GL251820  33.503  20.645   5.849  0.3824 -0.1851 -0.0652
 2497DPPE   C1A51821  33.071  20.853   6.093  0.4176  0.3326  0.0722
 2497DPPE   C2A51822  32.726  21.073   5.975 -0.0477 -0.2455 -0.0176
 2497DPPE   C3A51823  32.466  20.728   5.890 -0.0323  0.0556 -0.0206
 2497DPPE   C4A51824  32.064  20.625   6.161 -0.2436 -0.1962  0.0277
 2497DPPE   C1B51825  33.249  20.965   5.639  0.1626 -0.1158 -0.1945
 2497DPPE   C2B51826  33.158  21.021   5.297 -0.0478 -0.2799  0.1770
 2497DPPE   C3B51827  33.075  21.149   4.915 -0.0198 -0.1675 -0.1214
 2497DPPE   C4B51828  33.185  21.384   4.632  0.0504  0.0302 -0.2317
 2498DPPE   NH351829   2.551  11.102  12.253  0.0750  0.1879  0.1532
 2498DPPE   PO451830   2.792  11.238  11.919  0.0039 -0.1528 -0.0165
 2498DPPE   GL151831   3.072  11.508  11.684  0.0900  0.1657 -0.3998
 2498DPPE   GL251832   3.361  11.347  11.826 -0.3333  0.0635 -0.2890
 2498DPPE   C1A51833   3.315  11.784  11.753 -0.0190  0.2177  0.2309
 2498DPPE   C2A51834   3.671  11.902  11.868  0.1414 -0.1774 -0.0641
 2498DPPE   C3A51835   4.021  11.778  11.693  0.0276 -0.1543  0.1998
 2498DPPE   C4A51836   4.504  11.791  11.810 -0.3683 -0.4022  0.1956
 2498DPPE   C1B51837   3.795  11.372  11.840 -0.2992  0.0147  0.2370
 2498DPPE   C2B51838   4.300  11.330  12.012 -0.0592 -0.1015 -0.0059
 2498DPPE   C3B51839   4.689  11.330  12.110  0.0067 -0.2364  0.1020
 2498DPPE   C4B51840   5.076  11.164  12.051  0.3356 -0.3439 -0.3277
 2499DPPE   NH351841  36.538  14.180  14.531  0.2879 -0.0221  0.1927
 2499DPPE   PO451842  36.368  13.998  14.181  0.1016  0.2011  0.2086
 2499DPPE   GL151843  36.229  13.699  14.164 -0.0340 -0.0523 -0.0141
 2499DPPE   GL251844  36.306  13.629  14.503  0.0171 -0.0989  0.0572
 2499DPPE   C1A51845  35.807  13.502  14.172  0.0026 -0.1595 -0.0622
 2499DPPE   C2A51846  35.419  13.295  14.057  0.2129 -0.1063 -0.1026
 2499DPPE   C3A51847  35.048  12.999  14.255 -0.3137  0.0394  0.2343
 2499DPPE   C4A51848  35.034  12.849  14.698 -0.0756 -0.0945  0.1378
 2499DPPE   C1B51849  36.108  13.308  14.565  0.2183  0.2832  0.2905
 2499DPPE   C2B51850  35.869  12.957  14.691 -0.3962 -0.0790 -0.2486
 2499DPPE   C3B51851  35.504  12.705  14.822 -0.0273  0.1972  0.0080
 2499DPPE   C4B51852  35.278  12.363  14.875 -0.1148  0.0937 -0.0792
 2500DPPE   NH351853   2.550  11.576  11.508  0.1948  0.0933 -0.1557
 2500DPPE   PO451854   2.375  11.813  11.197  0.0033 -0.1176 -0.0478
 2500DPPE   GL151855   2.523  12.105  11.117  0.4699 -0.2190  0.0180
 2500DPPE   GL251856   2.359  12.416  11.083 -0.0027  0.2306 -0.0086
 2500DPPE   C1A51857   2.882  12.409  11.326  0.2090 -0.0373 -0.2559
 2500DPPE   C2A51858   3.141  12.759  11.353  0.2253 -0.0688 -0.0123
 2500DPPE   C3A51859   3.251  13.157  11.243  0.1340 -0.0267  0.5644
 2500DPPE   C4A51860   3.264  13.364  11.493 -0.0909  0.3578  0.0749
 2500DPPE   C1B51861   2.617  12.767  11.065  0.1824 -0.2173 -0.1061
 2500DPPE   C2B51862   2.943  12.978  10.906  0.2610 -0.0778 -0.2764
 2500DPPE   C3B51863   3.067  13.438  10.794  0.0935  0.1960 -0.0124
 2500DPPE   C4B51864   2.689  13.683  10.714 -0.2716 -0.0241  0.0860
 2501DPPE   NH351865  34.626  17.090  11.092  0.3083  0.0343 -0.0003
 2501DPPE   PO451866  34.701  16.801  10.808  0.1500  0.0244  0.0940
 2501DPPE   GL151867  35.084  16.848  11.006 -0.0657  0.1538  0.2417
 2501DPPE   GL251868  35.397  16.742  10.938  0.1260 -0.1655 -0.1990
 2501DPPE   C1A51869  35.423  17.142  11.361  0.0957  0.2320  0.1059
 2501DPPE   C2A51870  35.655  17.444  11.224 -0.1918  0.0811 -0.0254
 2501DPPE   C3A51871  36.049  17.693  11.077  0.1957 -0.0499 -0.2904
 2501DPPE   C4A51872  36.383  17.945  11.178  0.0554 -0.2244 -0.0205
 2501DPPE   C1B51873  35.822  16.835  10.767 -0.0470 -0.0745 -0.3552
 2501DPPE   C2B51874  36.328  16.813  10.835  0.1119 -0.4786  0.0841
 2501DPPE   C3B51875  36.651  17.031  10.620  0.1912  0.1970 -0.0847
 2501DPPE   C4B51876  37.083  17.094  10.604 -0.1109 -0.0899 -0.0728
 2502DPPE   NH351877   1.059  11.150  14.321 -0.0974  0.0310 -0.4797
 2502DPPE   PO451878   0.844  11.557  14.422  0.3246  0.2585  0.0199
 2502DPPE   GL151879   0.745  11.234  14.791 -0.4084 -0.0720 -0.1445
 2502DPPE   GL251880   0.851  10.943  14.741 -0.2033  0.0523 -0.0755
 2502DPPE   C1A51881   0.761  11.002  15.241 -0.4210 -0.0543 -0.1639
 2502DPPE   C2A51882   0.670  10.596  15.393 -0.0662  0.1044 -0.0462
 2502DPPE   C3A51883   0.239  10.391  15.474  0.1583 -0.2159  0.3256
 2502DPPE   C4A51884  -0.078  10.144  15.703 -0.0566 -0.0052  0.0693
 2502DPPE   C1B51885   0.845  10.514  14.932 -0.0315  0.0933  0.2701
 2502DPPE   C2B51886   0.469  10.315  15.031  0.0442 -0.0670 -0.1013
 2502DPPE   C3B51887   0.373   9.945  15.176  0.1380 -0.0610 -0.2365
 2502DPPE   C4B51888   0.538   9.577  15.373  0.3157  0.0869  0.0801
 2503DPPE   NH351889  35.657  17.254   6.688  0.1984  0.0149  0.3444
 2503DPPE   PO451890  35.875  17.513   6.826 -0.0746 -0.2931 -0.0226
 2503DPPE   GL151891  36.226  17.695   6.977 -0.1497  0.0764 -0.0241
 2503DPPE   GL251892  36.175  17.613   7.282  0.3313  0.1472 -0.0337
 2503DPPE   C1A51893  36.557  18.099   6.985 -0.0607 -0.2599  0.0258
 2503DPPE   C2A51894  37.004  18.171   7.071 -0.0775 -0.2587  0.1636
 2503DPPE   C3A51895  37.307  18.361   7.335 -0.0039 -0.3701 -0.2446
 2503DPPE   C4A51896  37.047  18.592   7.672 -0.1193 -0.3769 -0.0248
 2503DPPE   C1B51897  36.578  17.893   7.372  0.1108 -0.0154  0.1674
 2503DPPE   C2B51898  36.754  18.308   7.426  0.0471  0.0150 -0.0994
 2503DPPE   C3B51899  36.689  18.793   7.375 -0.1538 -0.0829 -0.4175
 2503DPPE   C4B51900  36.804  19.246   7.362  0.2564  0.0039  0.2669
 2504DPPE   NH351901  37.074  14.170  17.018 -0.0983 -0.2006 -0.2640
 2504DPPE   PO451902  37.415  14.330  17.095  0.0406  0.3352  0.0386
 2504DPPE   GL151903  37.209  14.352  17.465 -0.0150  0.3546 -0.1675
 2504DPPE   GL251904  37.126  14.738  17.702  0.1267  0.1401 -0.2269
 2504DPPE   C1A51905  36.949  14.216  17.748 -0.2319 -0.0249  0.1397
 2504DPPE   C2A51906  36.755  13.941  18.067 -0.0902 -0.0055 -0.3148
 2504DPPE   C3A51907  36.459  13.685  18.307  0.1338 -0.0944 -0.0839
 2504DPPE   C4A51908  36.316  13.545  18.646  0.1869  0.1025  0.0804
 2504DPPE   C1B51909  36.816  14.669  18.041 -0.1385  0.4615 -0.3181
 2504DPPE   C2B51910  36.591  14.404  18.270  0.2920 -0.1967 -0.0925
 2504DPPE   C3B51911  36.347  14.241  18.537  0.3340  0.0737 -0.1919
 2504DPPE   C4B51912  36.010  13.992  18.780 -0.2469 -0.1321 -0.0556
 2505DPPE   NH351913   0.507  15.064  18.224  0.2186 -0.0555  0.0228
 2505DPPE   PO451914   0.327  14.943  18.505 -0.0896  0.2104 -0.4254
 2505DPPE   GL151915   0.630  14.750  18.832  0.2741  0.2386  0.1420
 2505DPPE   GL251916   0.848  14.718  18.563  0.1023  0.2421 -0.1886
 2505DPPE   C1A51917   1.061  15.002  18.856 -0.2161 -0.2504 -0.0647
 2505DPPE   C2A51918   1.497  15.127  18.757  0.1561 -0.2062  0.2490
 2505DPPE   C3A51919   1.812  15.399  18.790  0.0157  0.5482 -0.1313
 2505DPPE   C4A51920   1.764  15.762  19.004  0.0868  0.3692  0.2201
 2505DPPE   C1B51921   1.259  14.699  18.501 -0.3492 -0.2545  0.3110
 2505DPPE   C2B51922   1.743  14.719  18.555 -0.2250  0.2064 -0.0090
 2505DPPE   C3B51923   1.830  14.211  18.610  0.2378 -0.2367 -0.2351
 2505DPPE   C4B51924   1.945  13.932  18.398 -0.2061 -0.1398  0.3602
 2506DPPE   NH351925   1.985  12.038  13.318  0.0499 -0.0079 -0.2053
 2506DPPE   PO451926   2.437  12.010  13.266  0.3371 -0.0731 -0.1247
 2506DPPE   GL151927   2.718  12.324  13.212  0.0442 -0.1448  0.3068
 2506DPPE   GL251928   2.894  12.299  13.538  0.1909 -0.0529 -0.0857
 2506DPPE   C1A51929   2.958  12.604  13.017  0.0656  0.1831  0.2665
 2506DPPE   C2A51930   3.180  12.724  12.664 -0.0670  0.0284  0.1491
 2506DPPE   C3A51931   3.381  12.566  12.285 -0.0599  0.1831 -0.0017
 2506DPPE   C4A51932   3.767  12.490  12.056 -0.3528 -0.0226 -0.0334
 2506DPPE   C1B51933   3.253  12.361  13.373 -0.0081 -0.2481  0.0297
 2506DPPE   C2B51934   3.637  12.454  13.505  0.0308 -0.1229  0.3500
 2506DPPE   C3B51935   3.936  12.359  13.790  0.0916  0.0959  0.1839
 2506DPPE   C4B51936   4.203  12.295  14.120  0.1592 -0.1169 -0.0899
 2507DPPE   NH351937   1.949  11.342   6.482 -0.1298  0.1644  0.1273
 2507DPPE   PO451938   1.661  11.157   6.108  0.1814 -0.2598 -0.0546
 2507DPPE   GL151939   1.443  10.874   5.962  0.1307  0.1589 -0.1992
 2507DPPE   GL251940   1.247  11.016   5.771 -0.2197 -0.0422 -0.0725
 2507DPPE   C1A51941   1.284  10.540   5.736 -0.1767  0.1267  0.0215
 2507DPPE   C2A51942   1.010  10.178   5.715  0.0333  0.0773  0.1113
 2507DPPE   C3A51943   0.860   9.774   5.564 -0.1065 -0.0098  0.2090
 2507DPPE   C4A51944   0.508   9.785   5.265  0.0351 -0.0164  0.2979
 2507DPPE   C1B51945   0.928  10.907   5.457 -0.0400 -0.0628  0.2169
 2507DPPE   C2B51946   0.535  10.768   5.163 -0.0087 -0.1158 -0.0494
 2507DPPE   C3B51947   0.240  10.528   4.933 -0.1206 -0.3392  0.3178
 2507DPPE   C4B51948   0.134  10.196   5.099 -0.0357 -0.0544  0.1010
 2508DPPE   NH351949  38.004  13.041   5.123  0.1255  0.2194 -0.0607
 2508DPPE   PO451950  37.904  13.256   5.493 -0.4674  0.2056  0.0863
 2508DPPE   GL151951  37.499  13.040   5.387 -0.2462  0.0119 -0.1733
 2508DPPE   GL251952  37.619  12.753   5.367  0.3227 -0.1530  0.1182
 2508DPPE   C1A51953  37.114  12.838   5.357 -0.1404 -0.2917  0.1048
 2508DPPE   C2A51954  36.987  12.492   5.199  0.0991 -0.1019  0.0934
 2508DPPE   C3A51955  36.885  12.072   4.921 -0.0306 -0.2933  0.3909
 2508DPPE   C4A51956  37.012  11.730   4.672 -0.4542  0.3104 -0.0969
 2508DPPE   C1B51957  37.458  12.495   5.151 -0.3993  0.0753 -0.1490
 2508DPPE   C2B51958  37.337  12.040   5.097  0.2406  0.1177 -0.1010
 2508DPPE   C3B51959  37.084  11.614   5.212  0.2777 -0.0345  0.0889
 2508DPPE   C4B51960  36.797  11.228   5.194 -0.1239 -0.0761 -0.4665
 2509DPPE   NH351961  37.742  12.481  14.814 -0.0495 -0.2174  0.3568
 2509DPPE   PO451962  38.047  12.348  14.464  0.2904  0.1158 -0.0006
 2509DPPE   GL151963  37.869  11.945  14.797 -0.4037 -0.1730 -0.1377
 2509DPPE   GL251964  37.628  12.054  15.076 -0.3542  0.3186 -0.1137
 2509DPPE   C1A51965  37.575  11.584  14.755  0.1583  0.1559 -0.0632
 2509DPPE   C2A51966  37.315  11.267  14.853 -0.2530  0.0354  0.1508
 2509DPPE   C3A51967  37.245  11.059  14.512 -0.0130  0.0276 -0.0563
 2509DPPE   C4A51968  37.289  10.980  14.153 -0.0341  0.2328  0.0947
 2509DPPE   C1B51969  37.370  11.733  15.363  0.1687  0.2677 -0.0883
 2509DPPE   C2B51970  37.180  11.434  15.312 -0.0041  0.0523 -0.0016
 2509DPPE   C3B51971  37.245  11.040  15.335  0.2506 -0.0741 -0.2677
 2509DPPE   C4B51972  36.992  10.794  15.453 -0.1168  0.0311  0.0441
 2510DPPE   NH351973  38.284  15.207   3.022 -0.1724  0.0207 -0.1354
 2510DPPE   PO451974  38.301  15.685   2.999  0.0617  0.0396  0.0188
 2510DPPE   GL151975  38.276  15.534   2.577  0.1475  0.1755 -0.1935
 2510DPPE   GL251976  38.496  15.664   2.324 -0.1432  0.0107  0.1248
 2510DPPE   C1A51977  38.168  15.130   2.313 -0.1382 -0.1231 -0.1501
 2510DPPE   C2A51978  38.227  14.735   2.166 -0.0921 -0.1605 -0.0745
 2510DPPE   C3A51979  38.200  14.655   1.749  0.0401  0.1005  0.0334
 2510DPPE   C4A51980  38.371  14.376   1.375  0.4009  0.0593 -0.0279
 2510DPPE   C1B51981  38.119  15.542   2.081  0.0434 -0.2300  0.0188
 2510DPPE   C2B51982  37.654  15.785   1.970  0.1927  0.3586 -0.3556
 2510DPPE   C3B51983  37.462  15.852   1.572  0.0906 -0.4662  0.0329
 2510DPPE   C4B51984  37.155  16.066   1.382  0.2461 -0.2361 -0.3187
 2511DPPE   NH351985   2.470  11.200  12.826  0.3724  0.3304  0.0427
 2511DPPE   PO451986   2.644  11.494  12.518  0.0773 -0.0742 -0.1658
 2511DPPE   GL151987   3.112  11.668  12.642  0.1526 -0.1394  0.1063
 2511DPPE   GL251988   3.148  11.950  12.852  0.0296 -0.0260  0.2982
 2511DPPE   C1A51989   3.580  11.614  12.755 -0.2237  0.1694  0.3576
 2511DPPE   C2A51990   3.960  11.607  12.920  0.0257 -0.0344 -0.2457
 2511DPPE   C3A51991   4.354  11.588  13.219 -0.0404  0.2043 -0.0360
 2511DPPE   C4A51992   4.720  11.638  13.427 -0.0457 -0.0487 -0.2127
 2511DPPE   C1B51993   3.431  12.286  12.734  0.1203  0.1352  0.0091
 2511DPPE   C2B51994   3.807  12.167  12.528  0.1940 -0.1512 -0.0192
 2511DPPE   C3B51995   4.060  11.716  12.459  0.3485 -0.0723  0.2476
 2511DPPE   C4B51996   4.420  11.440  12.534  0.3107 -0.0938 -0.0500
 2512DPPE   NH351997  33.406  23.652   9.034  0.0295 -0.0686 -0.0646
 2512DPPE   PO451998  33.694  23.945   8.858  0.1931  0.3103  0.3288
 2512DPPE   GL151999  33.570  24.174   9.220  0.1137 -0.0568  0.0563
 2512DPPE   GL252000  33.784  24.095   9.547  0.1284 -0.1159  0.1246
 2512DPPE   C1A52001  33.548  24.610   9.444 -0.4015 -0.0184  0.1738
 2512DPPE   C2A52002  33.637  24.911   9.673  0.1072 -0.2018 -0.2046
 2512DPPE   C3A52003  33.820  25.350   9.543  0.1441 -0.1145  0.0040
 2512DPPE   C4A52004  33.642  25.813   9.474 -0.0560  0.2134  0.0833
 2512DPPE   C1B52005  34.070  24.423   9.714  0.3223  0.3161 -0.4798
 2512DPPE   C2B52006  34.064  24.594  10.121 -0.0799 -0.0072 -0.0394
 2512DPPE   C3B52007  33.872  24.392  10.490  0.0643  0.0778 -0.2248
 2512DPPE   C4B52008  33.735  24.687  10.881  0.0726  0.0427  0.0667
 2513DPPE   NH352009  34.684  17.940  16.550  0.0373 -0.0597 -0.2384
 2513DPPE   PO452010  34.595  17.462  16.749  0.0412 -0.3492  0.0737
 2513DPPE   GL152011  34.253  17.676  16.777 -0.1915  0.3561 -0.0241
 2513DPPE   GL252012  34.274  18.102  16.840  0.2345 -0.2967  0.1967
 2513DPPE   C1A52013  33.985  17.826  17.090 -0.0939 -0.2453  0.0262
 2513DPPE   C2A52014  33.638  17.947  17.275 -0.0877 -0.0678  0.0698
 2513DPPE   C3A52015  33.389  17.935  17.680  0.1743  0.1447  0.0005
 2513DPPE   C4A52016  33.085  17.848  17.955 -0.5950 -0.0150 -0.3431
 2513DPPE   C1B52017  33.953  18.296  17.126 -0.2395 -0.1224  0.1218
 2513DPPE   C2B52018  33.511  18.464  17.394  0.0866 -0.0275  0.1638
 2513DPPE   C3B52019  33.513  18.435  17.801 -0.2773 -0.1614 -0.1268
 2513DPPE   C4B52020  33.574  18.536  18.202 -0.0700  0.5866 -0.2461
 2514DPPE   NH352021  36.187  15.840  17.101 -0.1108  0.0357 -0.1078
 2514DPPE   PO452022  35.937  16.053  17.335  0.0438 -0.1224 -0.0656
 2514DPPE   GL152023  35.612  15.831  17.621 -0.1938 -0.2075 -0.4938
 2514DPPE   GL252024  35.705  15.546  17.694 -0.0057 -0.0665 -0.0653
 2514DPPE   C1A52025  35.206  15.700  17.856 -0.1872 -0.0343 -0.0248
 2514DPPE   C2A52026  35.023  15.695  18.157 -0.2295 -0.2313 -0.0234
 2514DPPE   C3A52027  34.810  15.474  18.308  0.2303  0.0552  0.0189
 2514DPPE   C4A52028  34.593  15.438  18.710  0.2301  0.0227 -0.0297
 2514DPPE   C1B52029  35.548  15.175  17.792  0.2392  0.1038  0.0374
 2514DPPE   C2B52030  35.175  15.194  18.070  0.3488  0.0857 -0.0451
 2514DPPE   C3B52031  35.004  14.977  18.533  0.1215  0.1244  0.0330
 2514DPPE   C4B52032  34.861  14.564  18.653 -0.0789 -0.1397  0.1849
 2515DPPE   NH352033   1.252  11.486   8.991 -0.0577  0.1229 -0.0273
 2515DPPE   PO452034   1.163  11.963   9.174 -0.1289 -0.0895 -0.0089
 2515DPPE   GL152035   1.340  12.292   9.327 -0.1161  0.4414  0.1243
 2515DPPE   GL252036   1.292  12.568   9.036  0.1020 -0.0729  0.1950
 2515DPPE   C1A52037   1.709  12.621   9.207  0.3208  0.3147 -0.0018
 2515DPPE   C2A52038   1.994  12.816   9.306  0.1590 -0.1322  0.1235
 2515DPPE   C3A52039   2.207  13.095   9.539 -0.0311  0.1043  0.1887
 2515DPPE   C4A52040   1.899  13.500   9.558 -0.2710 -0.2174  0.0684
 2515DPPE   C1B52041   1.558  12.851   8.795  0.2324  0.1007 -0.0541
 2515DPPE   C2B52042   2.100  12.848   8.814  0.0461  0.2948  0.0531
 2515DPPE   C3B52043   2.532  12.943   8.631  0.1736 -0.2063 -0.0348
 2515DPPE   C4B52044   2.976  13.131   8.511 -0.2040 -0.0603  0.3657
 2516DPPE   NH352045  36.392  15.709   4.870  0.2581 -0.0230  0.3091
 2516DPPE   PO452046  36.682  15.500   5.043 -0.0990 -0.2235  0.4608
 2516DPPE   GL152047  36.436  15.204   4.941 -0.1486  0.2982 -0.1801
 2516DPPE   GL252048  36.210  15.217   4.859  0.1782 -0.1083 -0.1046
 2516DPPE   C1A52049  36.311  14.693   4.876  0.0901 -0.0895 -0.1243
 2516DPPE   C2A52050  36.186  14.332   4.817  0.0314  0.1196  0.0625
 2516DPPE   C3A52051  35.797  14.095   4.938  0.0599  0.1608  0.0040
 2516DPPE   C4A52052  35.399  13.857   4.745  0.0174 -0.1050 -0.2541
 2516DPPE   C1B52053  35.903  14.937   4.865 -0.0605  0.3606  0.0935
 2516DPPE   C2B52054  35.709  14.524   4.658  0.3567  0.2817 -0.0787
 2516DPPE   C3B52055  35.395  14.182   4.428  0.0453 -0.1007  0.3721
 2516DPPE   C4B52056  35.239  13.927   4.104  0.1077  0.2552 -0.0413
 2517DPPE   NH352057  33.865  20.121  11.574 -0.0176  0.0544 -0.1409
 2517DPPE   PO452058  33.809  19.815  11.290 -0.2642 -0.1903  0.0373
 2517DPPE   GL152059  34.257  19.903  11.338  0.0761 -0.0176  0.2577
 2517DPPE   GL252060  34.396  19.615  11.516  0.4941 -0.3044 -0.0628
 2517DPPE   C1A52061  34.584  19.878  11.049  0.0027 -0.3537 -0.2146
 2517DPPE   C2A52062  34.774  20.083  10.691  0.0521 -0.1477 -0.4445
 2517DPPE   C3A52063  35.163  19.916  10.631 -0.0061  0.0683 -0.1266
 2517DPPE   C4A52064  35.478  19.705  10.837  0.0251  0.2543 -0.0797
 2517DPPE   C1B52065  34.594  19.390  11.285  0.0488 -0.1411 -0.3861
 2517DPPE   C2B52066  34.876  19.177  11.266  0.0415 -0.1133 -0.0155
 2517DPPE   C3B52067  35.243  19.122  11.138 -0.0988  0.1733 -0.1341
 2517DPPE   C4B52068  35.653  19.098  11.237  0.1166  0.1669 -0.1338
 2518DPPE   NH352069   0.974  10.409  10.586 -0.2395  0.1980  0.0483
 2518DPPE   PO452070   0.683  10.524  10.296 -0.0089  0.1230 -0.0641
 2518DPPE   GL152071   0.489  10.099  10.221 -0.0284 -0.0278  0.3526
 2518DPPE   GL252072   0.491  10.095   9.932 -0.4144  0.0205  0.0637
 2518DPPE   C1A52073   0.161   9.741  10.220 -0.2216  0.0324  0.5232
 2518DPPE   C2A52074  -0.121   9.385  10.155  0.3425 -0.1356  0.0107
 2518DPPE   C3A52075  -0.470   9.169  10.077  0.1686 -0.0002 -0.2014
 2518DPPE   C4A52076  -0.768   8.763   9.965 -0.0639 -0.1007  0.0979
 2518DPPE   C1B52077   0.439   9.930   9.575 -0.2486  0.0229 -0.0426
 2518DPPE   C2B52078   0.524   9.567   9.261  0.0076 -0.0650  0.0502
 2518DPPE   C3B52079   0.274   9.140   9.298 -0.2437  0.1808 -0.0923
 2518DPPE   C4B52080   0.283   8.890   9.655  0.1737  0.0575 -0.1884
 2519DPPE   NH352081   0.703  15.367   2.718 -0.2668 -0.1641 -0.0895
 2519DPPE   PO452082   0.351  15.293   2.898  0.0097 -0.0914 -0.0570
 2519DPPE   GL152083   0.347  15.211   2.382 -0.0830  0.2614 -0.0603
 2519DPPE   GL252084   0.512  15.445   2.163 -0.0823 -0.2276 -0.5441
 2519DPPE   C1A52085   0.119  15.165   1.941 -0.0097 -0.0179 -0.3823
 2519DPPE   C2A52086  -0.371  15.110   1.780 -0.1143  0.2362  0.1526
 2519DPPE   C3A52087  -0.663  14.742   1.813 -0.0470  0.1273  0.3293
 2519DPPE   C4A52088  -0.864  14.383   1.621 -0.0958 -0.3239 -0.2142
 2519DPPE   C1B52089   0.602  15.694   1.829 -0.2310  0.1428  0.0145
 2519DPPE   C2B52090   1.051  15.728   1.754 -0.2203  0.0784  0.2975
 2519DPPE   C3B52091   1.438  15.320   1.691 -0.0601  0.0154 -0.2894
 2519DPPE   C4B52092   1.885  15.195   1.479 -0.1939 -0.0865 -0.0545
 2520DPPE   NH352093  34.062  18.911  12.835  0.0100 -0.3233 -0.2883
 2520DPPE   PO452094  34.103  18.513  12.931  0.0364 -0.2286  0.1011
 2520DPPE   GL152095  34.482  18.617  12.799  0.2447  0.1748 -0.1193
 2520DPPE   GL252096  34.666  18.818  13.129 -0.3159  0.0879 -0.3615
 2520DPPE   C1A52097  34.927  18.450  12.804  0.0680  0.0939 -0.3365
 2520DPPE   C2A52098  35.193  18.303  12.553  0.1486  0.2014  0.0010
 2520DPPE   C3A52099  35.555  18.339  12.357 -0.0478  0.0684  0.0325
 2520DPPE   C4A52100  35.794  17.951  12.388  0.0040  0.0098 -0.0386
 2520DPPE   C1B52101  35.133  18.827  13.043 -0.0355  0.1083  0.1627
 2520DPPE   C2B52102  35.540  18.918  12.974 -0.2520 -0.1849 -0.1451
 2520DPPE   C3B52103  35.904  18.651  13.168 -0.0985 -0.1856  0.0101
 2520DPPE   C4B52104  36.046  18.500  13.573  0.1578  0.2053  0.2004
 2521DPPE   NH352105   1.562  11.135  13.617 -0.5311  0.3287 -0.0544
 2521DPPE   PO452106   1.764  10.794  13.402  0.3275 -0.0474 -0.1251
 2521DPPE   GL152107   1.666  10.363  13.410 -0.2010  0.1340 -0.0870
 2521DPPE   GL252108   1.453  10.211  13.172  0.1658 -0.0953 -0.2444
 2521DPPE   C1A52109   1.715   9.966  13.782 -0.4180 -0.2973  0.3357
 2521DPPE   C2A52110   2.033   9.902  14.112  0.2225  0.4013 -0.1078
 2521DPPE   C3A52111   1.954   9.603  14.473 -0.3901 -0.1165  0.1168
 2521DPPE   C4A52112   1.701   9.603  14.785  0.0519  0.0992  0.0690
 2521DPPE   C1B52113   1.438   9.869  13.371 -0.1774 -0.1383  0.0112
 2521DPPE   C2B52114   1.197   9.519  13.413 -0.3093 -0.3699 -0.0670
 2521DPPE   C3B52115   0.819   9.399  13.409  0.2699  0.0202  0.1610
 2521DPPE   C4B52116   0.528   9.133  13.455 -0.0781  0.0648  0.0780
 2522DPPE   NH352117  35.900  18.688   3.537 -0.3831  0.0399  0.1755
 2522DPPE   PO452118  35.634  18.547   3.275  0.0219  0.0128  0.0409
 2522DPPE   GL152119  35.527  18.462   2.852  0.2221  0.1059 -0.0664
 2522DPPE   GL252120  35.562  18.230   2.622 -0.2513  0.2784  0.1187
 2522DPPE   C1A52121  35.098  18.445   2.537  0.3622 -0.1615  0.1881
 2522DPPE   C2A52122  34.877  18.281   2.242  0.2233 -0.1953  0.2706
 2522DPPE   C3A52123  34.514  18.018   2.307 -0.2583 -0.2834  0.1222
 2522DPPE   C4A52124  34.038  18.069   2.202  0.0558  0.0809  0.2727
 2522DPPE   C1B52125  35.423  18.109   2.302 -0.0028  0.1020  0.0019
 2522DPPE   C2B52126  35.356  17.680   2.254 -0.0416 -0.0894 -0.1610
 2522DPPE   C3B52127  35.413  17.432   1.881 -0.0045 -0.1388 -0.3553
 2522DPPE   C4B52128  35.297  16.967   1.749  0.4871 -0.0922 -0.2567
 2523DPPE   NH352129  34.499  23.534   8.567 -0.0511  0.0032  0.1371
 2523DPPE   PO452130  34.417  23.767   8.416  0.3568  0.0691 -0.0055
 2523DPPE   GL152131  34.777  23.972   8.419  0.0667 -0.0371 -0.0238
 2523DPPE   GL252132  34.821  24.257   8.249 -0.0676 -0.1754  0.3222
 2523DPPE   C1A52133  35.239  23.830   8.718  0.0164 -0.1936  0.0119
 2523DPPE   C2A52134  35.502  24.044   9.029  0.0609 -0.0648  0.1642
 2523DPPE   C3A52135  35.924  24.274   8.969  0.2234  0.1018 -0.2023
 2523DPPE   C4A52136  36.332  24.346   8.836  0.2003  0.0559 -0.1317
 2523DPPE   C1B52137  35.069  24.416   8.565 -0.2358  0.3452  0.2580
 2523DPPE   C2B52138  35.418  24.789   8.724 -0.2019  0.1773  0.0278
 2523DPPE   C3B52139  35.914  24.774   8.898  0.3233  0.1525  0.0282
 2523DPPE   C4B52140  36.316  24.788   9.133 -0.6396  0.0039 -0.1445
 2524DPPE   NH352141  35.082  20.048   3.650 -0.1721  0.0874 -0.1323
 2524DPPE   PO452142  35.242  19.606   3.742  0.2945  0.2414  0.2531
 2524DPPE   GL152143  35.055  19.638   3.228 -0.0386 -0.0247 -0.2499
 2524DPPE   GL252144  35.083  19.927   3.140  0.0992  0.2205  0.1469
 2524DPPE   C1A52145  34.658  19.564   3.031 -0.0296  0.0576 -0.2097
 2524DPPE   C2A52146  34.478  19.478   2.714  0.0683 -0.0933  0.2078
 2524DPPE   C3A52147  34.253  19.791   2.379  0.0935 -0.2916  0.0895
 2524DPPE   C4A52148  33.925  19.908   2.147  0.0845 -0.1025  0.0850
 2524DPPE   C1B52149  35.221  20.189   2.770  0.0795 -0.0788 -0.0220
 2524DPPE   C2B52150  35.352  20.244   2.315 -0.0150 -0.0918 -0.1060
 2524DPPE   C3B52151  35.257  20.226   1.981 -0.0254 -0.2753 -0.2166
 2524DPPE   C4B52152  35.191  19.801   1.802  0.0198  0.0880 -0.1788
 2525DPPE   NH352153   0.394  13.025   7.700  0.2640 -0.1618 -0.0570
 2525DPPE   PO452154   0.282  13.156   7.356  0.2204 -0.0461 -0.1821
 2525DPPE   GL152155   0.376  13.542   7.600 -0.2329  0.0887  0.2818
 2525DPPE   GL252156   0.484  13.461   7.905  0.0792  0.2977 -0.0424
 2525DPPE   C1A52157   0.528  13.991   7.472 -0.3234  0.0819 -0.4918
 2525DPPE   C2A52158   0.846  14.304   7.644  0.1727  0.3116 -0.0509
 2525DPPE   C3A52159   1.176  14.635   7.545 -0.1064  0.0510 -0.0020
 2525DPPE   C4A52160   1.533  14.892   7.477 -0.0230  0.0558  0.1304
 2525DPPE   C1B52161   0.822  13.750   7.912 -0.0111  0.3261  0.3881
 2525DPPE   C2B52162   1.135  14.028   7.997 -0.3903  0.0677 -0.2285
 2525DPPE   C3B52163   1.330  14.421   8.032  0.1172  0.3346  0.2973
 2525DPPE   C4B52164   1.441  14.663   8.393 -0.0450 -0.0875 -0.0468
 2526DPPE   NH352165  37.978  14.169   7.484  0.1892  0.1610  0.1100
 2526DPPE   PO452166  38.181  13.817   7.658 -0.0629  0.1219  0.1614
 2526DPPE   GL152167  38.490  14.230   7.629 -0.0695  0.3181 -0.3721
 2526DPPE   GL252168  38.400  14.413   7.458  0.1341 -0.1752  0.0468
 2526DPPE   C1A52169  38.822  14.475   7.745 -0.1447 -0.4612  0.1856
 2526DPPE   C2A52170  39.040  14.820   7.653 -0.1748  0.2828 -0.0438
 2526DPPE   C3A52171  38.964  15.289   7.631 -0.0409  0.0141 -0.2145
 2526DPPE   C4A52172  38.701  15.594   7.497 -0.4557 -0.1618 -0.3611
 2526DPPE   C1B52173  38.377  14.778   7.804 -0.0424  0.2201 -0.2403
 2526DPPE   C2B52174  38.714  14.883   8.048 -0.1761 -0.1057  0.2155
 2526DPPE   C3B52175  38.973  15.067   8.420  0.1757  0.1825  0.1823
 2526DPPE   C4B52176  39.007  15.393   8.687  0.2876  0.2467 -0.1734
 2527DPPE   NH352177  34.039  23.061   9.265 -0.0072  0.0420 -0.2104
 2527DPPE   PO452178  33.541  23.171   9.243 -0.3071  0.3584 -0.2369
 2527DPPE   GL152179  33.153  23.176   9.192 -0.0681  0.1614 -0.1125
 2527DPPE   GL252180  32.945  23.340   9.454  0.6991 -0.1856  0.1847
 2527DPPE   C1A52181  32.824  23.377   8.997 -0.1004 -0.0038 -0.1399
 2527DPPE   C2A52182  32.460  23.371   8.752 -0.0384 -0.0573  0.3881
 2527DPPE   C3A52183  32.124  23.425   8.504 -0.4152  0.0441 -0.2613
 2527DPPE   C4A52184  31.980  23.437   8.021  0.2142  0.3596  0.3002
 2527DPPE   C1B52185  32.598  23.425   9.472 -0.1482  0.0274  0.0565
 2527DPPE   C2B52186  32.404  23.668   9.474  0.1736 -0.1679  0.1428
 2527DPPE   C3B52187  31.900  23.678   9.454  0.1091  0.1122  0.2586
 2527DPPE   C4B52188  31.583  23.984   9.235  0.0873 -0.1274 -0.2403
 2528DPPE   NH352189   0.414  13.201  13.578  0.1949  0.2280 -0.0622
 2528DPPE   PO452190   0.247  13.467  13.911 -0.4150 -0.2484 -0.0389
 2528DPPE   GL152191   0.479  13.693  13.588  0.3520  0.2394  0.4350
 2528DPPE   GL252192   0.237  13.631  13.257 -0.0545  0.1745 -0.0803
 2528DPPE   C1A52193   0.757  13.989  13.451 -0.2604 -0.2147  0.1153
 2528DPPE   C2A52194   0.736  14.338  13.233 -0.2197 -0.1926 -0.2718
 2528DPPE   C3A52195   0.848  14.636  12.993  0.1983  0.1127 -0.2715
 2528DPPE   C4A52196   1.232  14.860  12.757 -0.3057 -0.0182 -0.1874
 2528DPPE   C1B52197   0.338  14.049  13.162 -0.1057 -0.0211 -0.0778
 2528DPPE   C2B52198   0.332  14.536  12.967 -0.1013 -0.1688 -0.2067
 2528DPPE   C3B52199   0.507  14.940  12.853  0.2976  0.0872 -0.1337
 2528DPPE   C4B52200   0.919  15.227  12.988  0.2212  0.1844  0.3340
 2529DPPE   NH352201  33.441  21.727   7.213 -0.0133  0.1452 -0.0932
 2529DPPE   PO452202  33.627  22.032   7.594  0.2323 -0.1141 -0.1268
 2529DPPE   GL152203  33.146  22.005   7.434  0.0197  0.0492 -0.1524
 2529DPPE   GL252204  32.911  22.223   7.586 -0.2930 -0.0273 -0.0228
 2529DPPE   C1A52205  32.738  21.802   7.520  0.0407  0.1976  0.2005
 2529DPPE   C2A52206  32.306  21.653   7.557  0.2402 -0.0508 -0.0070
 2529DPPE   C3A52207  32.031  21.684   7.350  0.1474 -0.0452 -0.3323
 2529DPPE   C4A52208  31.735  21.406   7.347 -0.2777  0.1355  0.0006
 2529DPPE   C1B52209  32.666  22.483   7.721  0.0032 -0.3383 -0.1902
 2529DPPE   C2B52210  32.267  22.481   7.806  0.1715  0.3811 -0.1095
 2529DPPE   C3B52211  31.860  22.686   7.821 -0.2872  0.1429  0.2116
 2529DPPE   C4B52212  31.725  22.711   7.282  0.0527 -0.0181 -0.1933
 2530DPPE   NH352213   1.832  12.052   4.150  0.0295 -0.2420 -0.0253
 2530DPPE   PO452214   1.853  12.065   3.707 -0.5128  0.3705 -0.0362
 2530DPPE   GL152215   2.020  11.858   3.417  0.0355  0.0506 -0.0490
 2530DPPE   GL252216   2.370  11.837   3.479 -0.0458 -0.1397 -0.1276
 2530DPPE   C1A52217   2.205  11.653   3.002 -0.1235  0.0461  0.0725
 2530DPPE   C2A52218   2.194  11.632   2.622  0.3207  0.2654 -0.0999
 2530DPPE   C3A52219   2.464  11.649   2.166  0.3493  0.0023 -0.0907
 2530DPPE   C4A52220   2.431  11.791   1.657  0.0179 -0.1917 -0.0302
 2530DPPE   C1B52221   2.208  11.468   3.677  0.0537  0.1912  0.1208
 2530DPPE   C2B52222   2.025  11.011   3.624  0.2067  0.1093  0.1279
 2530DPPE   C3B52223   1.741  10.659   3.797  0.0353  0.0126 -0.0232
 2530DPPE   C4B52224   1.269  10.613   3.810  0.0931  0.0984  0.0934
 2531DPPE   NH352225  34.543  21.358  15.093  0.0515  0.0104 -0.3175
 2531DPPE   PO452226  34.762  21.131  15.369  0.1916 -0.2875  0.0348
 2531DPPE   GL152227  34.916  21.458  15.483 -0.2606  0.0625 -0.0366
 2531DPPE   GL252228  34.870  21.574  15.764  0.1341 -0.1096 -0.0264
 2531DPPE   C1A52229  35.225  21.865  15.518 -0.0331  0.1926 -0.1743
 2531DPPE   C2A52230  35.468  22.124  15.810  0.0962 -0.1359 -0.0767
 2531DPPE   C3A52231  35.826  22.246  15.831  0.0384  0.0695 -0.1191
 2531DPPE   C4A52232  36.183  22.107  16.065 -0.1999  0.2524 -0.0801
 2531DPPE   C1B52233  35.312  21.631  16.008  0.0454 -0.1479 -0.2868
 2531DPPE   C2B52234  35.457  21.971  16.295  0.6881  0.1609  0.3905
 2531DPPE   C3B52235  35.637  22.385  16.259  0.1158 -0.2598  0.2237
 2531DPPE   C4B52236  35.985  22.539  16.372  0.0466 -0.0626 -0.1815
 2532DPPE   NH352237  36.903  12.345  10.649  0.0859 -0.0130 -0.0058
 2532DPPE   PO452238  36.587  12.611  10.520  0.3296 -0.1576 -0.2091
 2532DPPE   GL152239  36.574  12.343  10.175 -0.2871  0.0916 -0.1096
 2532DPPE   GL252240  36.417  12.526   9.908 -0.2571 -0.1083  0.1632
 2532DPPE   C1A52241  36.219  12.013  10.216  0.1969 -0.1215 -0.4509
 2532DPPE   C2A52242  35.862  11.804  10.441  0.3106 -0.1643  0.0640
 2532DPPE   C3A52243  35.534  11.667  10.259 -0.3850  0.2847  0.0133
 2532DPPE   C4A52244  35.421  11.572   9.795 -0.0063 -0.2590  0.0561
 2532DPPE   C1B52245  36.125  12.282   9.755  0.0174 -0.1305  0.0148
 2532DPPE   C2B52246  35.719  12.127   9.502 -0.3369 -0.3603  0.0817
 2532DPPE   C3B52247  35.415  11.854   9.429  0.2663 -0.3624 -0.1538
 2532DPPE   C4B52248  35.130  11.653   9.297 -0.0833  0.0755 -0.0914
 2533DPPE   NH352249  34.984  17.431   5.221  0.1633  0.4169  0.5045
 2533DPPE   PO452250  35.217  17.279   4.893 -0.1035 -0.2973  0.0620
 2533DPPE   GL152251  34.845  17.190   4.616 -0.0134  0.0414 -0.2414
 2533DPPE   GL252252  34.595  17.460   4.608  0.0493  0.2359  0.1049
 2533DPPE   C1A52253  34.587  17.052   4.342  0.0629  0.2660 -0.0138
 2533DPPE   C2A52254  34.180  17.039   4.104  0.0423 -0.2938  0.0561
 2533DPPE   C3A52255  33.837  16.832   4.034 -0.0107 -0.1529 -0.0107
 2533DPPE   C4A52256  33.526  16.346   3.972 -0.2099 -0.2242 -0.1907
 2533DPPE   C1B52257  34.234  17.267   4.605 -0.0222 -0.2568 -0.1983
 2533DPPE   C2B52258  33.770  17.137   4.469  0.2363 -0.0260 -0.3640
 2533DPPE   C3B52259  33.355  16.930   4.520 -0.0504  0.0649  0.0212
 2533DPPE   C4B52260  33.070  16.889   4.832  0.1687 -0.1127 -0.1477
 2534DPPE   NH352261   1.888  12.011  11.297 -0.1444  0.0529  0.2194
 2534DPPE   PO452262   1.801  11.621  10.994  0.2549 -0.2430 -0.2608
 2534DPPE   GL152263   2.032  11.930  10.804 -0.0138  0.0601 -0.1853
 2534DPPE   GL252264   2.330  11.960  10.657 -0.1654 -0.0072 -0.1908
 2534DPPE   C1A52265   2.088  12.439  10.715  0.0880  0.0096  0.2236
 2534DPPE   C2A52266   2.316  12.702  10.519 -0.1763 -0.3203  0.0036
 2534DPPE   C3A52267   2.423  12.923  10.193  0.1519 -0.0105  0.1716
 2534DPPE   C4A52268   2.609  13.084   9.756 -0.1796 -0.2685  0.2002
 2534DPPE   C1B52269   2.643  12.344  10.697  0.1138  0.0198 -0.1042
 2534DPPE   C2B52270   3.037  12.497  10.830  0.3394 -0.1494 -0.1206
 2534DPPE   C3B52271   3.368  12.341  11.205  0.3174 -0.0656  0.1532
 2534DPPE   C4B52272   3.675  12.258  11.437 -0.0886 -0.1688  0.1144
 2535DPPE   NH352273  34.983  17.225   9.017  0.0244 -0.2631 -0.3524
 2535DPPE   PO452274  35.015  17.567   8.728 -0.2071 -0.0416  0.1209
 2535DPPE   GL152275  35.412  17.693   8.883  0.3617 -0.1607  0.0550
 2535DPPE   GL252276  35.371  17.988   8.765  0.0198 -0.1152  0.0496
 2535DPPE   C1A52277  35.820  17.700   9.008 -0.2153 -0.2326 -0.2130
 2535DPPE   C2A52278  36.199  17.715   9.246 -0.0351  0.1668  0.1173
 2535DPPE   C3A52279  36.601  17.559   9.470  0.2158  0.1330  0.1789
 2535DPPE   C4A52280  36.756  17.668   9.830 -0.1326 -0.0497  0.3522
 2535DPPE   C1B52281  35.739  18.143   8.878  0.3133 -0.1694  0.2374
 2535DPPE   C2B52282  35.917  18.509   8.966  0.0936 -0.4536 -0.5136
 2535DPPE   C3B52283  36.120  18.896   8.900  0.1355  0.0548  0.1570
 2535DPPE   C4B52284  35.980  19.290   8.812  0.1923  0.3365  0.1757
 2536DPPE   NH352285  32.853  22.134  11.970  0.0872 -0.1509  0.0284
 2536DPPE   PO452286  32.906  22.153  12.457 -0.2902  0.4170  0.1568
 2536DPPE   GL152287  32.567  22.387  12.580  0.2526 -0.0284  0.0841
 2536DPPE   GL252288  32.288  22.246  12.771 -0.0364  0.3499  0.1481
 2536DPPE   C1A52289  32.272  22.613  12.476  0.1755  0.0922  0.0714
 2536DPPE   C2A52290  31.829  22.780  12.479 -0.1417  0.2241 -0.0005
 2536DPPE   C3A52291  31.623  22.906  12.103 -0.1067  0.0323  0.0510
 2536DPPE   C4A52292  31.595  22.536  11.675 -0.0565 -0.0305  0.0709
 2536DPPE   C1B52293  31.936  22.440  12.996 -0.1411  0.2859  0.1692
 2536DPPE   C2B52294  31.736  22.866  12.958  0.1785 -0.0110  0.0948
 2536DPPE   C3B52295  31.934  23.265  12.781  0.0555 -0.0955 -0.0387
 2536DPPE   C4B52296  31.596  23.515  12.803  0.1008 -0.2040  0.0194
 2537DPPE   NH352297   1.288  13.522  16.377  0.0007  0.2985 -0.1366
 2537DPPE   PO452298   1.095  13.282  16.718 -0.1725 -0.4019 -0.1421
 2537DPPE   GL152299   1.455  13.002  16.635  0.0238  0.0672 -0.1001
 2537DPPE   GL252300   1.862  13.003  16.734 -0.1613  0.1864  0.0649
 2537DPPE   C1A52301   1.599  12.639  16.700  0.1360 -0.1231  0.1176
 2537DPPE   C2A52302   1.845  12.387  16.864 -0.0478  0.1637  0.1019
 2537DPPE   C3A52303   2.144  12.206  16.503 -0.0232  0.2274  0.0880
 2537DPPE   C4A52304   2.311  11.675  16.437  0.2007  0.2055  0.2236
 2537DPPE   C1B52305   1.693  12.911  17.083 -0.0248 -0.1935 -0.1228
 2537DPPE   C2B52306   1.981  12.912  17.512 -0.0122 -0.0261 -0.1144
 2537DPPE   C3B52307   2.220  13.116  17.782 -0.0228  0.2289  0.2972
 2537DPPE   C4B52308   2.538  13.312  17.865  0.0445  0.3247  0.3524
 2538DPPE   NH352309  36.717  17.136   5.687  0.1882 -0.0880  0.0255
 2538DPPE   PO452310  36.663  17.403   5.301  0.3287 -0.0817  0.0678
 2538DPPE   GL152311  36.975  17.624   5.286 -0.1498 -0.0847 -0.0960
 2538DPPE   GL252312  37.204  17.513   5.090 -0.0294  0.0580  0.0673
 2538DPPE   C1A52313  37.266  17.937   5.384  0.1551  0.0393 -0.1181
 2538DPPE   C2A52314  37.655  17.848   5.635  0.0234 -0.0219  0.2394
 2538DPPE   C3A52315  37.926  18.082   5.911  0.2782 -0.2233  0.1557
 2538DPPE   C4A52316  38.444  18.012   6.174  0.3620  0.0627 -0.1036
 2538DPPE   C1B52317  37.595  17.705   5.118 -0.1174 -0.2945 -0.1321
 2538DPPE   C2B52318  37.896  18.015   5.136 -0.0120 -0.2159 -0.0041
 2538DPPE   C3B52319  37.914  18.371   5.299 -0.3585 -0.3457 -0.1376
 2538DPPE   C4B52320  37.987  18.767   5.427  0.0722  0.4436  0.2650
 2539DPPE   NH352321  37.282  15.992  18.342  0.0228 -0.1139  0.0035
 2539DPPE   PO452322  37.204  16.037  18.755 -0.0636 -0.2921  0.0405
 2539DPPE   GL152323  36.820  16.210  19.110 -0.1678  0.1326 -0.0294
 2539DPPE   GL252324  36.602  15.883  19.185 -0.0636 -0.0442  0.2903
 2539DPPE   C1A52325  36.877  16.479  19.462 -0.2539  0.1683 -0.1666
 2539DPPE   C2A52326  36.782  16.479  19.845  0.2808 -0.3634  0.2384
 2539DPPE   C3A52327  36.850  16.063  20.027  0.1503 -0.3869  0.1613
 2539DPPE   C4A52328  36.885  15.674  20.160 -0.4061 -0.0712 -0.1720
 2539DPPE   C1B52329  36.597  16.106  19.525 -0.0836  0.0438  0.0850
 2539DPPE   C2B52330  36.290  16.426  19.674  0.0444 -0.1624  0.2112
 2539DPPE   C3B52331  36.110  16.809  19.668 -0.2616  0.0227 -0.0685
 2539DPPE   C4B52332  35.768  17.099  19.466  0.1137 -0.0511  0.0219
 2540DPPE   NH352333  33.538  23.466  10.491  0.2063 -0.1513 -0.2849
 2540DPPE   PO452334  33.835  23.484  10.182 -0.2701  0.0358 -0.1368
 2540DPPE   GL152335  33.698  23.961  10.305  0.0818 -0.0750 -0.0516
 2540DPPE   GL252336  33.499  24.062  10.606 -0.0521 -0.0338  0.0172
 2540DPPE   C1A52337  33.543  24.327  10.095 -0.2259 -0.1486  0.0497
 2540DPPE   C2A52338  33.278  24.638   9.875 -0.0575  0.0290 -0.2147
 2540DPPE   C3A52339  32.878  24.691   9.888 -0.0541 -0.0984 -0.4235
 2540DPPE   C4A52340  32.664  24.549   9.610 -0.0579  0.0610  0.0606
 2540DPPE   C1B52341  33.267  24.241  10.907 -0.0441 -0.1106 -0.1285
 2540DPPE   C2B52342  32.890  24.468  10.899 -0.0018  0.0650  0.1387
 2540DPPE   C3B52343  32.527  24.336  10.570 -0.1674 -0.2737 -0.0160
 2540DPPE   C4B52344  32.173  24.066  10.350  0.0438  0.1349  0.2188
 2541DPPE   NH352345  38.034  13.691   8.105 -0.0356 -0.2924 -0.0301
 2541DPPE   PO452346  38.359  13.409   8.355  0.0367  0.1407 -0.1931
 2541DPPE   GL152347  38.550  13.769   8.133  0.0818  0.1080  0.0917
 2541DPPE   GL252348  38.396  13.982   8.349  0.0513  0.3652 -0.1791
 2541DPPE   C1A52349  38.826  14.050   8.017 -0.1083  0.2580 -0.0684
 2541DPPE   C2A52350  39.158  14.410   8.123  0.2244 -0.3526  0.0759
 2541DPPE   C3A52351  39.332  14.726   8.054 -0.0975 -0.2422  0.2769
 2541DPPE   C4A52352  39.274  15.189   7.979  0.2243 -0.4102  0.0330
 2541DPPE   C1B52353  38.697  14.214   8.619 -0.1269 -0.1465 -0.0856
 2541DPPE   C2B52354  39.077  14.312   8.755 -0.3680  0.1575  0.1701
 2541DPPE   C3B52355  39.329  14.685   8.533 -0.0299 -0.1055  0.0821
 2541DPPE   C4B52356  39.452  15.057   8.388 -0.0988  0.1362 -0.2064
 2542DPPE   NH352357   2.059  11.817   5.070  0.0182 -0.0053  0.1253
 2542DPPE   PO452358   2.362  12.105   4.927  0.3208  0.0702  0.1676
 2542DPPE   GL152359   2.684  12.226   4.548  0.4162 -0.4227 -0.3455
 2542DPPE   GL252360   2.699  12.116   4.216 -0.0580 -0.0899 -0.1209
 2542DPPE   C1A52361   3.063  12.468   4.427 -0.0593 -0.1066 -0.2713
 2542DPPE   C2A52362   3.358  12.681   4.256  0.0447 -0.0772  0.0933
 2542DPPE   C3A52363   3.789  12.973   4.174  0.1470  0.0344 -0.1285
 2542DPPE   C4A52364   4.210  12.818   3.980 -0.1177  0.2148  0.2401
 2542DPPE   C1B52365   2.985  11.774   4.140  0.1650 -0.0196  0.0799
 2542DPPE   C2B52366   3.134  11.352   4.017  0.0238 -0.4503 -0.1180
 2542DPPE   C3B52367   3.082  10.998   4.216  0.3387  0.2242  0.2669
 2542DPPE   C4B52368   3.144  10.502   4.260 -0.1446 -0.0193 -0.2119
 2543DPPE   NH352369  35.459  17.977   4.474 -0.2260 -0.3217  0.0331
 2543DPPE   PO452370  35.596  18.020   4.030  0.0961 -0.2141  0.1763
 2543DPPE   GL152371  35.283  17.959   3.665  0.2037 -0.2605 -0.1527
 2543DPPE   GL252372  35.287  18.168   3.372  0.4601 -0.3660  0.0646
 2543DPPE   C1A52373  35.302  17.700   3.306  0.1378  0.0314 -0.3543
 2543DPPE   C2A52374  34.947  17.645   2.974  0.2256  0.3463  0.0369
 2543DPPE   C3A52375  34.540  17.495   2.840 -0.2210 -0.0099 -0.2468
 2543DPPE   C4A52376  34.279  17.083   2.870 -0.1296  0.0745 -0.0598
 2543DPPE   C1B52377  35.109  18.090   2.968  0.1490 -0.2396 -0.1008
 2543DPPE   C2B52378  34.680  18.134   2.951  0.1016  0.0841  0.1535
 2543DPPE   C3B52379  34.271  18.147   2.765 -0.3947 -0.0024  0.0256
 2543DPPE   C4B52380  33.923  17.827   2.661 -0.0215  0.0622  0.2066
 2544DPPE   NH352381   1.843  11.432  14.817  0.1306  0.1182  0.1885
 2544DPPE   PO452382   1.574  11.745  15.032 -0.0170 -0.0816  0.0933
 2544DPPE   GL152383   1.362  11.474  15.243 -0.1969 -0.2981  0.0035
 2544DPPE   GL252384   1.099  11.331  15.350 -0.1861  0.0914 -0.1203
 2544DPPE   C1A52385   1.480  11.218  15.616  0.2700  0.0426 -0.0231
 2544DPPE   C2A52386   1.418  11.067  16.053  0.2413 -0.1170  0.3264
 2544DPPE   C3A52387   1.622  11.119  16.440 -0.1111  0.0634 -0.1369
 2544DPPE   C4A52388   2.050  11.203  16.680 -0.3388  0.0057 -0.1297
 2544DPPE   C1B52389   1.066  11.595  15.692  0.1265  0.1400 -0.2697
 2544DPPE   C2B52390   0.999  11.439  16.015 -0.1314 -0.2647  0.1399
 2544DPPE   C3B52391   0.907  11.083  16.256 -0.0999 -0.0699 -0.0343
 2544DPPE   C4B52392   0.924  10.777  16.553 -0.2121 -0.1119 -0.2858
 2545DPPE   NH352393  37.065  13.638  11.408 -0.0322 -0.3087  0.0876
 2545DPPE   PO452394  36.825  13.856  11.695 -0.2217 -0.3488  0.0623
 2545DPPE   GL152395  37.063  14.169  11.448  0.0360  0.2631 -0.2765
 2545DPPE   GL252396  37.346  14.088  11.408  0.0371 -0.0467 -0.1792
 2545DPPE   C1A52397  36.988  14.606  11.274  0.0321 -0.4769  0.1702
 2545DPPE   C2A52398  37.192  14.883  11.040  0.0148 -0.1445 -0.1623
 2545DPPE   C3A52399  37.518  15.266  11.068 -0.1145  0.1556  0.2889
 2545DPPE   C4A52400  37.993  15.506  11.123  0.1625  0.2719 -0.1461
 2545DPPE   C1B52401  37.573  14.396  11.158  0.0527  0.0397 -0.2658
 2545DPPE   C2B52402  37.645  14.721  10.867 -0.0575 -0.3152 -0.2749
 2545DPPE   C3B52403  37.897  15.068  10.670  0.0991 -0.1550 -0.2577
 2545DPPE   C4B52404  38.129  15.466  10.552 -0.0954  0.0387  0.3027
 2546DPPE   NH352405  34.729  18.730  14.156 -0.4739  0.2591  0.0237
 2546DPPE   PO452406  34.861  18.759  13.774 -0.1590  0.3786 -0.3279
 2546DPPE   GL152407  35.161  18.912  13.590  0.3563  0.1738  0.3166
 2546DPPE   GL252408  35.035  19.150  13.483 -0.3278  0.1202  0.0106
 2546DPPE   C1A52409  35.587  19.143  13.535  0.0287  0.0216 -0.2802
 2546DPPE   C2A52410  36.007  19.257  13.410  0.0888 -0.1765 -0.0716
 2546DPPE   C3A52411  36.309  18.949  13.191 -0.1517  0.0502  0.0696
 2546DPPE   C4A52412  36.637  18.766  12.887  0.2979  0.2187 -0.0719
 2546DPPE   C1B52413  35.244  19.303  13.225 -0.1506 -0.0789 -0.1703
 2546DPPE   C2B52414  35.671  19.412  13.096  0.1200 -0.1770 -0.1361
 2546DPPE   C3B52415  36.094  19.375  12.919 -0.3082  0.1922  0.1633
 2546DPPE   C4B52416  36.374  19.208  12.702 -0.2110 -0.2488 -0.1653
 2547DPPE   NH352417  34.067  20.828  10.317 -0.3582 -0.1844  0.0005
 2547DPPE   PO452418  34.074  20.474  10.119  0.2667 -0.1389  0.1157
 2547DPPE   GL152419  34.510  20.596  10.378  0.2433  0.2089 -0.0942
 2547DPPE   GL252420  34.566  20.851  10.434  0.0193 -0.0471 -0.3144
 2547DPPE   C1A52421  35.010  20.542  10.498 -0.0035  0.0669  0.4792
 2547DPPE   C2A52422  35.410  20.330  10.632 -0.0047 -0.0729 -0.1693
 2547DPPE   C3A52423  35.648  20.171  10.868  0.0428  0.1617  0.0085
 2547DPPE   C4A52424  35.888  19.972  11.050  0.0721  0.1985  0.0829
 2547DPPE   C1B52425  34.957  21.038  10.611  0.0879  0.1908 -0.0096
 2547DPPE   C2B52426  35.381  20.869  10.679  0.3272 -0.3524 -0.0433
 2547DPPE   C3B52427  35.718  20.686  10.836  0.0200  0.0484 -0.1617
 2547DPPE   C4B52428  36.076  20.461  11.048 -0.1473  0.2498  0.1523
 2548DPPE   NH352429   1.365  11.666   6.699 -0.2220 -0.0309  0.3352
 2548DPPE   PO452430   1.200  11.253   6.572 -0.0579 -0.1324  0.2786
 2548DPPE   GL152431   1.095  10.910   6.325 -0.0596 -0.1770  0.2797
 2548DPPE   GL252432   1.092  10.614   6.490  0.1597 -0.0387 -0.2428
 2548DPPE   C1A52433   0.847  10.850   5.962 -0.2347  0.2551  0.3936
 2548DPPE   C2A52434   0.658  10.461   5.732 -0.2382 -0.0224  0.1966
 2548DPPE   C3A52435   0.651  10.283   5.305 -0.1385 -0.0099  0.1506
 2548DPPE   C4A52436   0.778  10.378   4.836  0.1279  0.0420  0.1393
 2548DPPE   C1B52437   0.763  10.416   6.304  0.1382 -0.1091  0.1374
 2548DPPE   C2B52438   0.662  10.095   6.156 -0.1966 -0.2347 -0.2266
 2548DPPE   C3B52439   0.363  10.111   5.827 -0.0823  0.0515  0.0374
 2548DPPE   C4B52440   0.124   9.960   5.544 -0.0013  0.4773 -0.1319
 2549DPPE   NH352441  35.815  16.413  15.227 -0.0166  0.3662 -0.2786
 2549DPPE   PO452442  36.280  16.514  15.224 -0.1739 -0.0813 -0.2545
 2549DPPE   GL152443  36.599  16.665  14.966  0.0898 -0.3071  0.0574
 2549DPPE   GL252444  36.597  16.739  14.697 -0.1447  0.3189  0.0180
 2549DPPE   C1A52445  36.982  16.368  14.721 -0.1010 -0.0391 -0.2045
 2549DPPE   C2A52446  37.357  16.406  14.590 -0.1488  0.2325  0.3849
 2549DPPE   C3A52447  37.663  16.783  14.588 -0.1235  0.2102 -0.0035
 2549DPPE   C4A52448  38.007  16.923  14.542  0.0656  0.1292 -0.2518
 2549DPPE   C1B52449  36.745  17.143  14.525 -0.0660  0.2281  0.3055
 2549DPPE   C2B52450  37.064  17.493  14.583  0.2351 -0.2075 -0.0620
 2549DPPE   C3B52451  37.399  17.789  14.458  0.2318 -0.1459  0.2029
 2549DPPE   C4B52452  37.789  18.024  14.614  0.0491  0.1671 -0.2868
 2550DPPE   NH352453  36.047  14.644   6.753  0.3033 -0.2248 -0.3180
 2550DPPE   PO452454  35.920  14.869   7.177 -0.0659 -0.0292  0.2213
 2550DPPE   GL152455  35.615  14.469   7.208  0.0276 -0.0055  0.1018
 2550DPPE   GL252456  35.295  14.640   7.262  0.1974 -0.1828 -0.2114
 2550DPPE   C1A52457  35.294  14.218   7.032 -0.0670  0.0573  0.0301
 2550DPPE   C2A52458  34.963  14.048   6.977  0.0551  0.4983  0.0005
 2550DPPE   C3A52459  35.032  13.591   6.808 -0.0504  0.0830 -0.1950
 2550DPPE   C4A52460  35.338  13.287   6.793 -0.1057  0.0136 -0.0979
 2550DPPE   C1B52461  34.965  14.558   6.981  0.1714 -0.0431  0.0427
 2550DPPE   C2B52462  34.608  14.413   6.789  0.1231 -0.1049 -0.1825
 2550DPPE   C3B52463  34.544  14.022   6.600  0.0124  0.3393  0.0019
 2550DPPE   C4B52464  34.231  13.683   6.657  0.1441  0.0313  0.0244
 2551DPPE   NH352465  33.170  18.438   8.711 -0.2588  0.3695  0.1192
 2551DPPE   PO452466  33.303  18.639   8.266  0.0382  0.1104  0.0273
 2551DPPE   GL152467  33.096  19.023   8.187 -0.0799  0.1766 -0.2656
 2551DPPE   GL252468  33.073  19.053   7.834 -0.1376 -0.3908  0.0262
 2551DPPE   C1A52469  32.652  19.192   8.161  0.0739  0.0899  0.3475
 2551DPPE   C2A52470  32.185  19.247   8.131  0.1202 -0.0877 -0.3913
 2551DPPE   C3A52471  31.807  18.978   7.990  0.0173  0.0447 -0.1451
 2551DPPE   C4A52472  31.458  18.679   8.073 -0.0085 -0.0146  0.0028
 2551DPPE   C1B52473  32.781  18.897   7.686  0.0306 -0.0050  0.0808
 2551DPPE   C2B52474  32.284  18.823   7.876 -0.2349  0.3807  0.5812
 2551DPPE   C3B52475  32.018  18.498   7.857 -0.0997 -0.0009 -0.0814
 2551DPPE   C4B52476  31.938  18.076   7.618  0.0702 -0.1320  0.0571
 2552DPPE   NH352477  34.691  17.849   6.045 -0.0677  0.3396 -0.1237
 2552DPPE   PO452478  34.693  17.545   6.479 -0.3589  0.2678  0.0058
 2552DPPE   GL152479  34.316  17.202   6.526 -0.3573  0.0286 -0.1186
 2552DPPE   GL252480  34.506  16.938   6.527  0.2618 -0.1869 -0.0842
 2552DPPE   C1A52481  33.903  16.896   6.339 -0.1113  0.3509  0.2160
 2552DPPE   C2A52482  33.540  16.648   6.438 -0.1987 -0.1542  0.0072
 2552DPPE   C3A52483  33.234  16.524   6.739 -0.0155 -0.4133 -0.1723
 2552DPPE   C4A52484  32.885  16.417   6.741  0.1137 -0.3290 -0.0538
 2552DPPE   C1B52485  34.367  16.596   6.686 -0.2317 -0.0820  0.0428
 2552DPPE   C2B52486  33.974  16.420   6.606  0.1829  0.3069 -0.0122
 2552DPPE   C3B52487  33.912  16.025   6.486  0.1548 -0.0576 -0.1439
 2552DPPE   C4B52488  33.744  15.880   6.127  0.0591  0.2233 -0.1945
 2553DPPE   NH352489   2.293  12.729  15.398 -0.0218 -0.2519  0.2322
 2553DPPE   PO452490   2.449  12.371  15.658 -0.0769  0.1707  0.0355
 2553DPPE   GL152491   2.801  12.629  15.624  0.0402 -0.1547  0.0314
 2553DPPE   GL252492   2.711  12.944  15.333 -0.2753  0.1100 -0.0457
 2553DPPE   C1A52493   3.218  12.711  15.403  0.0517  0.0363  0.0072
 2553DPPE   C2A52494   3.563  12.915  15.253  0.1237 -0.0283 -0.0230
 2553DPPE   C3A52495   3.888  12.870  14.997  0.1165 -0.2044 -0.0101
 2553DPPE   C4A52496   4.073  12.847  14.623  0.3372 -0.1300 -0.3369
 2553DPPE   C1B52497   3.077  13.190  15.164 -0.2061  0.1957 -0.1998
 2553DPPE   C2B52498   3.446  13.419  15.161  0.0029 -0.0086 -0.2391
 2553DPPE   C3B52499   3.879  13.466  15.269 -0.0013 -0.1312 -0.1023
 2553DPPE   C4B52500   4.108  13.787  15.446  0.0671 -0.4232 -0.0561
 2554DPPE   NH352501  34.411  16.909  14.478  0.3318  0.0296  0.3503
 2554DPPE   PO452502  34.103  17.011  14.570  0.0448 -0.0827  0.1772
 2554DPPE   GL152503  33.763  16.838  14.787  0.1087 -0.5598 -0.0677
 2554DPPE   GL252504  33.679  17.217  14.923 -0.1647 -0.1609  0.0066
 2554DPPE   C1A52505  33.470  16.501  14.714  0.2416  0.4590 -0.0622
 2554DPPE   C2A52506  33.246  16.219  14.551 -0.0466 -0.0290 -0.0342
 2554DPPE   C3A52507  33.293  15.852  14.530 -0.2943  0.2354  0.0886
 2554DPPE   C4A52508  33.412  15.445  14.374 -0.0653 -0.0952  0.1759
 2554DPPE   C1B52509  33.285  16.924  14.897  0.3865 -0.1971 -0.0132
 2554DPPE   C2B52510  32.865  16.854  14.872  0.2210  0.1284 -0.1235
 2554DPPE   C3B52511  32.592  16.847  15.172 -0.0709 -0.1234  0.2067
 2554DPPE   C4B52512  32.159  16.746  15.029 -0.0816 -0.0019 -0.1606
 2555DPPE   NH352513  36.113  17.727   3.218 -0.0982 -0.0862 -0.0528
 2555DPPE   PO452514  36.160  18.027   2.890 -0.1648 -0.0460  0.2042
 2555DPPE   GL152515  35.843  17.750   2.608 -0.0489  0.3478 -0.0382
 2555DPPE   GL252516  35.758  17.494   2.898 -0.0804 -0.1446  0.1356
 2555DPPE   C1A52517  35.836  17.474   2.149  0.1412 -0.1019 -0.0219
 2555DPPE   C2A52518  35.803  17.719   1.781 -0.1212  0.3895  0.1546
 2555DPPE   C3A52519  35.523  18.076   1.798  0.2425 -0.5912  0.3450
 2555DPPE   C4A52520  35.289  18.386   1.421  0.1160  0.1953  0.1881
 2555DPPE   C1B52521  35.347  17.667   2.745  0.0776 -0.2748 -0.1591
 2555DPPE   C2B52522  34.984  17.833   2.539 -0.3212 -0.1384  0.0382
 2555DPPE   C3B52523  34.854  17.506   2.365 -0.0934 -0.1123 -0.0616
 2555DPPE   C4B52524  34.544  17.163   2.240  0.0633  0.0143  0.0945
 2556DPPE   NH352525   2.788  11.358   9.478 -0.2306 -0.0719 -0.2345
 2556DPPE   PO452526   3.038  11.296   9.068 -0.4999 -0.0291  0.1655
 2556DPPE   GL152527   3.514  11.234   8.986  0.0235  0.1404  0.1828
 2556DPPE   GL252528   3.640  10.911   8.861  0.2564  0.3866  0.1158
 2556DPPE   C1A52529   3.812  11.314   8.667 -0.0094 -0.0791  0.2201
 2556DPPE   C2A52530   4.191  11.367   8.627 -0.2634  0.0779  0.0264
 2556DPPE   C3A52531   4.471  11.553   8.390 -0.0042  0.4781  0.1182
 2556DPPE   C4A52532   4.856  11.945   8.296 -0.1874 -0.3769  0.2118
 2556DPPE   C1B52533   4.004  10.946   8.962 -0.2053 -0.1245 -0.1017
 2556DPPE   C2B52534   4.449  10.721   8.947  0.3543 -0.1877  0.1539
 2556DPPE   C3B52535   4.786  10.610   8.806 -0.2467 -0.0735 -0.4191
 2556DPPE   C4B52536   5.110  10.442   8.603  0.0160 -0.1986  0.0222
 2557DPPE   NH352537  36.966  14.358   5.647  0.0925  0.1193 -0.0649
 2557DPPE   PO452538  36.815  14.761   5.783 -0.1423  0.0054  0.2555
 2557DPPE   GL152539  36.480  14.667   5.465 -0.3719 -0.1843  0.0665
 2557DPPE   GL252540  36.466  14.291   5.380  0.1379 -0.3317  0.0016
 2557DPPE   C1A52541  36.076  14.823   5.318  0.2613  0.0458  0.0989
 2557DPPE   C2A52542  35.705  14.565   5.176  0.0686 -0.0664 -0.1794
 2557DPPE   C3A52543  35.354  14.320   5.026  0.1220 -0.2792 -0.0056
 2557DPPE   C4A52544  34.987  14.195   4.995 -0.1497  0.1582  0.0516
 2557DPPE   C1B52545  36.023  14.224   5.399  0.0445 -0.2522 -0.1716
 2557DPPE   C2B52546  35.674  14.018   5.398  0.2197 -0.0973 -0.1590
 2557DPPE   C3B52547  35.310  13.885   5.220  0.0391  0.1462 -0.3562
 2557DPPE   C4B52548  35.005  13.639   5.059 -0.2823 -0.1796 -0.0065
 2558DPPE   NH352549  33.658  20.965  13.409 -0.1775  0.1798 -0.1533
 2558DPPE   PO452550  33.727  21.219  13.720 -0.0734 -0.1669  0.0330
 2558DPPE   GL152551  33.326  21.164  13.832  0.2362 -0.1227 -0.0723
 2558DPPE   GL252552  33.198  21.051  14.121  0.2434 -0.2564  0.0066
 2558DPPE   C1A52553  32.868  21.362  13.911 -0.1798 -0.0577 -0.3527
 2558DPPE   C2A52554  32.590  21.530  13.729 -0.1101 -0.2212 -0.2918
 2558DPPE   C3A52555  32.206  21.744  13.559  0.0970  0.2989 -0.0443
 2558DPPE   C4A52556  31.745  21.819  13.585  0.1008 -0.1794 -0.1480
 2558DPPE   C1B52557  32.991  21.194  14.362  0.2848 -0.1183 -0.1556
 2558DPPE   C2B52558  32.649  21.334  14.665 -0.1651  0.0073 -0.1876
 2558DPPE   C3B52559  32.391  21.672  14.783 -0.1536  0.2797 -0.2719
 2558DPPE   C4B52560  32.013  21.823  14.870 -0.1169 -0.1259 -0.2838
 2559DPPE   NH352561  35.865  14.057  12.028  0.0198 -0.0730  0.2610
 2559DPPE   PO452562  35.825  14.165  12.447  0.0240 -0.2082  0.0836
 2559DPPE   GL152563  35.637  13.803  12.708  0.3946 -0.1154 -0.1107
 2559DPPE   GL252564  35.252  13.866  12.778 -0.1500 -0.2777  0.1036
 2559DPPE   C1A52565  35.775  13.332  12.802 -0.1409  0.0574 -0.0863
 2559DPPE   C2A52566  35.864  13.047  13.172 -0.1126 -0.3402  0.1395
 2559DPPE   C3A52567  35.703  12.722  13.460  0.1141  0.2473 -0.2891
 2559DPPE   C4A52568  35.666  12.388  13.558 -0.0472  0.1922  0.2948
 2559DPPE   C1B52569  34.912  13.521  12.859 -0.1088  0.0330 -0.0058
 2559DPPE   C2B52570  34.619  13.198  12.844 -0.3212 -0.4380  0.1977
 2559DPPE   C3B52571  34.543  12.801  12.774 -0.2211 -0.0722  0.1067
 2559DPPE   C4B52572  34.657  12.575  12.377 -0.3953 -0.2261 -0.1321
 2560DPPE   NH352573  35.606  15.128  12.827  0.1276  0.2152  0.0622
 2560DPPE   PO452574  35.925  15.396  12.964 -0.0081 -0.1796  0.0903
 2560DPPE   GL152575  36.212  15.740  13.039  0.2517 -0.5070 -0.0580
 2560DPPE   GL252576  36.526  15.674  13.185  0.2365  0.2368 -0.0940
 2560DPPE   C1A52577  36.528  16.032  12.787  0.0425  0.4420  0.0599
 2560DPPE   C2A52578  36.889  16.300  12.893 -0.2655  0.1446  0.0044
 2560DPPE   C3A52579  37.046  16.663  13.043  0.1100 -0.3209 -0.0731
 2560DPPE   C4A52580  37.457  16.826  13.073  0.0913  0.0839  0.0413
 2560DPPE   C1B52581  36.883  15.944  13.242  0.1860  0.4760 -0.0381
 2560DPPE   C2B52582  37.330  16.158  13.154  0.2288  0.0731 -0.0657
 2560DPPE   C3B52583  37.719  16.440  13.298  0.2011  0.0000  0.2699
 2560DPPE   C4B52584  38.155  16.496  13.537  0.2163 -0.4162 -0.2172
 2561DPPE   NH352585  34.586  19.034   4.627 -0.3185  0.2380 -0.0916
 2561DPPE   PO452586  34.598  19.460   4.393  0.0781 -0.0595  0.0002
 2561DPPE   GL152587  34.116  19.343   4.304  0.0819 -0.0621 -0.0529
 2561DPPE   GL252588  34.156  19.028   4.415  0.1800  0.0684  0.3754
 2561DPPE   C1A52589  33.677  19.351   4.417 -0.2388 -0.0366  0.1290
 2561DPPE   C2A52590  33.296  19.254   4.383  0.0129  0.0629 -0.1011
 2561DPPE   C3A52591  33.002  19.004   4.424 -0.2032 -0.0011 -0.0776
 2561DPPE   C4A52592  32.674  18.859   4.135 -0.2290 -0.2308  0.0148
 2561DPPE   C1B52593  33.875  18.991   4.086  0.1237  0.0553 -0.0234
 2561DPPE   C2B52594  33.718  19.147   3.665 -0.1688 -0.0059 -0.0734
 2561DPPE   C3B52595  33.626  19.466   3.388  0.0874  0.1894  0.3333
 2561DPPE   C4B52596  33.285  19.688   3.276 -0.0584  0.0347 -0.3308
 2562DPPE   NH352597  34.334  21.069   5.191  0.1400  0.3204  0.0934
 2562DPPE   PO452598  34.647  20.864   4.875  0.3496 -0.2378 -0.0199
 2562DPPE   GL152599  34.303  20.821   4.567 -0.0105  0.1686  0.1330
 2562DPPE   GL252600  34.283  20.940   4.210  0.1496 -0.2218  0.0456
 2562DPPE   C1A52601  33.925  21.100   4.606  0.0270 -0.1569  0.1017
 2562DPPE   C2A52602  33.516  21.238   4.330 -0.0136 -0.1323  0.0387
 2562DPPE   C3A52603  33.439  21.410   3.971 -0.1403  0.0959  0.1372
 2562DPPE   C4A52604  33.399  21.508   3.535 -0.2523 -0.0714 -0.0183
 2562DPPE   C1B52605  33.888  20.795   4.033  0.3808  0.0399  0.1005
 2562DPPE   C2B52606  33.478  20.838   3.978  0.3051  0.1175  0.2197
 2562DPPE   C3B52607  33.162  20.999   3.965 -0.0723  0.0498 -0.3270
 2562DPPE   C4B52608  32.949  21.402   4.183  0.1014  0.2078  0.3410
 2563DPPE   NH352609  35.108  18.202  15.115 -0.0269 -0.0485  0.1866
 2563DPPE   PO452610  35.429  18.313  15.478  0.0004  0.2233 -0.2735
 2563DPPE   GL152611  35.835  18.365  15.251  0.3064 -0.1914 -0.3113
 2563DPPE   GL252612  36.117  18.479  15.362  0.0895 -0.1506  0.2346
 2563DPPE   C1A52613  36.077  18.436  14.853 -0.1657 -0.4191  0.1909
 2563DPPE   C2A52614  36.125  18.618  14.412 -0.1133 -0.1499 -0.0428
 2563DPPE   C3A52615  36.330  18.493  13.980 -0.0192  0.2295 -0.1633
 2563DPPE   C4A52616  36.699  18.300  13.769 -0.0683  0.1838  0.1312
 2563DPPE   C1B52617  36.323  18.842  15.143  0.0278  0.4810  0.0397
 2563DPPE   C2B52618  36.507  19.213  15.158  0.1451 -0.0695 -0.1187
 2563DPPE   C3B52619  36.566  19.513  14.897 -0.0111 -0.0573 -0.2655
 2563DPPE   C4B52620  36.921  19.741  15.055  0.2073  0.1265  0.0791
 2564DPPE   NH352621  33.900  18.602   7.594 -0.1172  0.1362 -0.1899
 2564DPPE   PO452622  33.949  18.974   7.454  0.1250 -0.2617 -0.2492
 2564DPPE   GL152623  33.786  18.839   7.112  0.2995  0.1325 -0.1782
 2564DPPE   GL252624  33.483  18.832   7.359  0.1666 -0.0630 -0.1648
 2564DPPE   C1A52625  33.421  18.540   6.939  0.5009 -0.0774  0.1356
 2564DPPE   C2A52626  33.056  18.654   6.897  0.0365 -0.1601 -0.0919
 2564DPPE   C3A52627  32.605  18.577   6.918 -0.2028  0.1481 -0.0414
 2564DPPE   C4A52628  32.174  18.714   6.971 -0.3053  0.0570  0.0013
 2564DPPE   C1B52629  33.113  18.688   7.352 -0.3170 -0.1104  0.1067
 2564DPPE   C2B52630  32.735  18.477   7.405  0.1001 -0.0768 -0.0124
 2564DPPE   C3B52631  32.359  18.592   7.447  0.1669 -0.4373  0.1358
 2564DPPE   C4B52632  31.884  18.660   7.421 -0.0356 -0.2671 -0.2203
 2565DPPE   NH352633  34.530  18.847   5.934 -0.2428 -0.1600  0.0140
 2565DPPE   PO452634  34.580  18.423   5.968  0.1237 -0.0797  0.2591
 2565DPPE   GL152635  34.268  18.150   5.827 -0.1410 -0.0597 -0.2712
 2565DPPE   GL252636  33.957  18.194   5.895  0.2619 -0.0900  0.0561
 2565DPPE   C1A52637  34.148  17.849   5.610 -0.5151  0.1457 -0.0748
 2565DPPE   C2A52638  33.846  17.554   5.426  0.0247 -0.1275  0.2322
 2565DPPE   C3A52639  33.403  17.477   5.481  0.1034  0.2158  0.1620
 2565DPPE   C4A52640  32.932  17.394   5.621  0.1904  0.1180 -0.4854
 2565DPPE   C1B52641  33.737  18.129   5.566 -0.0897  0.2167 -0.0354
 2565DPPE   C2B52642  33.426  18.073   5.353  0.2315  0.1111 -0.1081
 2565DPPE   C3B52643  32.979  17.950   5.239  0.0363  0.2299  0.6567
 2565DPPE   C4B52644  32.627  17.837   5.209  0.0983 -0.0092 -0.2021
 2566DPPE   NH352645  34.728  18.396  13.422  0.0543  0.0709  0.1140
 2566DPPE   PO452646  34.765  17.930  13.380  0.2296 -0.1567 -0.0625
 2566DPPE   GL152647  35.129  18.037  13.324  0.0295 -0.2822 -0.0403
 2566DPPE   GL252648  35.167  18.283  13.207 -0.1706 -0.0017 -0.3245
 2566DPPE   C1A52649  35.631  17.983  13.480  0.1177  0.0311  0.1159
 2566DPPE   C2A52650  36.156  17.982  13.238 -0.0270  0.0397 -0.0993
 2566DPPE   C3A52651  36.312  18.377  13.144 -0.0424  0.1752 -0.1569
 2566DPPE   C4A52652  36.573  18.691  13.512 -0.0368  0.1164 -0.1580
 2566DPPE   C1B52653  35.457  18.419  12.944 -0.1773 -0.0747  0.2459
 2566DPPE   C2B52654  35.816  18.147  12.936  0.2095  0.3873 -0.0432
 2566DPPE   C3B52655  36.183  18.269  12.664  0.0707  0.4331 -0.2927
 2566DPPE   C4B52656  36.533  18.338  12.677 -0.2887 -0.2870  0.0684
 2567DPPE   NH352657  36.534  15.216   5.608  0.0933 -0.1973  0.1072
 2567DPPE   PO452658  36.393  15.055   5.897  0.1417  0.0557  0.0625
 2567DPPE   GL152659  36.263  14.601   5.934 -0.0975 -0.0750 -0.1977
 2567DPPE   GL252660  36.483  14.433   5.990  0.0414 -0.0887 -0.3175
 2567DPPE   C1A52661  35.874  14.570   5.775 -0.3236 -0.1291 -0.0415
 2567DPPE   C2A52662  35.558  14.417   5.599  0.1538 -0.2524  0.2381
 2567DPPE   C3A52663  35.227  14.470   5.481 -0.0735  0.4095  0.0886
 2567DPPE   C4A52664  34.951  14.689   5.137  0.1091 -0.0883  0.2580
 2567DPPE   C1B52665  36.156  14.072   5.846  0.1158 -0.1421  0.2789
 2567DPPE   C2B52666  35.739  14.034   5.895 -0.0407 -0.2575  0.0523
 2567DPPE   C3B52667  35.477  13.610   5.799 -0.1183  0.1682 -0.0615
 2567DPPE   C4B52668  35.090  13.514   5.516  0.1940 -0.0689 -0.1689
 2568DPPE   NH352669  35.001  22.023   4.738  0.0951 -0.0075 -0.0795
 2568DPPE   PO452670  35.055  21.633   4.814  0.0792 -0.0855  0.2912
 2568DPPE   GL152671  34.734  21.767   4.375 -0.2783 -0.4707  0.0790
 2568DPPE   GL252672  34.477  21.919   4.624  0.1294 -0.1077 -0.0173
 2568DPPE   C1A52673  34.478  21.852   4.101 -0.1071 -0.2299  0.0853
 2568DPPE   C2A52674  34.083  21.865   4.079  0.0068  0.0152 -0.0122
 2568DPPE   C3A52675  33.750  21.653   4.259 -0.1337 -0.0782 -0.1220
 2568DPPE   C4A52676  33.296  21.754   4.268  0.0914 -0.0252 -0.2015
 2568DPPE   C1B52677  34.391  22.278   4.423 -0.0520  0.0227  0.1211
 2568DPPE   C2B52678  34.519  22.416   4.120  0.1756  0.2802 -0.0366
 2568DPPE   C3B52679  34.798  22.650   3.836 -0.3098  0.0370  0.1068
 2568DPPE   C4B52680  34.852  22.968   3.530 -0.1067 -0.1864 -0.1730
 2569DPPE   NH352681  35.013  15.407  13.350  0.0477  0.0892  0.3382
 2569DPPE   PO452682  35.215  15.011  13.185  0.2113  0.1290 -0.0688
 2569DPPE   GL152683  34.868  14.925  13.443  0.1088 -0.0999  0.0101
 2569DPPE   GL252684  34.894  15.037  13.733 -0.0786 -0.1261  0.1617
 2569DPPE   C1A52685  34.514  14.684  13.572 -0.1130 -0.0027  0.1153
 2569DPPE   C2A52686  34.196  14.405  13.764  0.0848 -0.3044 -0.0968
 2569DPPE   C3A52687  33.803  14.140  13.949 -0.0931 -0.1269 -0.2723
 2569DPPE   C4A52688  33.720  13.831  14.137 -0.1093  0.1628 -0.2399
 2569DPPE   C1B52689  34.691  15.006  14.112  0.5277 -0.1628  0.1705
 2569DPPE   C2B52690  34.367  14.758  14.126  0.5848  0.0357 -0.2958
 2569DPPE   C3B52691  34.100  14.386  14.367  0.0826  0.2433 -0.1262
 2569DPPE   C4B52692  33.721  14.415  14.411 -0.1003  0.0051 -0.3035
 2570DPPE   NH352693  36.849  16.496   6.344  0.1404  0.4768 -0.2980
 2570DPPE   PO452694  36.787  16.717   5.965  0.1680  0.3221 -0.0190
 2570DPPE   GL152695  37.160  16.913   6.045  0.1157  0.2271  0.1312
 2570DPPE   GL252696  37.363  16.692   6.276 -0.1725 -0.2782 -0.0578
 2570DPPE   C1A52697  37.543  17.242   5.879  0.0996  0.0197  0.1697
 2570DPPE   C2A52698  37.967  17.328   5.968  0.0266  0.2620 -0.0496
 2570DPPE   C3A52699  38.319  17.253   6.149 -0.0763  0.1054  0.1391
 2570DPPE   C4A52700  38.808  17.177   6.175 -0.1104 -0.3753 -0.3769
 2570DPPE   C1B52701  37.789  16.888   6.237  0.0440  0.0660  0.0661
 2570DPPE   C2B52702  38.164  16.873   6.383 -0.0986 -0.0529  0.0845
 2570DPPE   C3B52703  38.517  16.761   6.402  0.0114 -0.2123  0.0177
 2570DPPE   C4B52704  38.874  16.858   6.606  0.0529  0.0226  0.0222
 2571DPPE   NH352705  37.220  16.477   3.712  0.0184 -0.2181  0.0017
 2571DPPE   PO452706  36.796  16.270   3.653  0.0902  0.1801 -0.0566
 2571DPPE   GL152707  36.351  16.306   3.533 -0.2613 -0.1700 -0.2450
 2571DPPE   GL252708  36.263  15.982   3.525 -0.0496  0.3752  0.1982
 2571DPPE   C1A52709  35.966  16.282   3.286 -0.1633 -0.1777  0.2007
 2571DPPE   C2A52710  35.516  16.056   3.124  0.3487  0.3650 -0.0904
 2571DPPE   C3A52711  35.233  15.727   3.254 -0.3664  0.1597  0.0018
 2571DPPE   C4A52712  35.025  15.309   3.255 -0.1939 -0.0812 -0.0692
 2571DPPE   C1B52713  35.969  15.740   3.242 -0.3949 -0.0861 -0.0404
 2571DPPE   C2B52714  35.744  15.522   2.998  0.1157  0.1207  0.1028
 2571DPPE   C3B52715  35.510  15.220   2.770  0.1468  0.1916  0.1878
 2571DPPE   C4B52716  35.545  14.825   2.524 -0.2788  0.1608  0.1647
 2572DPPE   NH352717  37.811  13.178   6.023 -0.2782 -0.0981 -0.0006
 2572DPPE   PO452718  37.640  13.690   6.024 -0.1854 -0.0269 -0.2354
 2572DPPE   GL152719  37.292  13.431   5.894 -0.0626 -0.1785 -0.2273
 2572DPPE   GL252720  37.151  13.470   5.515  0.0158 -0.0136  0.2750
 2572DPPE   C1A52721  37.047  13.227   6.107  0.0185  0.0109 -0.0312
 2572DPPE   C2A52722  36.727  12.945   6.115  0.2264 -0.1247  0.0490
 2572DPPE   C3A52723  36.495  12.598   6.136  0.2984  0.3540  0.0183
 2572DPPE   C4A52724  36.295  12.237   6.146  0.0312 -0.0153  0.0224
 2572DPPE   C1B52725  36.849  13.297   5.668 -0.1470 -0.1466 -0.0808
 2572DPPE   C2B52726  36.640  12.924   5.502 -0.2142 -0.0527 -0.2324
 2572DPPE   C3B52727  36.265  12.810   5.660  0.0555  0.0283  0.2211
 2572DPPE   C4B52728  35.800  12.811   5.597  0.1751  0.3682  0.1855
 2573DPPE   NH352729   0.572  11.332  13.993 -0.1703  0.0530 -0.0509
 2573DPPE   PO452730   0.320  11.102  13.857  0.2246  0.2150 -0.1193
 2573DPPE   GL152731   0.242  10.722  14.075  0.3778  0.1512  0.1894
 2573DPPE   GL252732   0.127  10.458  13.951 -0.1742 -0.0329  0.0814
 2573DPPE   C1A52733   0.265  10.397  14.456  0.5634 -0.0126  0.0305
 2573DPPE   C2A52734   0.048  10.177  14.797 -0.3533 -0.0363  0.1390
 2573DPPE   C3A52735  -0.074   9.905  15.198 -0.1223 -0.3213  0.1143
 2573DPPE   C4A52736   0.010   9.601  15.454  0.2261 -0.0267 -0.1422
 2573DPPE   C1B52737  -0.200  10.466  13.803  0.1954 -0.2120 -0.0299
 2573DPPE   C2B52738  -0.581  10.216  13.675 -0.0315 -0.1496  0.0339
 2573DPPE   C3B52739  -0.948  10.224  13.605 -0.2787 -0.1085  0.0741
 2573DPPE   C4B52740  -1.178   9.959  13.179  0.0857 -0.1404 -0.2107
 2574DPPE   NH352741  36.252  13.434  10.227 -0.0892  0.0671  0.2214
 2574DPPE   PO452742  36.269  13.540  10.642  0.1954  0.1146  0.2036
 2574DPPE   GL152743  36.086  13.193  10.667 -0.0446  0.0865  0.1037
 2574DPPE   GL252744  35.957  13.062  10.872 -0.0348 -0.0312  0.2601
 2574DPPE   C1A52745  35.746  12.787  10.481  0.0108  0.0438 -0.2772
 2574DPPE   C2A52746  35.441  12.449  10.315  0.1639 -0.3229 -0.0288
 2574DPPE   C3A52747  35.178  12.031  10.381 -0.3361 -0.0008 -0.1606
 2574DPPE   C4A52748  34.939  11.820  10.479 -0.1654 -0.0594  0.0890
 2574DPPE   C1B52749  35.569  12.913  10.920  0.1675 -0.1722  0.0292
 2574DPPE   C2B52750  35.039  12.906  10.988  0.0577  0.1106  0.0681
 2574DPPE   C3B52751  34.664  12.696  10.853  0.4350 -0.3077  0.2063
 2574DPPE   C4B52752  34.189  12.658  10.782  0.2805  0.0567  0.1555
 2575DPPE   NH352753  35.191  14.589   9.087  0.1875 -0.0587  0.4218
 2575DPPE   PO452754  35.261  14.816   8.696 -0.0785 -0.2810 -0.1090
 2575DPPE   GL152755  34.916  14.689   8.469 -0.0994 -0.0082  0.2052
 2575DPPE   GL252756  35.035  14.988   8.233  0.0779 -0.3459 -0.3088
 2575DPPE   C1A52757  34.689  14.329   8.398 -0.3517 -0.2373  0.1726
 2575DPPE   C2A52758  34.387  13.959   8.175  0.0429 -0.1367  0.1800
 2575DPPE   C3A52759  33.947  13.776   8.190 -0.0156  0.0954 -0.1338
 2575DPPE   C4A52760  33.587  13.557   8.207 -0.0438  0.0722 -0.1911
 2575DPPE   C1B52761  34.616  14.941   8.128 -0.1524 -0.3375 -0.1260
 2575DPPE   C2B52762  34.386  15.124   7.808  0.0277  0.2290 -0.0391
 2575DPPE   C3B52763  34.120  15.070   7.442  0.0390 -0.0448  0.0533
 2575DPPE   C4B52764  33.748  14.947   7.326  0.1909 -0.0572 -0.1871
 2576DPPE   NH352765   1.800  12.902  14.453 -0.0122  0.0888  0.0228
 2576DPPE   PO452766   1.974  12.740  14.842 -0.0481 -0.1629  0.3729
 2576DPPE   GL152767   2.404  12.826  14.908 -0.1860  0.0662  0.1114
 2576DPPE   GL252768   2.521  13.124  14.878 -0.1220 -0.0208  0.0463
 2576DPPE   C1A52769   2.852  12.787  14.848 -0.2243 -0.2551 -0.5867
 2576DPPE   C2A52770   3.308  12.801  14.854 -0.3711 -0.1474 -0.1354
 2576DPPE   C3A52771   3.596  13.120  14.669  0.0819  0.1197 -0.1487
 2576DPPE   C4A52772   3.997  13.405  14.775 -0.0776  0.2366 -0.2055
 2576DPPE   C1B52773   2.558  13.443  14.572  0.1346  0.2955 -0.1288
 2576DPPE   C2B52774   2.952  13.719  14.439 -0.0830  0.0316 -0.1371
 2576DPPE   C3B52775   3.346  13.886  14.215  0.1310 -0.0084 -0.3769
 2576DPPE   C4B52776   3.624  14.234  14.191  0.0581  0.0058 -0.0126
 2577DPPE   NH352777  33.469  17.864   9.322 -0.1294 -0.0357 -0.2283
 2577DPPE   PO452778  33.265  18.268   9.331  0.2208 -0.0232  0.0043
 2577DPPE   GL152779  32.875  18.176   9.183 -0.1771  0.0149 -0.1297
 2577DPPE   GL252780  32.778  18.302   8.989  0.1630  0.1505  0.2507
 2577DPPE   C1A52781  32.649  17.810   9.133 -0.0708 -0.3625  0.0362
 2577DPPE   C2A52782  32.330  17.594   8.939  0.2039  0.1739 -0.3202
 2577DPPE   C3A52783  31.984  17.200   9.078  0.0902 -0.1207  0.1620
 2577DPPE   C4A52784  31.905  16.900   9.351 -0.2046  0.0114  0.1353
 2577DPPE   C1B52785  32.413  18.272   8.999 -0.2813 -0.1136 -0.1783
 2577DPPE   C2B52786  32.132  18.318   8.719 -0.0131  0.1915 -0.1680
 2577DPPE   C3B52787  31.809  18.176   8.646 -0.0784  0.1214 -0.2368
 2577DPPE   C4B52788  31.399  17.952   8.691  0.2413 -0.4027 -0.2797
 2578DPPE   NH352789  37.022  16.861  16.924  0.1742  0.1661  0.1815
 2578DPPE   PO452790  37.051  16.613  16.506  0.1258 -0.2815 -0.1062
 2578DPPE   GL152791  37.406  16.738  16.430 -0.0611  0.3288 -0.3518
 2578DPPE   GL252792  37.488  16.922  16.642  0.1493 -0.1737  0.1345
 2578DPPE   C1A52793  37.894  16.809  16.478 -0.1056  0.0140 -0.0684
 2578DPPE   C2A52794  38.339  16.979  16.368  0.2270 -0.0185  0.0608
 2578DPPE   C3A52795  38.725  17.038  16.349  0.2352 -0.1770  0.0267
 2578DPPE   C4A52796  39.054  16.881  16.442  0.0156  0.0500  0.0847
 2578DPPE   C1B52797  37.746  17.289  16.773 -0.1783  0.1291  0.3013
 2578DPPE   C2B52798  38.072  17.519  16.564 -0.5435 -0.2212 -0.1344
 2578DPPE   C3B52799  38.537  17.457  16.555 -0.0259 -0.2644 -0.0796
 2578DPPE   C4B52800  38.852  17.450  16.870  0.1308 -0.2797 -0.0774
 2579DPPE   NH352801  37.764  14.049   4.434 -0.1484  0.1052  0.1110
 2579DPPE   PO452802  37.949  14.028   4.677  0.3072  0.1278 -0.2246
 2579DPPE   GL152803  37.935  13.588   4.511 -0.0303  0.2296  0.2530
 2579DPPE   GL252804  37.951  13.341   4.643 -0.1492 -0.1040 -0.0940
 2579DPPE   C1A52805  37.634  13.453   4.131 -0.1818  0.2331 -0.3708
 2579DPPE   C2A52806  37.695  13.071   3.889  0.2042 -0.4465  0.1999
 2579DPPE   C3A52807  37.376  12.928   3.628 -0.0687  0.2943 -0.0450
 2579DPPE   C4A52808  37.030  12.646   3.524 -0.2092 -0.0337 -0.2918
 2579DPPE   C1B52809  37.571  13.102   4.551  0.2396  0.1095 -0.2158
 2579DPPE   C2B52810  37.251  12.854   4.755 -0.1442 -0.0296 -0.0374
 2579DPPE   C3B52811  36.829  12.725   4.701  0.0761 -0.4324 -0.1444
 2579DPPE   C4B52812  36.692  12.522   4.284  0.3176  0.4407 -0.1001
 2580DPPE   NH352813  34.419  24.035   7.973  0.1277  0.0217  0.0064
 2580DPPE   PO452814  34.238  23.851   7.658 -0.0765 -0.1035 -0.0498
 2580DPPE   GL152815  34.126  24.346   7.737 -0.2062 -0.2668 -0.0528
 2580DPPE   GL252816  34.221  24.476   7.432  0.1099 -0.5053  0.2785
 2580DPPE   C1A52817  34.070  24.619   8.105 -0.3171 -0.0729 -0.1225
 2580DPPE   C2A52818  33.985  24.977   8.343  0.2308  0.2562  0.0496
 2580DPPE   C3A52819  33.797  25.217   8.667  0.0421  0.2063  0.0017
 2580DPPE   C4A52820  33.503  25.398   8.726 -0.0419  0.1020  0.1266
 2580DPPE   C1B52821  34.051  24.855   7.572 -0.3528 -0.0969  0.1118
 2580DPPE   C2B52822  34.133  25.236   7.928 -0.1380 -0.0722 -0.1082
 2580DPPE   C3B52823  34.441  25.073   8.302  0.1650  0.0191 -0.2226
 2580DPPE   C4B52824  34.814  24.838   8.332 -0.0793 -0.0347 -0.2035
 2581DPPE   NH352825  38.266  13.544  16.313 -0.0424 -0.2012  0.3251
 2581DPPE   PO452826  37.832  13.548  16.056  0.2305  0.2047 -0.1470
 2581DPPE   GL152827  37.624  13.159  16.161  0.0521  0.1450 -0.1894
 2581DPPE   GL252828  37.312  13.035  16.009  0.3093  0.0381  0.1312
 2581DPPE   C1A52829  37.689  12.724  16.317  0.0364 -0.0210 -0.6458
 2581DPPE   C2A52830  37.721  12.334  16.442 -0.0935  0.1256  0.2608
 2581DPPE   C3A52831  37.380  11.975  16.368 -0.0121 -0.0012 -0.3928
 2581DPPE   C4A52832  37.188  11.590  16.362 -0.0497 -0.1135  0.2097
 2581DPPE   C1B52833  37.086  12.821  16.344  0.1811 -0.2312 -0.1998
 2581DPPE   C2B52834  37.231  12.473  16.474 -0.2433 -0.2607 -0.1731
 2581DPPE   C3B52835  36.991  12.137  16.564 -0.0428 -0.1923 -0.1986
 2581DPPE   C4B52836  37.107  11.792  16.836  0.1134  0.0523  0.2366
 2582DPPE   NH352837  34.268  18.847   7.095  0.1347 -0.1062  0.0643
 2582DPPE   PO452838  34.183  18.463   7.239  0.1642 -0.0139  0.2025
 2582DPPE   GL152839  33.755  18.262   7.194 -0.0808 -0.0315  0.1449
 2582DPPE   GL252840  33.784  18.065   7.467 -0.2971  0.0611 -0.0464
 2582DPPE   C1A52841  33.515  17.933   6.893 -0.2257 -0.0240 -0.0075
 2582DPPE   C2A52842  33.299  17.787   6.517 -0.1378 -0.2338  0.0757
 2582DPPE   C3A52843  32.978  18.007   6.332  0.4887 -0.0553  0.0556
 2582DPPE   C4A52844  32.633  17.995   6.330  0.0125 -0.1390 -0.1053
 2582DPPE   C1B52845  33.406  17.835   7.364  0.0808  0.1448 -0.3123
 2582DPPE   C2B52846  32.936  17.731   7.475 -0.4897 -0.0641  0.2924
 2582DPPE   C3B52847  32.488  17.556   7.561 -0.0883  0.1949  0.0079
 2582DPPE   C4B52848  32.376  17.177   7.295  0.3977 -0.2555  0.1838
 2583DPPE   NH352849  35.825  21.398   4.761 -0.1479  0.1592 -0.1972
 2583DPPE   PO452850  35.483  21.381   4.798  0.2687  0.2861  0.1376
 2583DPPE   GL152851  35.559  21.629   4.425  0.0483  0.0885  0.0906
 2583DPPE   GL252852  35.304  21.744   4.406  0.0873  0.2979 -0.1685
 2583DPPE   C1A52853  35.809  22.033   4.343 -0.0793 -0.2025 -0.0369
 2583DPPE   C2A52854  35.908  22.508   4.279  0.0397 -0.1331 -0.1111
 2583DPPE   C3A52855  36.119  22.671   3.999 -0.2034 -0.0716 -0.1296
 2583DPPE   C4A52856  36.560  22.807   3.975  0.0917 -0.3019 -0.4316
 2583DPPE   C1B52857  35.069  21.926   4.028 -0.1238 -0.1620 -0.5102
 2583DPPE   C2B52858  34.792  22.056   3.781 -0.1246 -0.0417 -0.1992
 2583DPPE   C3B52859  34.545  21.957   3.466  0.2330  0.5250  0.2613
 2583DPPE   C4B52860  34.494  21.751   3.066 -0.3500  0.2129  0.0439
 2584DPPE   NH352861  34.901  21.960   7.545 -0.0232  0.2579 -0.1639
 2584DPPE   PO452862  34.794  22.414   7.567 -0.0296 -0.0150 -0.0174
 2584DPPE   GL152863  35.117  22.390   7.818  0.0102  0.2077 -0.1050
 2584DPPE   GL252864  35.179  22.034   7.940  0.0564  0.0101  0.2388
 2584DPPE   C1A52865  35.407  22.564   8.043 -0.0803 -0.0638 -0.0833
 2584DPPE   C2A52866  35.382  22.868   8.265  0.2149  0.1242 -0.2309
 2584DPPE   C3A52867  35.638  22.999   8.567 -0.1468  0.0308 -0.0252
 2584DPPE   C4A52868  36.038  23.216   8.643  0.0988 -0.1316  0.0293
 2584DPPE   C1B52869  35.595  22.158   7.782 -0.0638  0.1677 -0.0394
 2584DPPE   C2B52870  35.898  22.421   7.649  0.0327 -0.2089  0.1237
 2584DPPE   C3B52871  36.310  22.595   7.722 -0.0649  0.2416 -0.2582
 2584DPPE   C4B52872  36.617  22.863   7.633  0.0429  0.1617 -0.1455
 2585DPPE   NH352873  32.896  20.216  12.199 -0.1414  0.0408 -0.0220
 2585DPPE   PO452874  33.069  19.895  12.088  0.0298  0.0632  0.2524
 2585DPPE   GL152875  32.718  19.607  12.182  0.1477  0.0730 -0.0970
 2585DPPE   GL252876  32.773  19.434  12.376 -0.0853 -0.0303 -0.0269
 2585DPPE   C1A52877  32.291  19.467  12.323  0.2013  0.1424  0.3844
 2585DPPE   C2A52878  31.801  19.293  12.318  0.0727  0.3515 -0.1661
 2585DPPE   C3A52879  31.379  19.189  12.209 -0.2556  0.2119  0.0404
 2585DPPE   C4A52880  30.953  19.044  12.342 -0.1272 -0.0150 -0.0051
 2585DPPE   C1B52881  32.458  19.128  12.676  0.0227  0.0584 -0.1218
 2585DPPE   C2B52882  32.166  18.797  12.643  0.1115  0.1482  0.4045
 2585DPPE   C3B52883  31.794  18.714  12.570 -0.0893  0.1463  0.2448
 2585DPPE   C4B52884  31.308  18.717  12.662 -0.1007  0.3948 -0.2093
 2586DPPE   NH352885  34.517  21.303  13.471  0.2510  0.1171  0.1361
 2586DPPE   PO452886  34.359  21.713  13.507  0.2357 -0.3056 -0.0468
 2586DPPE   GL152887  34.837  21.781  13.458  0.2484 -0.1453 -0.1332
 2586DPPE   GL252888  34.976  21.449  13.530 -0.2526 -0.1345 -0.2192
 2586DPPE   C1A52889  35.130  22.015  13.249 -0.0678 -0.1324  0.1640
 2586DPPE   C2A52890  35.421  22.302  13.203  0.1305 -0.0330  0.1353
 2586DPPE   C3A52891  35.854  22.492  13.159  0.2636 -0.1702  0.0164
 2586DPPE   C4A52892  36.140  22.823  12.935  0.0959 -0.2056 -0.2937
 2586DPPE   C1B52893  35.416  21.659  13.527 -0.3342 -0.1118 -0.1477
 2586DPPE   C2B52894  35.728  21.886  13.323 -0.0393 -0.0953  0.0364
 2586DPPE   C3B52895  35.877  22.009  12.968 -0.0249 -0.1940  0.2194
 2586DPPE   C4B52896  35.867  22.091  12.456 -0.1426  0.0251  0.0464
 2587DPPE   NH352897  34.471  16.512  11.216 -0.2340  0.1312 -0.1727
 2587DPPE   PO452898  34.877  16.480  11.223  0.0804 -0.3059  0.0717
 2587DPPE   GL152899  35.342  16.636  11.439  0.3275  0.1048 -0.2871
 2587DPPE   GL252900  35.196  16.839  11.738 -0.1030 -0.0393  0.0503
 2587DPPE   C1A52901  35.773  16.710  11.434 -0.1630 -0.5601  0.3327
 2587DPPE   C2A52902  36.118  16.945  11.321 -0.0833  0.0680 -0.2437
 2587DPPE   C3A52903  36.584  17.118  11.152  0.2522  0.2815  0.0063
 2587DPPE   C4A52904  36.975  17.132  11.087  0.2634 -0.1816  0.0916
 2587DPPE   C1B52905  35.602  17.049  11.798 -0.2147  0.3190 -0.1314
 2587DPPE   C2B52906  35.948  17.298  11.586  0.1025 -0.3110  0.1835
 2587DPPE   C3B52907  36.283  17.471  11.418 -0.2192  0.0900  0.1137
 2587DPPE   C4B52908  36.713  17.547  11.434  0.1973  0.2612 -0.2309
 2588DPPE   NH352909  33.697  18.258  13.250 -0.0381  0.2164 -0.0421
 2588DPPE   PO452910  33.532  18.264  13.635  0.0728 -0.2239 -0.1795
 2588DPPE   GL152911  33.098  18.160  13.805  0.0080 -0.2158  0.1490
 2588DPPE   GL252912  32.851  18.220  13.676  0.0816  0.1405 -0.0404
 2588DPPE   C1A52913  32.858  18.115  14.180 -0.0794  0.0374 -0.0986
 2588DPPE   C2A52914  32.537  18.040  14.380 -0.0489  0.0401 -0.0001
 2588DPPE   C3A52915  32.024  17.956  14.603 -0.1018  0.1860 -0.0397
 2588DPPE   C4A52916  31.741  18.028  14.891  0.1798 -0.0499 -0.3416
 2588DPPE   C1B52917  32.490  18.014  13.607 -0.0636 -0.2376  0.1857
 2588DPPE   C2B52918  32.227  18.061  13.950  0.3526  0.1157  0.2737
 2588DPPE   C3B52919  31.894  17.989  14.035  0.2920  0.1993  0.1350
 2588DPPE   C4B52920  31.501  18.164  13.853  0.0648  0.0509 -0.1059
 2589DPPE   NH352921  35.794  15.639   6.520 -0.0064 -0.2076 -0.0707
 2589DPPE   PO452922  35.436  15.801   6.190  0.0678  0.0895 -0.0182
 2589DPPE   GL152923  35.160  15.621   5.908  0.0751 -0.1930  0.3792
 2589DPPE   GL252924  34.981  15.878   6.033  0.2485  0.1065 -0.1784
 2589DPPE   C1A52925  34.727  15.572   5.773 -0.1376  0.1266 -0.1810
 2589DPPE   C2A52926  34.294  15.431   5.645  0.1317  0.2270  0.2150
 2589DPPE   C3A52927  33.852  15.582   5.716  0.1345  0.0738 -0.2370
 2589DPPE   C4A52928  33.583  15.386   6.043 -0.2201 -0.0014  0.1373
 2589DPPE   C1B52929  34.619  15.968   6.043  0.3500  0.0908 -0.1202
 2589DPPE   C2B52930  34.227  16.018   5.855 -0.0762 -0.1444  0.3202
 2589DPPE   C3B52931  33.802  16.202   5.675 -0.2017 -0.0797  0.1747
 2589DPPE   C4B52932  33.441  16.383   5.382  0.0997 -0.0102  0.2316
 2590DPPE   NH352933   1.291  12.146  13.811  0.0567  0.1715  0.2381
 2590DPPE   PO452934   1.547  12.524  13.562 -0.0441 -0.2419 -0.0619
 2590DPPE   GL152935   1.864  12.778  13.644  0.1954  0.2580  0.1370
 2590DPPE   GL252936   2.188  12.790  13.822 -0.1765  0.0175 -0.4376
 2590DPPE   C1A52937   2.064  12.949  13.296 -0.2471  0.1579  0.1721
 2590DPPE   C2A52938   2.238  13.184  12.874  0.0054  0.1239 -0.0141
 2590DPPE   C3A52939   2.264  13.587  12.663 -0.1070  0.0267 -0.0904
 2590DPPE   C4A52940   2.316  14.024  12.391  0.0569  0.2587  0.1082
 2590DPPE   C1B52941   2.425  13.080  13.974 -0.0466  0.0945 -0.3173
 2590DPPE   C2B52942   2.681  13.393  14.029 -0.1010 -0.0981  0.2789
 2590DPPE   C3B52943   2.958  13.802  13.872 -0.0515 -0.0692 -0.0388
 2590DPPE   C4B52944   2.815  14.075  13.597 -0.1972  0.0964  0.0385
 2591DPPE   NH352945  36.900  12.811   8.646  0.0799  0.0287  0.0336
 2591DPPE   PO452946  37.394  12.700   8.894  0.0316 -0.0436  0.2957
 2591DPPE   GL152947  37.116  12.296   8.719  0.0206 -0.3740 -0.0472
 2591DPPE   GL252948  36.867  12.334   8.549 -0.0558  0.0322 -0.1521
 2591DPPE   C1A52949  36.916  11.856   8.788 -0.0790  0.0040 -0.0351
 2591DPPE   C2A52950  36.765  11.398   8.872 -0.1651  0.5514  0.0733
 2591DPPE   C3A52951  36.458  11.096   8.758 -0.0304  0.1143 -0.0623
 2591DPPE   C4A52952  36.235  10.926   8.485 -0.2617 -0.0719 -0.1562
 2591DPPE   C1B52953  36.749  12.082   8.296  0.0653  0.1228 -0.0192
 2591DPPE   C2B52954  36.415  11.871   8.026 -0.1428 -0.0124  0.0651
 2591DPPE   C3B52955  35.961  11.805   7.891 -0.1567 -0.1697  0.0340
 2591DPPE   C4B52956  35.683  11.626   7.622  0.2876  0.0063  0.0963
 2592DPPE   NH352957  37.179  14.730  16.891  0.2463 -0.2526 -0.2509
 2592DPPE   PO452958  36.908  14.622  17.255 -0.0452 -0.0650 -0.0511
 2592DPPE   GL152959  36.677  14.284  17.270 -0.0210 -0.1994 -0.0662
 2592DPPE   GL252960  36.367  14.380  17.171 -0.3523 -0.1007  0.0728
 2592DPPE   C1A52961  36.463  13.895  17.522  0.0171  0.1532 -0.0532
 2592DPPE   C2A52962  36.233  13.596  17.883  0.2331 -0.1216 -0.2388
 2592DPPE   C3A52963  36.439  13.175  18.102 -0.0959  0.1551 -0.3040
 2592DPPE   C4A52964  36.622  12.812  18.081 -0.0834 -0.4362  0.2965
 2592DPPE   C1B52965  36.120  14.301  17.504 -0.1877 -0.3678 -0.1034
 2592DPPE   C2B52966  35.835  14.018  17.642  0.3151 -0.0726  0.2191
 2592DPPE   C3B52967  35.676  13.683  17.704 -0.2649 -0.0791 -0.0264
 2592DPPE   C4B52968  35.741  13.463  18.169 -0.1848 -0.3171  0.6091
 2593DPPE   NH352969  32.760  20.774  11.467 -0.0159  0.3799  0.1162
 2593DPPE   PO452970  32.797  21.136  11.112  0.0313  0.4933 -0.1669
 2593DPPE   GL152971  32.592  20.963  10.854  0.2709  0.0350 -0.1885
 2593DPPE   GL252972  32.539  20.569  10.938 -0.2534 -0.0242 -0.1524
 2593DPPE   C1A52973  32.215  21.082  10.835  0.0403  0.2723  0.0742
 2593DPPE   C2A52974  31.872  21.264  10.630  0.2029 -0.1676  0.1412
 2593DPPE   C3A52975  31.606  21.660  10.757 -0.0303  0.0100 -0.1095
 2593DPPE   C4A52976  31.148  21.734  10.955  0.0331  0.2352 -0.0675
 2593DPPE   C1B52977  32.174  20.650  11.131  0.1352 -0.0504 -0.0456
 2593DPPE   C2B52978  31.973  20.754  11.379 -0.0723 -0.3076  0.0259
 2593DPPE   C3B52979  31.600  20.870  11.501  0.0854 -0.0564  0.0938
 2593DPPE   C4B52980  31.404  21.218  11.325 -0.2816  0.3453  0.0784
 2594DPPE   NH352981  35.386  15.674  14.979 -0.1049  0.0479 -0.1535
 2594DPPE   PO452982  35.120  15.941  15.064 -0.2103 -0.2632  0.0061
 2594DPPE   GL152983  34.966  15.510  15.304 -0.0150 -0.0251 -0.0264
 2594DPPE   GL252984  34.992  15.231  15.187 -0.1152 -0.3220 -0.0324
 2594DPPE   C1A52985  34.588  15.369  15.562 -0.2442 -0.2973 -0.1220
 2594DPPE   C2A52986  34.543  15.148  15.913 -0.0514  0.4090  0.0429
 2594DPPE   C3A52987  34.522  14.846  16.269 -0.4583  0.2038  0.0575
 2594DPPE   C4A52988  34.260  14.772  16.516  0.1043 -0.0896  0.0351
 2594DPPE   C1B52989  34.682  14.931  15.472 -0.2994  0.2565  0.0280
 2594DPPE   C2B52990  34.359  14.604  15.621  0.0136  0.2368 -0.1528
 2594DPPE   C3B52991  34.370  14.464  16.013 -0.0163  0.0770  0.0631
 2594DPPE   C4B52992  34.556  14.341  16.389  0.0145  0.1064  0.0296
 2595DPPE   NH352993   0.677  12.343  13.023  0.4902 -0.0001  0.0355
 2595DPPE   PO452994   0.799  12.617  12.764 -0.0332 -0.0668  0.0697
 2595DPPE   GL152995   1.206  12.883  12.578 -0.0057  0.3024 -0.4245
 2595DPPE   GL252996   1.416  13.068  12.687 -0.0531  0.0649 -0.1804
 2595DPPE   C1A52997   1.220  13.229  12.250 -0.2320  0.0659 -0.0854
 2595DPPE   C2A52998   1.338  13.575  12.178  0.0786 -0.3317 -0.0641
 2595DPPE   C3A52999   1.351  13.981  12.125  0.1629 -0.1655  0.2827
 2595DPPE   C4A53000   1.133  14.444  12.359 -0.1282  0.1558 -0.0464
 2595DPPE   C1B53001   1.703  13.476  12.553  0.0183  0.3296  0.3063
 2595DPPE   C2B53002   1.841  13.898  12.497  0.1245  0.1003 -0.1349
 2595DPPE   C3B53003   1.881  14.306  12.336  0.0270  0.1759 -0.0902
 2595DPPE   C4B53004   1.901  14.602  12.513 -0.0665  0.0626 -0.0009
 2596DPPE   NH353005  36.065  18.184   5.017 -0.0723  0.1581  0.3211
 2596DPPE   PO453006  36.392  17.948   5.286 -0.0717  0.2605  0.1114
 2596DPPE   GL153007  36.705  17.968   5.546  0.0866  0.3613 -0.0008
 2596DPPE   GL253008  36.864  17.665   5.813  0.0393  0.1420  0.0417
 2596DPPE   C1A53009  36.996  18.219   5.767  0.1912  0.1925 -0.2641
 2596DPPE   C2A53010  37.421  18.183   6.017 -0.1414  0.1653  0.1391
 2596DPPE   C3A53011  37.777  18.241   6.365  0.2364  0.2457 -0.0593
 2596DPPE   C4A53012  38.090  18.284   6.513  0.2015  0.0348 -0.3775
 2596DPPE   C1B53013  37.217  17.558   6.036  0.2828 -0.2150 -0.1522
 2596DPPE   C2B53014  37.611  17.756   6.224  0.3211 -0.0654 -0.1006
 2596DPPE   C3B53015  38.014  17.782   6.261 -0.1348 -0.2762 -0.0767
 2596DPPE   C4B53016  38.353  17.702   6.551  0.3659 -0.1522 -0.0673
 2597DPPE   NH353017  35.460  16.004   5.711  0.0687  0.5759 -0.3358
 2597DPPE   PO453018  35.724  16.147   5.410  0.0707 -0.1328 -0.1533
 2597DPPE   GL153019  35.391  16.217   5.202 -0.0804 -0.2200  0.2903
 2597DPPE   GL253020  35.164  16.343   5.295  0.0662 -0.0726  0.0318
 2597DPPE   C1A53021  35.397  15.827   4.932  0.0350 -0.1100 -0.0144
 2597DPPE   C2A53022  35.179  15.512   4.608  0.0083  0.4068 -0.2109
 2597DPPE   C3A53023  35.290  15.353   4.196 -0.1457  0.1851 -0.1062
 2597DPPE   C4A53024  35.138  15.345   3.767  0.0962  0.0406  0.0883
 2597DPPE   C1B53025  34.968  16.010   5.005  0.1266 -0.1538 -0.0533
 2597DPPE   C2B53026  34.728  15.729   4.708 -0.3507 -0.1041 -0.1209
 2597DPPE   C3B53027  34.460  15.347   4.782  0.3176  0.0228 -0.0590
 2597DPPE   C4B53028  34.432  14.894   4.697 -0.3024  0.0472 -0.1950
 2598DPPE   NH353029   0.742  12.535   9.091 -0.1914  0.4517  0.4307
 2598DPPE   PO453030   0.782  12.317   9.420 -0.2170  0.3887  0.1641
 2598DPPE   GL153031   1.036  12.678   9.497  0.0697  0.3841  0.2510
 2598DPPE   GL253032   1.100  12.798   9.780  0.3121 -0.1412  0.1730
 2598DPPE   C1A53033   1.316  12.951   9.339 -0.1769  0.0806 -0.0725
 2598DPPE   C2A53034   1.692  13.132   9.157  0.1975  0.2182 -0.0717
 2598DPPE   C3A53035   2.048  13.374   9.119 -0.3024 -0.3678  0.0306
 2598DPPE   C4A53036   2.346  13.392   8.765 -0.1178 -0.1751  0.1508
 2598DPPE   C1B53037   1.129  13.104   9.990 -0.0302 -0.0439 -0.3368
 2598DPPE   C2B53038   1.130  13.414  10.263  0.1071 -0.0449 -0.3973
 2598DPPE   C3B53039   1.330  13.743  10.279  0.0575  0.1221  0.1023
 2598DPPE   C4B53040   1.461  14.104  10.539  0.1153 -0.0157 -0.1795
 2599DPPE   NH353041  35.958  15.293  10.081  0.2324  0.3405 -0.1248
 2599DPPE   PO453042  35.995  15.168  10.549  0.1261  0.1802  0.0053
 2599DPPE   GL153043  36.321  15.422  10.715  0.0206 -0.0329  0.3026
 2599DPPE   GL253044  36.277  15.674  10.664  0.0958 -0.2020 -0.1660
 2599DPPE   C1A53045  36.648  15.530  11.054  0.0715  0.1168 -0.1504
 2599DPPE   C2A53046  37.029  15.555  11.255 -0.2203  0.0828  0.1156
 2599DPPE   C3A53047  37.507  15.666  11.345 -0.1548 -0.1751  0.0328
 2599DPPE   C4A53048  37.724  16.002  11.383 -0.1365 -0.1432 -0.1059
 2599DPPE   C1B53049  36.743  15.707  10.627  0.0993 -0.1234 -0.1201
 2599DPPE   C2B53050  37.034  16.043  10.522 -0.2308 -0.1348  0.1364
 2599DPPE   C3B53051  37.512  15.956  10.397 -0.1915  0.1168 -0.0019
 2599DPPE   C4B53052  37.980  15.952  10.319  0.0299  0.0434  0.1168
 2600DPPE   NH353053  35.333  18.657   6.560 -0.0568  0.0868 -0.0369
 2600DPPE   PO453054  35.765  18.495   6.460 -0.1969 -0.1661  0.0418
 2600DPPE   GL153055  36.143  18.794   6.413 -0.0398 -0.2597 -0.2298
 2600DPPE   GL253056  36.534  18.785   6.438  0.0604 -0.3355 -0.0083
 2600DPPE   C1A53057  36.306  18.972   6.836 -0.0830 -0.1361 -0.0751
 2600DPPE   C2A53058  36.340  19.359   7.074 -0.0842 -0.2248 -0.0595
 2600DPPE   C3A53059  36.600  19.677   7.206  0.0181 -0.0537 -0.1607
 2600DPPE   C4A53060  37.001  19.661   7.243  0.0862  0.0335  0.1956
 2600DPPE   C1B53061  37.012  18.937   6.387 -0.0801  0.1768 -0.2124
 2600DPPE   C2B53062  37.292  19.044   6.642 -0.0614  0.2161  0.3698
 2600DPPE   C3B53063  37.642  19.114   6.715 -0.1875  0.0646 -0.1289
 2600DPPE   C4B53064  37.866  19.477   6.787 -0.0329 -0.0164 -0.1759
 2601DPPE   NH353065  35.186  19.543  14.908  0.0403  0.1645  0.0094
 2601DPPE   PO453066  35.045  19.903  14.829 -0.0907  0.1244 -0.3087
 2601DPPE   GL153067  35.403  19.969  14.747 -0.0983  0.0405 -0.1403
 2601DPPE   GL253068  35.727  20.044  14.864  0.4573  0.0537  0.1381
 2601DPPE   C1A53069  35.626  20.170  14.377  0.2882  0.1059 -0.0654
 2601DPPE   C2A53070  35.836  20.467  14.170 -0.2598  0.3273 -0.1569
 2601DPPE   C3A53071  36.208  20.791  14.196  0.4833 -0.0386 -0.1750
 2601DPPE   C4A53072  36.529  21.140  14.466  0.4247  0.3108  0.2953
 2601DPPE   C1B53073  36.014  20.107  14.625 -0.2209  0.2551 -0.1174
 2601DPPE   C2B53074  36.296  20.337  14.380 -0.1174  0.0389  0.2859
 2601DPPE   C3B53075  36.613  20.514  14.148 -0.2371 -0.0792 -0.1959
 2601DPPE   C4B53076  36.628  20.958  13.998 -0.3321 -0.1166  0.0425
 2602DPPE   NH353077  35.556  22.664   6.581 -0.1668 -0.2206 -0.0566
 2602DPPE   PO453078  35.501  23.068   6.449  0.2015 -0.0284 -0.1071
 2602DPPE   GL153079  35.709  23.347   6.150 -0.1210 -0.1073 -0.2238
 2602DPPE   GL253080  35.910  23.298   5.904 -0.0271 -0.1308  0.0629
 2602DPPE   C1A53081  35.852  23.816   6.090 -0.2803 -0.0523  0.2503
 2602DPPE   C2A53082  36.009  24.119   5.775  0.0045  0.2274  0.3307
 2602DPPE   C3A53083  35.918  24.200   5.331 -0.2462  0.0626  0.2021
 2602DPPE   C4A53084  36.083  24.201   4.900  0.1424 -0.3274 -0.3502
 2602DPPE   C1B53085  36.194  23.004   5.598  0.2736  0.0490  0.2188
 2602DPPE   C2B53086  36.403  22.983   5.250 -0.0129  0.0158  0.2784
 2602DPPE   C3B53087  36.477  22.969   4.870  0.3163  0.0322 -0.2193
 2602DPPE   C4B53088  36.854  23.219   4.815  0.0694 -0.2013  0.1940
 2603DPPE   NH353089  33.558  18.428   9.730 -0.0206  0.2731 -0.2371
 2603DPPE   PO453090  33.792  18.775   9.782 -0.2026 -0.3413  0.0816
 2603DPPE   GL153091  34.225  18.833   9.896  0.1882  0.0288  0.2480
 2603DPPE   GL253092  34.176  19.072  10.081 -0.2538 -0.0631  0.2103
 2603DPPE   C1A53093  34.711  19.081   9.919 -0.2344  0.2595  0.0945
 2603DPPE   C2A53094  35.052  19.271  10.039 -0.2045 -0.0440 -0.3706
 2603DPPE   C3A53095  35.412  19.111  10.171  0.0867 -0.1574 -0.0045
 2603DPPE   C4A53096  35.793  19.196  10.405  0.0981  0.5012 -0.1388
 2603DPPE   C1B53097  34.484  19.194  10.367 -0.2518 -0.2829 -0.0038
 2603DPPE   C2B53098  34.914  18.959  10.380 -0.1707 -0.1124 -0.0947
 2603DPPE   C3B53099  35.029  18.568  10.008 -0.0331  0.1494 -0.0979
 2603DPPE   C4B53100  34.908  18.426   9.540 -0.2086  0.3119  0.1798
 2604DPPE   NH353101  34.060  16.196  11.379  0.1435  0.3168 -0.3257
 2604DPPE   PO453102  34.246  15.930  11.070 -0.0542  0.1656  0.0393
 2604DPPE   GL153103  33.839  15.708  11.181  0.0379 -0.1032 -0.1033
 2604DPPE   GL253104  33.705  15.789  11.424  0.1152 -0.0814  0.0650
 2604DPPE   C1A53105  33.635  15.437  10.889  0.0049 -0.0776 -0.1750
 2604DPPE   C2A53106  33.252  15.312  10.856 -0.3933  0.3342  0.0303
 2604DPPE   C3A53107  32.769  15.422  11.034 -0.0644 -0.2993  0.3981
 2604DPPE   C4A53108  32.551  15.204  11.219  0.2461  0.3383  0.2908
 2604DPPE   C1B53109  33.649  15.348  11.594 -0.1808  0.5187 -0.1168
 2604DPPE   C2B53110  33.385  14.988  11.430  0.0115 -0.1435 -0.2698
 2604DPPE   C3B53111  33.025  14.771  11.261  0.0817  0.3626 -0.2698
 2604DPPE   C4B53112  32.730  14.508  11.385  0.1353  0.0219  0.1729
 2605DPPE   NH353113  37.380  12.372   9.413 -0.2672 -0.0017  0.3634
 2605DPPE   PO453114  37.513  12.263   9.025 -0.3288  0.0067  0.3762
 2605DPPE   GL153115  37.400  11.853   9.061 -0.0355  0.1943 -0.0068
 2605DPPE   GL253116  37.655  11.730   8.793  0.1979 -0.1828  0.0989
 2605DPPE   C1A53117  37.271  11.531   9.231 -0.1298  0.2531  0.0325
 2605DPPE   C2A53118  36.954  11.261   9.446  0.2332 -0.1492  0.1630
 2605DPPE   C3A53119  36.588  10.860   9.396  0.2599 -0.0668 -0.1548
 2605DPPE   C4A53120  36.251  10.672   9.561  0.1151 -0.1329  0.2409
 2605DPPE   C1B53121  37.290  11.513   8.742 -0.1117  0.4875 -0.2426
 2605DPPE   C2B53122  37.214  11.083   8.913 -0.1687 -0.0537 -0.2388
 2605DPPE   C3B53123  36.839  10.855   8.974  0.0270 -0.0013 -0.0416
 2605DPPE   C4B53124  36.716  10.396   9.047  0.2248  0.2856  0.1002
 2606DPPE   NH353125   0.853  10.757  11.881 -0.0336  0.2955 -0.1301
 2606DPPE   PO453126   0.432  10.696  11.742 -0.2159  0.0882 -0.2280
 2606DPPE   GL153127   0.309  10.522  11.389 -0.0884 -0.0833 -0.0781
 2606DPPE   GL253128   0.052  10.605  11.080 -0.1329 -0.1484  0.0895
 2606DPPE   C1A53129   0.320  10.088  11.175  0.0045  0.1654  0.1358
 2606DPPE   C2A53130  -0.000   9.733  11.132  0.1709  0.1615  0.0102
 2606DPPE   C3A53131  -0.410   9.666  11.226 -0.0614  0.2005  0.1600
 2606DPPE   C4A53132  -0.782   9.344  11.424 -0.1055  0.1942  0.2707
 2606DPPE   C1B53133  -0.273  10.247  11.096  0.0753 -0.2715 -0.0909
 2606DPPE   C2B53134  -0.597  10.182  11.132  0.3225  0.3955 -0.1644
 2606DPPE   C3B53135  -1.000  10.057  10.945 -0.1087  0.1586 -0.0853
 2606DPPE   C4B53136  -1.250   9.757  10.689  0.3350  0.0529  0.3204
 2607DPPE   NH353137  34.904  15.477  12.111 -0.1448  0.3389  0.0235
 2607DPPE   PO453138  34.644  15.654  12.456  0.0075 -0.3157  0.0343
 2607DPPE   GL153139  34.280  15.542  12.644  0.1809 -0.2099 -0.0257
 2607DPPE   GL253140  34.287  15.289  12.884 -0.2420  0.0053  0.4227
 2607DPPE   C1A53141  33.831  15.626  12.822  0.0478  0.0387 -0.1209
 2607DPPE   C2A53142  33.537  15.496  13.049 -0.1017  0.0277  0.2576
 2607DPPE   C3A53143  33.157  15.254  13.040 -0.0900 -0.2526 -0.2120
 2607DPPE   C4A53144  32.928  14.937  13.033  0.2822 -0.2689  0.1313
 2607DPPE   C1B53145  33.793  15.101  12.850  0.0388  0.3237  0.1584
 2607DPPE   C2B53146  33.453  14.853  12.983  0.0658  0.0583 -0.4503
 2607DPPE   C3B53147  33.388  14.394  13.064  0.3724  0.2658 -0.1928
 2607DPPE   C4B53148  33.182  14.177  13.327 -0.3010  0.1391 -0.2895
 2608DPPE   NH353149  37.622  15.662   5.045 -0.0512 -0.0282  0.2981
 2608DPPE   PO453150  37.600  15.717   5.458 -0.1412  0.2218 -0.0768
 2608DPPE   GL153151  37.904  15.983   5.514 -0.2240 -0.2870  0.0059
 2608DPPE   GL253152  38.194  15.838   5.417  0.1433  0.1184 -0.2043
 2608DPPE   C1A53153  38.152  16.273   5.701  0.2947 -0.0535 -0.1541
 2608DPPE   C2A53154  38.458  16.434   5.983  0.2350  0.1726  0.0117
 2608DPPE   C3A53155  38.923  16.507   6.051 -0.0515  0.0966  0.1679
 2608DPPE   C4A53156  39.293  16.809   6.157  0.2276 -0.1318 -0.0445
 2608DPPE   C1B53157  38.457  16.196   5.248  0.0284 -0.1222 -0.0430
 2608DPPE   C2B53158  38.798  16.508   5.530 -0.0817 -0.0042  0.0641
 2608DPPE   C3B53159  39.165  16.824   5.604  0.0919 -0.1714 -0.0601
 2608DPPE   C4B53160  39.357  17.293   5.694  0.0079  0.2935 -0.1508
 2609DPPE   NH353161  35.134  18.120  17.195  0.0802  0.0960 -0.1012
 2609DPPE   PO453162  35.273  17.731  17.295  0.0283 -0.1077  0.0658
 2609DPPE   GL153163  34.910  17.962  17.654  0.3287 -0.0728 -0.2112
 2609DPPE   GL253164  35.026  17.875  18.054 -0.0086 -0.2551  0.0951
 2609DPPE   C1A53165  34.589  17.698  17.873 -0.2475 -0.2178  0.1383
 2609DPPE   C2A53166  34.269  17.701  18.154  0.0223 -0.2312 -0.0124
 2609DPPE   C3A53167  34.248  17.430  18.472 -0.0190  0.1033  0.0814
 2609DPPE   C4A53168  34.066  17.201  18.824 -0.3843  0.1615 -0.1091
 2609DPPE   C1B53169  34.661  17.923  18.391 -0.0252  0.1958  0.3511
 2609DPPE   C2B53170  34.554  17.712  18.832  0.6480 -0.2684  0.0419
 2609DPPE   C3B53171  34.485  17.402  19.139 -0.1130  0.4032  0.1724
 2609DPPE   C4B53172  34.470  17.115  19.414 -0.3679  0.1975  0.0781
 2610DPPE   NH353173  34.198  21.984  13.942 -0.3169 -0.3732  0.0512
 2610DPPE   PO453174  34.606  22.093  13.838 -0.1077  0.0082  0.2162
 2610DPPE   GL153175  35.062  22.160  13.710 -0.3576 -0.1761  0.0089
 2610DPPE   GL253176  35.168  22.516  13.612  0.3601 -0.4492  0.0322
 2610DPPE   C1A53177  35.459  22.136  13.716  0.1180  0.0561  0.3621
 2610DPPE   C2A53178  35.926  22.049  13.775  0.3368 -0.1004  0.2063
 2610DPPE   C3A53179  36.386  21.923  13.623  0.1717  0.0824 -0.1541
 2610DPPE   C4A53180  36.846  21.955  13.902  0.1253 -0.0183 -0.1951
 2610DPPE   C1B53181  35.523  22.718  13.460 -0.2382  0.0186  0.0085
 2610DPPE   C2B53182  35.644  23.011  13.536  0.0795  0.3036  0.2327
 2610DPPE   C3B53183  35.744  23.325  13.782 -0.0295 -0.2965 -0.2679
 2610DPPE   C4B53184  35.709  23.799  13.741 -0.1255  0.3313  0.0867
 2611DPPE   NH353185  34.333  23.499   7.993  0.3374  0.0191 -0.2568
 2611DPPE   PO453186  33.969  23.577   8.015 -0.0375  0.2070 -0.0914
 2611DPPE   GL153187  33.760  23.985   7.875  0.0790  0.0259 -0.1486
 2611DPPE   GL253188  33.473  24.000   7.586 -0.3642  0.0319 -0.1695
 2611DPPE   C1A53189  33.649  24.377   7.973  0.0761  0.1305 -0.5182
 2611DPPE   C2A53190  33.557  24.781   8.144 -0.2094  0.0521  0.0527
 2611DPPE   C3A53191  33.317  25.089   8.339 -0.0061  0.2194  0.0226
 2611DPPE   C4A53192  33.065  25.366   8.391 -0.2346 -0.0691 -0.1864
 2611DPPE   C1B53193  33.122  24.250   7.332 -0.0651 -0.0612  0.1581
 2611DPPE   C2B53194  32.800  24.281   7.022 -0.0957 -0.0456 -0.0486
 2611DPPE   C3B53195  32.541  24.117   6.835  0.4417 -0.1076  0.1142
 2611DPPE   C4B53196  32.259  23.724   6.884 -0.1475  0.0213  0.0461
 2612DPPE   NH353197   0.877  12.707   3.788 -0.1251  0.2585  0.1350
 2612DPPE   PO453198   1.026  12.553   4.129 -0.0373 -0.0593 -0.2109
 2612DPPE   GL153199   0.827  12.205   3.941 -0.0039 -0.2623 -0.2825
 2612DPPE   GL253200   0.575  12.300   3.849 -0.2918  0.0793 -0.1084
 2612DPPE   C1A53201   0.879  11.928   3.673 -0.0139 -0.0415 -0.1277
 2612DPPE   C2A53202   1.061  11.571   3.441  0.1941  0.1000 -0.3296
 2612DPPE   C3A53203   1.103  11.138   3.115 -0.1462 -0.1835 -0.0061
 2612DPPE   C4A53204   1.448  11.038   2.826 -0.2206 -0.0260  0.2292
 2612DPPE   C1B53205   0.177  12.190   3.751  0.1840 -0.1978  0.1075
 2612DPPE   C2B53206  -0.116  12.162   3.447  0.0598 -0.1895  0.0213
 2612DPPE   C3B53207  -0.541  12.271   3.369  0.0325 -0.3776 -0.1120
 2612DPPE   C4B53208  -0.975  12.246   3.274  0.1953  0.1519 -0.0496
 2613DPPE   NH353209  36.027  20.391   5.108 -0.0801  0.0316  0.1520
 2613DPPE   PO453210  36.001  20.541   4.631 -0.0271  0.0459 -0.1352
 2613DPPE   GL153211  36.200  20.769   4.469 -0.1074 -0.1264  0.0398
 2613DPPE   GL253212  36.099  20.906   4.145 -0.0446  0.2167  0.1621
 2613DPPE   C1A53213  36.594  20.934   4.350 -0.1911 -0.1119 -0.3190
 2613DPPE   C2A53214  37.037  21.050   4.160 -0.3122 -0.2627 -0.1311
 2613DPPE   C3A53215  37.018  21.159   3.806 -0.0002  0.0250  0.0485
 2613DPPE   C4A53216  37.196  21.258   3.438 -0.0388 -0.2507 -0.4754
 2613DPPE   C1B53217  36.243  21.274   4.221  0.1040  0.0724 -0.4691
 2613DPPE   C2B53218  36.707  21.432   4.328  0.0617 -0.1997 -0.2698
 2613DPPE   C3B53219  37.074  21.542   4.242 -0.2614  0.0265  0.2243
 2613DPPE   C4B53220  37.289  21.628   3.814  0.1451 -0.2664  0.4547
 2614DPPE   NH353221  37.010  14.738  14.085 -0.1076  0.0709  0.1365
 2614DPPE   PO453222  36.769  15.040  14.306  0.1034  0.4796  0.1636
 2614DPPE   GL153223  36.980  15.307  14.052 -0.0754 -0.2350  0.1634
 2614DPPE   GL253224  37.259  15.111  14.076 -0.0853  0.1519  0.0374
 2614DPPE   C1A53225  36.986  15.787  13.887 -0.0069  0.0165  0.0273
 2614DPPE   C2A53226  37.165  16.139  13.612 -0.4917 -0.0536  0.0189
 2614DPPE   C3A53227  37.295  16.595  13.493  0.0652 -0.0357  0.0863
 2614DPPE   C4A53228  37.716  16.797  13.584  0.1229  0.1054 -0.1735
 2614DPPE   C1B53229  37.441  15.405  13.761  0.2666 -0.0304  0.2136
 2614DPPE   C2B53230  37.799  15.516  13.636  0.0072 -0.3451  0.1078
 2614DPPE   C3B53231  38.027  15.784  13.870  0.0467 -0.0008 -0.0081
 2614DPPE   C4B53232  38.187  16.156  13.985 -0.0736  0.1749 -0.2015
 2615DPPE   NH353233  36.513  14.205  15.374  0.0834  0.0901 -0.0238
 2615DPPE   PO453234  36.794  13.889  15.304 -0.4088  0.0950 -0.1799
 2615DPPE   GL153235  36.706  13.484  15.496  0.2146  0.3772 -0.1125
 2615DPPE   GL253236  36.990  13.267  15.693  0.4503  0.0284 -0.3082
 2615DPPE   C1A53237  36.501  13.064  15.538 -0.0526 -0.2830  0.1501
 2615DPPE   C2A53238  36.498  12.610  15.674  0.2707 -0.3873 -0.0398
 2615DPPE   C3A53239  36.321  12.308  15.902  0.0433  0.2899 -0.1956
 2615DPPE   C4A53240  36.175  12.016  16.119 -0.2025  0.0627 -0.1382
 2615DPPE   C1B53241  36.731  12.989  15.932 -0.5206  0.0069  0.1497
 2615DPPE   C2B53242  36.517  12.707  16.176 -0.1039 -0.0412 -0.1348
 2615DPPE   C3B53243  36.602  12.376  16.373 -0.0289 -0.0680  0.1917
 2615DPPE   C4B53244  36.561  11.946  16.383 -0.1112  0.1263 -0.3338
 2616DPPE   NH353245   1.773  11.113   5.620  0.2424  0.4085  0.2541
 2616DPPE   PO453246   2.142  10.833   5.729 -0.3063 -0.0075  0.2214
 2616DPPE   GL153247   1.779  10.502   5.640 -0.2670 -0.2295 -0.0277
 2616DPPE   GL253248   1.792  10.313   5.962  0.0720 -0.0322  0.0683
 2616DPPE   C1A53249   1.484  10.265   5.364  0.2259 -0.4779 -0.4629
 2616DPPE   C2A53250   1.246   9.958   5.267  0.0582  0.1553  0.0833
 2616DPPE   C3A53251   0.961   9.583   5.063  0.2275  0.3382  0.1126
 2616DPPE   C4A53252   1.092   9.438   4.686  0.1152  0.0086 -0.2568
 2616DPPE   C1B53253   1.991  10.049   5.664 -0.2854 -0.0593 -0.1415
 2616DPPE   C2B53254   2.287  10.235   5.364  0.0315  0.1255  0.0942
 2616DPPE   C3B53255   2.729   9.966   5.377  0.1927  0.0339  0.2556
 2616DPPE   C4B53256   2.825   9.458   5.179 -0.0023  0.0798  0.1575
 2617DPPE   NH353257  33.750  19.803  15.018  0.3386  0.0604  0.3143
 2617DPPE   PO453258  34.023  20.110  15.131 -0.3453  0.0401  0.1010
 2617DPPE   GL153259  33.517  20.244  15.088 -0.1918  0.1098  0.1808
 2617DPPE   GL253260  33.595  20.339  15.395  0.0632  0.0522  0.0485
 2617DPPE   C1A53261  33.153  20.489  14.928 -0.1960  0.1670  0.2656
 2617DPPE   C2A53262  32.703  20.667  15.217  0.0447 -0.0219  0.0953
 2617DPPE   C3A53263  32.276  20.818  15.075  0.3357 -0.3410  0.1904
 2617DPPE   C4A53264  31.963  20.835  15.336  0.2931 -0.1586  0.2979
 2617DPPE   C1B53265  33.163  20.547  15.567 -0.0773 -0.0394  0.0277
 2617DPPE   C2B53266  32.788  20.818  15.650  0.0369 -0.3422  0.3965
 2617DPPE   C3B53267  32.470  21.050  15.792 -0.0359  0.0068  0.1147
 2617DPPE   C4B53268  32.250  21.386  15.667 -0.0759 -0.2387  0.0698
 2618DPPE   NH353269  35.312  21.910   5.551  0.1598  0.0285  0.2264
 2618DPPE   PO453270  35.446  21.457   5.721 -0.0062 -0.1129 -0.1872
 2618DPPE   GL153271  35.843  21.279   5.839  0.0692 -0.0628 -0.0588
 2618DPPE   GL253272  36.078  21.479   5.681 -0.0702  0.3068 -0.2056
 2618DPPE   C1A53273  36.122  21.312   6.160 -0.0471 -0.0243 -0.0473
 2618DPPE   C2A53274  36.138  21.768   6.396 -0.0500  0.1034  0.1689
 2618DPPE   C3A53275  36.159  22.200   6.534 -0.0292 -0.0970  0.2768
 2618DPPE   C4A53276  36.055  22.420   6.944 -0.0623  0.0924  0.0675
 2618DPPE   C1B53277  36.475  21.261   5.729  0.1117  0.0217 -0.3098
 2618DPPE   C2B53278  36.946  21.151   5.759 -0.0148  0.0467  0.1506
 2618DPPE   C3B53279  37.263  21.054   6.058  0.1964  0.1230  0.2696
 2618DPPE   C4B53280  37.649  21.012   6.354 -0.3537  0.0664 -0.1885
 2619DPPE   NH353281  33.210  22.517  12.549 -0.4477 -0.1852  0.1507
 2619DPPE   PO453282  33.298  22.935  12.556  0.0310 -0.1528  0.2521
 2619DPPE   GL153283  33.254  23.376  12.411 -0.0786 -0.0463 -0.0174
 2619DPPE   GL253284  32.955  23.318  12.271  0.1044 -0.2608 -0.3795
 2619DPPE   C1A53285  33.040  23.750  12.529 -0.0726  0.0467 -0.0293
 2619DPPE   C2A53286  32.788  24.128  12.313  0.0865  0.3144 -0.2249
 2619DPPE   C3A53287  32.655  24.177  11.929  0.1973 -0.1917  0.2851
 2619DPPE   C4A53288  32.479  24.188  11.531  0.2136  0.1684  0.0585
 2619DPPE   C1B53289  32.605  23.560  12.274  0.2748  0.3016  0.2504
 2619DPPE   C2B53290  32.321  23.945  12.280  0.0316  0.0409 -0.2041
 2619DPPE   C3B53291  31.967  24.115  12.477 -0.2940  0.4083  0.0848
 2619DPPE   C4B53292  31.566  23.996  12.556  0.1322 -0.0292  0.0396
 2620DPPE   NH353293  35.661  14.895  13.366 -0.2961 -0.0069 -0.1162
 2620DPPE   PO453294  35.532  14.674  13.029  0.4200  0.0785  0.0941
 2620DPPE   GL153295  35.206  14.446  12.988  0.0683 -0.0483  0.4363
 2620DPPE   GL253296  34.909  14.651  13.036  0.3445 -0.0237  0.1752
 2620DPPE   C1A53297  34.918  14.093  13.008 -0.0432 -0.0275  0.0456
 2620DPPE   C2A53298  34.594  13.908  13.100 -0.1401  0.2326  0.0328
 2620DPPE   C3A53299  34.113  13.724  13.168 -0.2282 -0.4895  0.2133
 2620DPPE   C4A53300  33.985  13.276  13.512  0.2751 -0.0163  0.0046
 2620DPPE   C1B53301  34.525  14.450  13.150  0.0039  0.1145 -0.2804
 2620DPPE   C2B53302  34.039  14.278  13.229 -0.0715 -0.0055  0.1012
 2620DPPE   C3B53303  33.679  13.981  13.210 -0.2800 -0.0635  0.0174
 2620DPPE   C4B53304  33.539  13.545  13.165  0.4401  0.4011 -0.1844
 2621DPPE   NH353305  35.781  14.169  10.642  0.2285 -0.1663  0.0458
 2621DPPE   PO453306  35.525  14.515  10.884  0.0981  0.0204 -0.0659
 2621DPPE   GL153307  35.255  14.201  10.801  0.1443  0.1265  0.2291
 2621DPPE   GL253308  35.203  14.031  10.986 -0.1603  0.1239  0.1133
 2621DPPE   C1A53309  34.927  13.911  10.540  0.0565  0.0380 -0.0467
 2621DPPE   C2A53310  34.478  13.659  10.470  0.0122  0.0895  0.0443
 2621DPPE   C3A53311  33.935  13.533  10.379 -0.0630  0.1337 -0.2021
 2621DPPE   C4A53312  33.541  13.372  10.532  0.0631 -0.0126  0.2038
 2621DPPE   C1B53313  34.702  13.834  11.007  0.0434 -0.1420  0.3636
 2621DPPE   C2B53314  34.264  13.758  11.053 -0.0637  0.3618  0.1294
 2621DPPE   C3B53315  34.003  13.489  11.308 -0.2383 -0.0895  0.1817
 2621DPPE   C4B53316  33.867  13.112  11.477  0.3161  0.1276  0.2416
 2622DPPE   NH353317  38.118  16.154  17.982 -0.1144  0.2888 -0.2625
 2622DPPE   PO453318  37.589  16.218  17.920  0.0079  0.2002  0.0695
 2622DPPE   GL153319  37.842  16.631  17.962 -0.0254 -0.3941 -0.1923
 2622DPPE   GL253320  37.957  16.611  18.262  0.0538 -0.0925 -0.0988
 2622DPPE   C1A53321  38.150  16.974  17.967 -0.0175 -0.0989 -0.1560
 2622DPPE   C2A53322  38.422  17.303  18.221 -0.2157 -0.1365  0.1975
 2622DPPE   C3A53323  38.714  17.554  18.391  0.1187 -0.0333 -0.0764
 2622DPPE   C4A53324  38.766  17.881  18.754 -0.0742 -0.1744  0.2587
 2622DPPE   C1B53325  38.301  16.747  18.403  0.0800  0.2122  0.0330
 2622DPPE   C2B53326  38.277  16.994  18.797  0.1563  0.0566 -0.0514
 2622DPPE   C3B53327  38.176  17.043  19.212  0.0917 -0.1605  0.0302
 2622DPPE   C4B53328  38.125  16.913  19.672 -0.0690  0.3391 -0.1352
 2623DPPE   NH353329  34.144  16.979   8.436  0.1166 -0.0172  0.0947
 2623DPPE   PO453330  34.320  16.904   8.819  0.1132 -0.1495  0.4148
 2623DPPE   GL153331  34.017  16.582   8.781  0.2248  0.4156 -0.2277
 2623DPPE   GL253332  33.721  16.651   8.777  0.0485 -0.1151 -0.1965
 2623DPPE   C1A53333  33.723  16.142   8.925 -0.0140  0.1650 -0.2022
 2623DPPE   C2A53334  33.329  15.965   8.903  0.0642  0.0432 -0.0915
 2623DPPE   C3A53335  32.995  15.641   8.972 -0.1625 -0.1533  0.1615
 2623DPPE   C4A53336  32.708  15.346   8.687 -0.1937 -0.1319  0.1018
 2623DPPE   C1B53337  33.334  16.397   8.650 -0.1371  0.0913  0.1073
 2623DPPE   C2B53338  32.954  16.239   8.786 -0.0159 -0.3603  0.2020
 2623DPPE   C3B53339  32.646  16.006   8.822  0.2243 -0.2231 -0.3369
 2623DPPE   C4B53340  32.301  15.811   8.762  0.1386 -0.2819  0.1328
 2624DPPE   NH353341  36.249  19.067   3.089 -0.2093  0.2135  0.3438
 2624DPPE   PO453342  35.833  18.959   3.074  0.1943  0.2233  0.1597
 2624DPPE   GL153343  35.660  19.015   2.644  0.1116  0.3272  0.2178
 2624DPPE   GL253344  35.666  18.783   2.491  0.1794  0.1211  0.1683
 2624DPPE   C1A53345  35.188  18.915   2.409 -0.3689 -0.2464 -0.2750
 2624DPPE   C2A53346  34.745  18.855   2.297  0.3735 -0.0484  0.4179
 2624DPPE   C3A53347  34.352  19.021   2.478  0.0891 -0.2306  0.1779
 2624DPPE   C4A53348  33.934  19.338   2.510  0.0991  0.1158  0.1765
 2624DPPE   C1B53349  35.482  18.608   2.151  0.0489  0.1488  0.4029
 2624DPPE   C2B53350  35.162  18.631   1.942 -0.0432 -0.2144  0.0747
 2624DPPE   C3B53351  34.733  18.504   1.780 -0.0750 -0.0405  0.2006
 2624DPPE   C4B53352  34.315  18.180   1.852  0.3202 -0.1317  0.4571
 2625DPPE   NH353353  36.043  18.544   2.929 -0.0535  0.2072  0.0093
 2625DPPE   PO453354  36.019  18.337   2.500 -0.1771  0.0883 -0.0621
 2625DPPE   GL153355  36.260  18.424   2.087  0.1707 -0.0431 -0.0117
 2625DPPE   GL253356  36.490  18.703   2.139 -0.1242  0.1528 -0.1302
 2625DPPE   C1A53357  35.898  18.483   1.778 -0.3182 -0.1142  0.2562
 2625DPPE   C2A53358  35.624  18.706   1.648  0.0639 -0.1768  0.1377
 2625DPPE   C3A53359  35.837  18.639   1.300  0.4009 -0.0312  0.1525
 2625DPPE   C4A53360  36.102  18.671   0.926 -0.1511  0.0926 -0.2224
 2625DPPE   C1B53361  36.677  18.827   1.776  0.1887  0.0507  0.0858
 2625DPPE   C2B53362  37.120  18.984   1.834  0.2081 -0.1508 -0.3632
 2625DPPE   C3B53363  37.324  19.223   2.125 -0.2723 -0.1202 -0.0062
 2625DPPE   C4B53364  37.363  19.192   2.589  0.0964 -0.0846 -0.0417
 2626DPPE   NH353365   1.414  14.004  16.337  0.1536  0.1979 -0.0377
 2626DPPE   PO453366   1.709  13.961  16.518  0.1902  0.3472  0.0590
 2626DPPE   GL153367   2.149  14.108  16.557  0.1521  0.2905  0.0204
 2626DPPE   GL253368   2.335  14.206  16.842 -0.2171 -0.2105  0.3298
 2626DPPE   C1A53369   2.641  14.007  16.560 -0.1063 -0.2990 -0.2236
 2626DPPE   C2A53370   2.974  13.808  16.465  0.0075 -0.0366  0.0210
 2626DPPE   C3A53371   3.239  13.596  16.556  0.1630 -0.0090 -0.1127
 2626DPPE   C4A53372   3.328  13.275  16.301  0.0101 -0.0798 -0.2399
 2626DPPE   C1B53373   2.659  14.327  17.037  0.1468  0.1857 -0.0330
 2626DPPE   C2B53374   3.191  14.596  16.922 -0.1848 -0.0985  0.0113
 2626DPPE   C3B53375   3.392  14.755  17.203  0.0785 -0.2917 -0.1080
 2626DPPE   C4B53376   3.328  15.059  17.398  0.2939 -0.0640  0.1160
 2627DPPE   NH353377  36.349  14.977   8.895 -0.0691  0.3140 -0.0613
 2627DPPE   PO453378  36.145  15.157   9.147  0.0524 -0.0995  0.2406
 2627DPPE   GL153379  36.412  15.443   9.251  0.0001  0.1963 -0.0003
 2627DPPE   GL253380  36.247  15.738   9.093  0.0442 -0.1632 -0.0862
 2627DPPE   C1A53381  36.858  15.513   9.507  0.1149 -0.0183 -0.1347
 2627DPPE   C2A53382  37.320  15.694   9.485  0.4247 -0.1355  0.0377
 2627DPPE   C3A53383  37.740  15.861   9.534 -0.2939  0.1906 -0.0314
 2627DPPE   C4A53384  38.066  16.038   9.420  0.2879  0.0630  0.0066
 2627DPPE   C1B53385  36.527  15.919   9.380  0.0384 -0.0890  0.1085
 2627DPPE   C2B53386  36.895  16.144   9.552  0.2137  0.0473  0.1860
 2627DPPE   C3B53387  37.238  16.472   9.703  0.0006 -0.0060  0.1792
 2627DPPE   C4B53388  37.556  16.663   9.938  0.2075  0.0850  0.0348
 2628DPPE   NH353389  33.636  21.847  11.807 -0.0083  0.0335  0.0207
 2628DPPE   PO453390  33.137  21.696  11.786 -0.4269 -0.2311 -0.2751
 2628DPPE   GL153391  32.686  21.523  11.747 -0.0443  0.2972 -0.2347
 2628DPPE   GL253392  32.539  21.775  11.816 -0.2409  0.0845 -0.0955
 2628DPPE   C1A53393  32.279  21.164  11.847 -0.1981 -0.1599 -0.0496
 2628DPPE   C2A53394  31.956  20.824  11.913  0.0429 -0.0417 -0.1184
 2628DPPE   C3A53395  31.564  20.680  11.935 -0.0022 -0.1593  0.1246
 2628DPPE   C4A53396  31.184  20.622  12.288  0.0508 -0.3847  0.0471
 2628DPPE   C1B53397  32.148  21.661  11.694  0.0788 -0.1775 -0.0844
 2628DPPE   C2B53398  31.880  21.318  11.595  0.1752 -0.1320  0.1255
 2628DPPE   C3B53399  31.625  21.214  11.910  0.0388  0.2157 -0.3814
 2628DPPE   C4B53400  31.418  21.041  12.261  0.1599 -0.3234  0.4317
 2629DPPE   NH353401  36.728  17.297  17.688 -0.0128  0.1254  0.0435
 2629DPPE   PO453402  37.021  17.673  17.616  0.1300  0.3403 -0.0224
 2629DPPE   GL153403  37.346  17.882  17.739  0.0934 -0.0441  0.0176
 2629DPPE   GL253404  37.464  17.619  17.890 -0.4080 -0.1847  0.0399
 2629DPPE   C1A53405  37.630  18.212  17.870  0.1241  0.2525 -0.1197
 2629DPPE   C2A53406  37.801  18.412  18.293  0.0971 -0.2663  0.1700
 2629DPPE   C3A53407  38.108  18.758  18.276  0.2256 -0.0846 -0.1082
 2629DPPE   C4A53408  38.578  18.671  18.536 -0.0177 -0.0073  0.0639
 2629DPPE   C1B53409  37.622  17.875  18.250 -0.3567  0.0688 -0.0113
 2629DPPE   C2B53410  37.951  18.030  18.565  0.0561 -0.1589 -0.0531
 2629DPPE   C3B53411  38.282  18.298  18.715 -0.1220  0.1493  0.1889
 2629DPPE   C4B53412  38.314  18.653  19.034 -0.0431  0.2588 -0.4103
 2630DPPE   NH353413   1.731  11.747  12.206  0.1397  0.0807  0.0902
 2630DPPE   PO453414   1.843  12.213  12.398 -0.0152 -0.0142  0.1214
 2630DPPE   GL153415   2.033  12.569  12.419  0.0604 -0.1222 -0.1249
 2630DPPE   GL253416   1.912  12.764  12.696  0.0214  0.2098  0.2322
 2630DPPE   C1A53417   2.383  12.721  12.354  0.0628 -0.2626  0.3344
 2630DPPE   C2A53418   2.575  12.959  12.520 -0.1885  0.0604  0.0449
 2630DPPE   C3A53419   2.652  13.300  12.634  0.0688  0.3877 -0.1060
 2630DPPE   C4A53420   2.674  13.570  13.031  0.4846  0.0250  0.0221
 2630DPPE   C1B53421   2.417  12.727  12.988  0.2292 -0.1091 -0.2351
 2630DPPE   C2B53422   2.699  13.020  13.129 -0.0917  0.0899 -0.1783
 2630DPPE   C3B53423   3.020  13.122  12.897 -0.2646  0.1026  0.5259
 2630DPPE   C4B53424   3.458  13.182  12.949  0.0690 -0.0292 -0.2122
 2631DPPE   NH353425  36.189  16.212  17.751 -0.2506 -0.0139 -0.0040
 2631DPPE   PO453426  36.056  16.524  17.838 -0.1861  0.2552  0.0095
 2631DPPE   GL153427  35.790  16.542  18.189  0.3745  0.0614  0.4226
 2631DPPE   GL253428  35.444  16.640  18.252  0.1722 -0.0483 -0.0929
 2631DPPE   C1A53429  35.694  16.403  18.584 -0.0235 -0.1557  0.1675
 2631DPPE   C2A53430  35.766  16.171  18.939  0.0209 -0.0037 -0.0674
 2631DPPE   C3A53431  35.893  16.110  19.298  0.1889  0.2314 -0.2525
 2631DPPE   C4A53432  36.160  15.930  19.492 -0.0328  0.0559  0.2407
 2631DPPE   C1B53433  35.020  16.323  18.323  0.1888  0.1868  0.1401
 2631DPPE   C2B53434  34.851  15.991  18.609 -0.2554 -0.4057 -0.0219
 2631DPPE   C3B53435  35.062  15.613  18.797  0.0052  0.3362  0.0726
 2631DPPE   C4B53436  35.024  15.208  18.954 -0.0891  0.0582  0.0284
 2632DPPE   NH353437   2.500  12.264  13.956 -0.2544 -0.0978  0.1046
 2632DPPE   PO453438   2.601  12.089  14.313  0.3166 -0.0799 -0.2291
 2632DPPE   GL153439   2.944  11.954  14.318  0.0946 -0.2614  0.0183
 2632DPPE   GL253440   3.043  12.097  13.992 -0.0048  0.0703 -0.1673
 2632DPPE   C1A53441   3.272  11.735  14.415 -0.0435 -0.0374 -0.2067
 2632DPPE   C2A53442   3.750  11.763  14.467 -0.0358 -0.0407 -0.0596
 2632DPPE   C3A53443   4.021  12.096  14.608  0.1872  0.3714 -0.1890
 2632DPPE   C4A53444   4.226  12.313  14.735 -0.1356  0.0622 -0.2775
 2632DPPE   C1B53445   3.272  12.516  13.916 -0.1029 -0.0843  0.0549
 2632DPPE   C2B53446   3.650  12.832  13.942  0.0431 -0.2829 -0.0215
 2632DPPE   C3B53447   3.944  12.863  13.631 -0.1960  0.1932  0.0696
 2632DPPE   C4B53448   4.204  12.566  13.407  0.1990  0.1118 -0.1583
 2633DPPE   NH353449  36.991  17.998   4.319  0.0814  0.1079  0.3453
 2633DPPE   PO453450  36.871  18.328   4.529  0.4321  0.3017  0.3080
 2633DPPE   GL153451  37.156  18.505   4.395  0.1450 -0.0956 -0.1485
 2633DPPE   GL253452  37.127  18.737   4.630 -0.0644  0.2236 -0.2810
 2633DPPE   C1A53453  37.593  18.579   4.366 -0.6249  0.1976 -0.0972
 2633DPPE   C2A53454  37.952  18.799   4.498 -0.0678 -0.2171 -0.0935
 2633DPPE   C3A53455  38.295  19.096   4.541 -0.0280  0.2196 -0.1790
 2633DPPE   C4A53456  38.678  19.116   4.795  0.0856  0.5354 -0.0816
 2633DPPE   C1B53457  37.053  19.160   4.440  0.1536 -0.1534 -0.3511
 2633DPPE   C2B53458  37.350  19.460   4.231 -0.3428 -0.0433 -0.0961
 2633DPPE   C3B53459  37.706  19.688   4.298 -0.0565  0.1372  0.2472
 2633DPPE   C4B53460  38.018  19.809   4.588  0.2514 -0.0520 -0.0519
 2634DPPE   NH353461  37.393  12.560   7.868 -0.2117  0.0420 -0.1405
 2634DPPE   PO453462  37.336  12.557   8.317 -0.1595 -0.3023  0.1437
 2634DPPE   GL153463  37.232  12.104   8.160 -0.1314  0.2062  0.1296
 2634DPPE   GL253464  37.383  11.784   8.319  0.1654  0.0429 -0.1407
 2634DPPE   C1A53465  37.038  12.002   7.887 -0.2446 -0.1587 -0.0831
 2634DPPE   C2A53466  36.770  11.647   7.753  0.1424 -0.2484  0.1166
 2634DPPE   C3A53467  36.730  11.225   7.543  0.0184  0.0238 -0.0882
 2634DPPE   C4A53468  36.356  10.928   7.370 -0.2344 -0.0758 -0.1676
 2634DPPE   C1B53469  36.981  11.610   8.330 -0.1160  0.1656  0.0909
 2634DPPE   C2B53470  36.560  11.616   8.426 -0.1493 -0.1801 -0.0308
 2634DPPE   C3B53471  36.233  11.449   8.246  0.0710 -0.2185  0.0193
 2634DPPE   C4B53472  35.864  11.332   8.060  0.3332 -0.1141 -0.3809
 2635DPPE   NH353473  33.848  22.345  13.641 -0.0390  0.1442 -0.3398
 2635DPPE   PO453474  33.713  22.076  13.953 -0.1258 -0.0015  0.2127
 2635DPPE   GL153475  33.476  22.020  14.279 -0.5838  0.1213 -0.3202
 2635DPPE   GL253476  33.287  21.808  14.417  0.2712  0.0403 -0.3102
 2635DPPE   C1A53477  33.071  22.214  14.513 -0.2701 -0.4223  0.0970
 2635DPPE   C2A53478  32.969  22.660  14.569  0.0794 -0.0115 -0.1016
 2635DPPE   C3A53479  32.851  22.977  14.307 -0.3262 -0.0980 -0.1190
 2635DPPE   C4A53480  32.868  23.447  14.196  0.0343  0.3149  0.4055
 2635DPPE   C1B53481  32.875  21.770  14.645  0.1149  0.3090 -0.1609
 2635DPPE   C2B53482  32.742  21.762  15.104  0.0919  0.0912 -0.0543
 2635DPPE   C3B53483  32.484  21.833  15.405  0.0843  0.0896  0.1463
 2635DPPE   C4B53484  32.181  22.176  15.339 -0.0551 -0.1925  0.1612
 2636DPPE   NH353485   3.138  11.012  11.552  0.0648 -0.1083 -0.3204
 2636DPPE   PO453486   3.083  10.751  11.315 -0.0642  0.0240  0.0834
 2636DPPE   GL153487   3.502  10.718  11.318 -0.2976  0.3167  0.1273
 2636DPPE   GL253488   3.659  10.541  11.141 -0.2090 -0.0449 -0.0554
 2636DPPE   C1A53489   3.987  10.872  11.318 -0.0113  0.0172 -0.0516
 2636DPPE   C2A53490   4.225  10.906  11.710 -0.0204 -0.1469 -0.1683
 2636DPPE   C3A53491   4.508  10.824  11.995  0.4056  0.2647 -0.0087
 2636DPPE   C4A53492   4.666  10.888  12.407  0.1254 -0.0338 -0.1173
 2636DPPE   C1B53493   4.104  10.332  11.262 -0.2068  0.2557  0.2177
 2636DPPE   C2B53494   4.471  10.278  11.474  0.2349  0.1251 -0.2064
 2636DPPE   C3B53495   4.803  10.444  11.685 -0.2768  0.1126  0.0029
 2636DPPE   C4B53496   4.770  10.416  12.159 -0.0809  0.2171 -0.1973
 2637DPPE   NH353497  34.196  20.043  15.634  0.1187  0.0716 -0.2615
 2637DPPE   PO453498  34.240  19.588  16.028  0.1679  0.0797 -0.1276
 2637DPPE   GL153499  33.933  19.478  16.382  0.0385 -0.1860  0.1602
 2637DPPE   GL253500  33.612  19.578  16.295  0.1903  0.1855 -0.4068
 2637DPPE   C1A53501  33.853  19.655  16.819  0.0419 -0.0469 -0.0022
 2637DPPE   C2A53502  33.585  19.863  17.059 -0.0725  0.1647  0.0208
 2637DPPE   C3A53503  33.536  19.820  17.504  0.0869 -0.0481 -0.0338
 2637DPPE   C4A53504  33.783  19.397  17.678 -0.0599  0.1704  0.0789
 2637DPPE   C1B53505  33.195  19.726  16.332  0.2390 -0.1752  0.0379
 2637DPPE   C2B53506  32.876  19.629  16.076  0.1980 -0.1297  0.1129
 2637DPPE   C3B53507  32.467  19.738  15.972 -0.0531  0.1309  0.0227
 2637DPPE   C4B53508  32.175  20.020  15.865  0.2549  0.2984 -0.0310
 2638DPPE   NH353509  34.313  23.511   9.891 -0.0560 -0.0334  0.1836
 2638DPPE   PO453510  34.085  23.796   9.784  0.1962  0.0035 -0.0094
 2638DPPE   GL153511  34.436  24.038   9.731  0.0129 -0.0256 -0.1432
 2638DPPE   GL253512  34.779  24.140   9.561 -0.3592 -0.4130  0.1400
 2638DPPE   C1A53513  34.512  24.500   9.981 -0.0916  0.5417  0.0401
 2638DPPE   C2A53514  34.465  24.879  10.278 -0.1004  0.0390  0.0791
 2638DPPE   C3A53515  34.520  25.107  10.690  0.3699  0.3577 -0.0017
 2638DPPE   C4A53516  34.752  25.039  11.053 -0.1782  0.1962 -0.2014
 2638DPPE   C1B53517  34.891  24.521   9.693  0.0176  0.3658 -0.0099
 2638DPPE   C2B53518  34.911  24.800  10.050  0.0318 -0.1800 -0.0216
 2638DPPE   C3B53519  34.959  25.026  10.467  0.1324 -0.4173  0.1231
 2638DPPE   C4B53520  35.273  25.182  10.820  0.1309  0.3413  0.1885
 2639DPPE   NH353521  37.310  17.215  17.684 -0.2371  0.0908 -0.2193
 2639DPPE   PO453522  37.072  17.288  18.035 -0.2290  0.3047 -0.2767
 2639DPPE   GL153523  37.439  17.275  18.239 -0.0597  0.1721  0.1258
 2639DPPE   GL253524  37.626  17.168  18.100 -0.0087 -0.1305 -0.1213
 2639DPPE   C1A53525  37.925  17.525  18.242 -0.3878  0.1141  0.3125
 2639DPPE   C2A53526  38.264  17.745  18.289 -0.0757 -0.1726 -0.0830
 2639DPPE   C3A53527  38.568  18.069  18.324 -0.2851 -0.1641  0.0393
 2639DPPE   C4A53528  39.017  18.215  18.489 -0.1731 -0.1492  0.0041
 2639DPPE   C1B53529  37.931  17.097  18.393 -0.0946  0.3359 -0.4005
 2639DPPE   C2B53530  38.112  17.474  18.719 -0.1571  0.0707 -0.1143
 2639DPPE   C3B53531  38.229  17.845  18.939  0.0898  0.2267  0.0625
 2639DPPE   C4B53532  38.442  18.187  19.243  0.4396  0.1031 -0.3031
 2640DPPE   NH353533  37.567  11.758  10.553  0.2867 -0.2253  0.4150
 2640DPPE   PO453534  37.422  12.150  10.411  0.0298 -0.0580  0.1535
 2640DPPE   GL153535  37.018  12.138  10.198 -0.0463 -0.0596 -0.0574
 2640DPPE   GL253536  36.945  11.994   9.969  0.3209  0.1089 -0.0298
 2640DPPE   C1A53537  36.651  11.768  10.396 -0.0711 -0.3812  0.0296
 2640DPPE   C2A53538  36.311  11.527  10.427  0.1555 -0.0085  0.0655
 2640DPPE   C3A53539  36.042  11.233  10.222 -0.1258 -0.5361 -0.0792
 2640DPPE   C4A53540  35.616  11.074  10.290 -0.1706  0.0525  0.0017
 2640DPPE   C1B53541  36.543  12.057   9.724 -0.2285 -0.2442  0.0347
 2640DPPE   C2B53542  36.212  11.777   9.510 -0.0309 -0.0956  0.0650
 2640DPPE   C3B53543  35.857  11.613   9.414 -0.0783  0.0660  0.0390
 2640DPPE   C4B53544  35.564  11.315   9.259  0.1983 -0.1826  0.1653
 2641DPPE   NH353545  37.752  13.937  17.202 -0.1771  0.1231 -0.3770
 2641DPPE   PO453546  37.699  14.307  17.520  0.0415  0.0023  0.1491
 2641DPPE   GL153547  37.503  13.949  17.679 -0.0087 -0.2341 -0.1823
 2641DPPE   GL253548  37.411  14.092  17.931 -0.3279 -0.0495 -0.0859
 2641DPPE   C1A53549  37.243  13.639  17.739 -0.0360 -0.0736  0.1983
 2641DPPE   C2A53550  37.424  13.216  17.760 -0.0886  0.2017  0.0585
 2641DPPE   C3A53551  37.527  12.776  17.805  0.1724  0.0472  0.3210
 2641DPPE   C4A53552  37.429  12.385  18.085 -0.4035  0.2785  0.0759
 2641DPPE   C1B53553  37.064  14.282  18.269 -0.1249 -0.0709 -0.2724
 2641DPPE   C2B53554  36.947  14.038  18.599  0.0787  0.3620  0.3212
 2641DPPE   C3B53555  36.806  13.941  18.953 -0.3414 -0.0143  0.0456
 2641DPPE   C4B53556  36.666  14.018  19.448 -0.0641  0.1733  0.3387
 2642DPPE   NH353557   2.282  10.761  12.531 -0.2510  0.0999 -0.0954
 2642DPPE   PO453558   2.407  10.531  12.208 -0.2950 -0.0855  0.1143
 2642DPPE   GL153559   2.800  10.232  12.087  0.0375  0.3428  0.1623
 2642DPPE   GL253560   3.114  10.398  12.257 -0.2619 -0.1743 -0.0468
 2642DPPE   C1A53561   2.781   9.761  11.999 -0.1353  0.0885  0.1320
 2642DPPE   C2A53562   2.992   9.330  12.014  0.0956 -0.3443  0.0777
 2642DPPE   C3A53563   2.860   8.963  12.320  0.0745 -0.6069 -0.0591
 2642DPPE   C4A53564   2.659   8.671  12.584  0.0904 -0.0797 -0.0869
 2642DPPE   C1B53565   3.298  10.262  12.636  0.1956 -0.3194  0.1541
 2642DPPE   C2B53566   3.608  10.471  13.074  0.1713  0.1039  0.0248
 2642DPPE   C3B53567   3.708  10.314  13.405  0.0746 -0.0143 -0.1719
 2642DPPE   C4B53568   4.005  10.435  13.734  0.2137  0.0346  0.1870
 2643DPPE   NH353569  33.137  19.401   8.601 -0.2252  0.0345 -0.2924
 2643DPPE   PO453570  33.287  19.001   8.744 -0.0577  0.1440  0.1357
 2643DPPE   GL153571  32.926  18.892   8.672 -0.0384  0.1762 -0.2545
 2643DPPE   GL253572  32.709  19.157   8.666  0.0721  0.1662  0.0628
 2643DPPE   C1A53573  32.533  18.565   8.599 -0.3057  0.2465 -0.2273
 2643DPPE   C2A53574  32.057  18.724   8.460  0.0171 -0.1469 -0.3865
 2643DPPE   C3A53575  31.616  18.709   8.562 -0.0752 -0.2244 -0.0187
 2643DPPE   C4A53576  31.218  18.960   8.551  0.2167  0.3655  0.2134
 2643DPPE   C1B53577  32.248  19.147   8.609 -0.0439  0.0313 -0.0864
 2643DPPE   C2B53578  31.838  19.111   8.799 -0.0035 -0.1649  0.0553
 2643DPPE   C3B53579  31.541  19.399   8.733  0.1555 -0.0140 -0.2724
 2643DPPE   C4B53580  31.140  19.349   8.910 -0.0313 -0.1754 -0.1412
 2644DPPE   NH353581  35.985  19.047   4.506 -0.1982 -0.1738  0.2307
 2644DPPE   PO453582  35.913  19.142   4.945  0.1127 -0.1516  0.0005
 2644DPPE   GL153583  36.313  19.238   4.854  0.1248 -0.3318 -0.0459
 2644DPPE   GL253584  36.317  19.501   4.863  0.0303  0.1253  0.0477
 2644DPPE   C1A53585  36.719  19.073   4.877  0.4225 -0.1521  0.1323
 2644DPPE   C2A53586  37.081  19.233   5.001 -0.0722  0.1207  0.1676
 2644DPPE   C3A53587  37.459  19.250   4.955  0.4472  0.3077  0.0184
 2644DPPE   C4A53588  37.518  19.024   4.602  0.2729  0.0215 -0.3624
 2644DPPE   C1B53589  36.759  19.544   4.694  0.1142  0.2999  0.3031
 2644DPPE   C2B53590  37.159  19.634   4.702 -0.2526  0.1549 -0.1810
 2644DPPE   C3B53591  37.485  19.853   4.724 -0.2063 -0.1625  0.1006
 2644DPPE   C4B53592  37.795  20.179   4.893  0.4078 -0.0864  0.0678
 2645DPPE   NH353593   0.126  11.636  13.997 -0.0188  0.2493  0.0721
 2645DPPE   PO453594   0.163  11.435  14.279 -0.2506  0.1626  0.1881
 2645DPPE   GL153595   0.188  11.253  14.755 -0.0240 -0.1267  0.1075
 2645DPPE   GL253596   0.382  10.893  14.892  0.1276 -0.2574 -0.4261
 2645DPPE   C1A53597  -0.095  11.157  15.156  0.2654  0.0105 -0.2406
 2645DPPE   C2A53598  -0.299  10.749  15.405 -0.0759  0.1159  0.0320
 2645DPPE   C3A53599  -0.298  10.347  15.280 -0.0318  0.1508 -0.2855
 2645DPPE   C4A53600  -0.549  10.062  15.414 -0.1229 -0.0072  0.0737
 2645DPPE   C1B53601  -0.076  10.667  14.930  0.2114  0.0951 -0.0382
 2645DPPE   C2B53602  -0.421  10.414  14.827  0.0638 -0.0069  0.0741
 2645DPPE   C3B53603  -0.441   9.981  14.654 -0.3940 -0.1232 -0.2155
 2645DPPE   C4B53604  -0.562   9.503  14.520  0.0566  0.3107  0.1015
 2646DPPE   NH353605  33.887  20.087   9.827 -0.2386 -0.1101  0.0514
 2646DPPE   PO453606  33.918  19.949  10.272 -0.0433 -0.1075  0.3084
 2646DPPE   GL153607  34.313  20.024  10.136  0.0061  0.1801 -0.1931
 2646DPPE   GL253608  34.431  20.201   9.790  0.1982  0.2156  0.1299
 2646DPPE   C1A53609  34.730  20.174  10.230  0.1524  0.1216  0.1802
 2646DPPE   C2A53610  35.212  20.207  10.183 -0.0995  0.0463  0.1236
 2646DPPE   C3A53611  35.687  20.174  10.282 -0.1728  0.3163 -0.2395
 2646DPPE   C4A53612  36.036  20.110  10.534 -0.0069 -0.0176  0.2552
 2646DPPE   C1B53613  34.755  19.906   9.510 -0.1497  0.0227  0.1546
 2646DPPE   C2B53614  35.229  20.001   9.506  0.2206 -0.1036  0.1460
 2646DPPE   C3B53615  35.587  19.998   9.809 -0.2009  0.1340 -0.0707
 2646DPPE   C4B53616  36.026  19.873   9.978 -0.0478  0.0564 -0.0018
 2647DPPE   NH353617  36.604  13.222  13.093 -0.0465 -0.2035 -0.0814
 2647DPPE   PO453618  36.416  13.220  13.517  0.0504 -0.1295  0.0746
 2647DPPE   GL153619  36.043  13.159  13.723 -0.0956  0.1382 -0.0843
 2647DPPE   GL253620  35.897  13.359  13.602 -0.0037 -0.0455  0.0424
 2647DPPE   C1A53621  35.815  12.961  13.964 -0.3999  0.2285  0.1945
 2647DPPE   C2A53622  35.377  12.742  13.896 -0.0273  0.0924 -0.1056
 2647DPPE   C3A53623  34.988  12.590  13.901 -0.4022  0.0965 -0.0550
 2647DPPE   C4A53624  34.724  12.423  14.144 -0.2430  0.0638  0.1656
 2647DPPE   C1B53625  35.496  13.158  13.571 -0.1402  0.1325  0.0428
 2647DPPE   C2B53626  35.214  12.825  13.412 -0.1683 -0.1732 -0.2215
 2647DPPE   C3B53627  34.843  12.683  13.412  0.4655 -0.2198 -0.0189
 2647DPPE   C4B53628  34.465  12.609  13.362 -0.3178 -0.1212  0.1602
 2648DPPE   NH353629  33.194  18.023  13.290 -0.2992  0.0472 -0.0389
 2648DPPE   PO453630  33.237  18.196  12.965 -0.0904 -0.1465  0.3800
 2648DPPE   GL153631  32.878  18.228  12.655  0.0324  0.3102  0.0192
 2648DPPE   GL253632  32.828  17.860  12.593  0.1153 -0.1667 -0.4273
 2648DPPE   C1A53633  32.356  18.207  12.735 -0.1401 -0.0165  0.0114
 2648DPPE   C2A53634  31.997  18.234  12.747  0.1910  0.0801 -0.0658
 2648DPPE   C3A53635  31.664  18.490  12.966 -0.1009  0.0783  0.3118
 2648DPPE   C4A53636  31.496  18.812  13.080 -0.3106  0.1657  0.0216
 2648DPPE   C1B53637  32.606  17.889  13.003  0.1235  0.1242  0.0678
 2648DPPE   C2B53638  32.247  17.818  13.136 -0.1635  0.4347 -0.0885
 2648DPPE   C3B53639  31.733  17.697  13.117 -0.2112  0.3633 -0.1480
 2648DPPE   C4B53640  31.441  18.015  13.365 -0.0668  0.0551 -0.2727
 2649DPPE   NH353641   2.685  10.334  10.926  0.1867  0.0163  0.0831
 2649DPPE   PO453642   2.944  10.168  11.177  0.0569  0.0682  0.2616
 2649DPPE   GL153643   2.803   9.809  11.127 -0.0286  0.1635 -0.0885
 2649DPPE   GL253644   2.769   9.816  10.772  0.1926  0.2250  0.1718
 2649DPPE   C1A53645   2.965   9.408  11.031 -0.3678  0.2777  0.2396
 2649DPPE   C2A53646   3.010   9.131  10.723  0.0327  0.2121 -0.1094
 2649DPPE   C3A53647   2.871   9.041  10.427 -0.0454  0.4786 -0.0853
 2649DPPE   C4A53648   2.920   8.589  10.202  0.0432 -0.0815 -0.1187
 2649DPPE   C1B53649   2.563   9.479  10.700 -0.2439 -0.0410  0.0466
 2649DPPE   C2B53650   2.522   9.118  10.899  0.1905  0.0690  0.4717
 2649DPPE   C3B53651   2.805   8.945  11.123 -0.0499  0.0220 -0.0430
 2649DPPE   C4B53652   3.306   9.099  11.288  0.1038 -0.2199 -0.0457
 2650DPPE   NH353653  36.595  17.651  16.165 -0.0773 -0.0782 -0.3284
 2650DPPE   PO453654  36.488  17.866  16.578 -0.0978  0.3972 -0.1306
 2650DPPE   GL153655  36.635  18.134  16.278 -0.0251  0.0773 -0.0495
 2650DPPE   GL253656  36.892  18.194  16.348  0.0153 -0.0411  0.3986
 2650DPPE   C1A53657  36.838  18.202  15.858 -0.0034  0.0556 -0.2298
 2650DPPE   C2A53658  37.210  18.266  15.669 -0.0111 -0.2973 -0.1426
 2650DPPE   C3A53659  37.639  18.325  15.513 -0.1675  0.0842 -0.0916
 2650DPPE   C4A53660  37.740  18.170  15.178 -0.0454 -0.2832 -0.1837
 2650DPPE   C1B53661  37.315  18.303  16.188  0.1930  0.2879 -0.0374
 2650DPPE   C2B53662  37.524  18.697  16.038  0.0364  0.2968  0.3469
 2650DPPE   C3B53663  37.502  18.917  15.747  0.2576  0.1674  0.1772
 2650DPPE   C4B53664  37.113  19.111  15.572 -0.0218 -0.0932 -0.0342
 2651DPPE   NH353665  37.202  16.070  17.158 -0.0953  0.0762 -0.2035
 2651DPPE   PO453666  37.472  16.321  17.399  0.2674  0.0966  0.1423
 2651DPPE   GL153667  37.911  16.546  17.327 -0.1669 -0.1261 -0.1809
 2651DPPE   GL253668  37.799  16.558  16.998  0.0932 -0.0894 -0.1983
 2651DPPE   C1A53669  38.216  16.944  17.407 -0.0030 -0.2806 -0.3865
 2651DPPE   C2A53670  38.594  17.174  17.654  0.2312  0.1199 -0.1651
 2651DPPE   C3A53671  39.030  17.402  17.798  0.2379 -0.0302  0.1990
 2651DPPE   C4A53672  39.422  17.303  17.726 -0.1156  0.2093  0.0265
 2651DPPE   C1B53673  37.995  16.906  16.911  0.2578 -0.1215  0.1765
 2651DPPE   C2B53674  38.303  17.083  16.874  0.0206  0.2882  0.2124
 2651DPPE   C3B53675  38.679  17.012  17.070 -0.0649 -0.1970  0.0641
 2651DPPE   C4B53676  39.044  16.778  16.979 -0.0216  0.0988  0.2607
 2652DPPE   NH353677  33.076  19.445  10.702 -0.2162  0.3625 -0.0376
 2652DPPE   PO453678  33.134  19.155  10.333 -0.0063  0.3044 -0.0523
 2652DPPE   GL153679  32.693  19.116  10.518 -0.2386 -0.0794 -0.0161
 2652DPPE   GL253680  32.594  19.288  10.728 -0.2815 -0.0031 -0.2359
 2652DPPE   C1A53681  32.306  18.921  10.343 -0.2386 -0.4024  0.0387
 2652DPPE   C2A53682  31.933  18.872  10.501  0.1863 -0.0240  0.0045
 2652DPPE   C3A53683  31.673  18.691  10.548  0.0263  0.0338  0.1995
 2652DPPE   C4A53684  31.439  18.331  10.531  0.0385  0.0730  0.0106
 2652DPPE   C1B53685  32.189  19.232  10.688  0.0604 -0.0969 -0.0052
 2652DPPE   C2B53686  31.790  19.298  10.662  0.0841  0.2559 -0.0783
 2652DPPE   C3B53687  31.410  19.167  10.849  0.1409  0.1189  0.0418
 2652DPPE   C4B53688  30.849  19.102  10.836 -0.2703 -0.2811 -0.0128
 2653DPPE   NH353689  34.919  16.909   9.721 -0.0809 -0.3768  0.0286
 2653DPPE   PO453690  35.181  16.713   9.990  0.0880 -0.0549 -0.3247
 2653DPPE   GL153691  35.557  16.891  10.091  0.0030  0.1832 -0.2611
 2653DPPE   GL253692  35.683  16.731   9.886 -0.2086 -0.2682 -0.2047
 2653DPPE   C1A53693  35.917  17.118  10.265 -0.0215 -0.0539 -0.1043
 2653DPPE   C2A53694  36.367  17.307  10.311  0.1222  0.0750 -0.0329
 2653DPPE   C3A53695  36.922  17.388  10.243 -0.2180 -0.0501  0.0020
 2653DPPE   C4A53696  37.301  17.496  10.393  0.0074 -0.3064  0.0147
 2653DPPE   C1B53697  35.993  17.058   9.766 -0.0231 -0.1384 -0.1875
 2653DPPE   C2B53698  36.500  17.175   9.842  0.1422 -0.2266 -0.1077
 2653DPPE   C3B53699  36.902  17.218   9.751  0.2474  0.0471  0.2438
 2653DPPE   C4B53700  37.222  17.619   9.923 -0.0912 -0.2763  0.3924
 2654DPPE   NH353701  38.100  12.892  15.325  0.0680  0.4322 -0.0090
 2654DPPE   PO453702  38.161  12.636  15.038  0.1946  0.1288  0.2835
 2654DPPE   GL153703  38.377  12.423  15.469 -0.0291 -0.1098  0.2787
 2654DPPE   GL253704  38.339  12.638  15.678 -0.0652 -0.2779  0.0748
 2654DPPE   C1A53705  38.511  12.039  15.765 -0.2004 -0.1158  0.1702
 2654DPPE   C2A53706  38.476  11.642  15.828  0.2004 -0.0955 -0.3343
 2654DPPE   C3A53707  38.435  11.162  15.889 -0.2131 -0.0857 -0.1584
 2654DPPE   C4A53708  38.313  10.793  15.808  0.1337  0.0667 -0.1148
 2654DPPE   C1B53709  38.368  12.540  16.165  0.1606  0.0284  0.0948
 2654DPPE   C2B53710  38.183  12.346  16.531 -0.1316  0.0349 -0.2077
 2654DPPE   C3B53711  37.947  11.865  16.543  0.1345  0.0541 -0.1863
 2654DPPE   C4B53712  37.612  11.660  16.773  0.1020 -0.1391 -0.0465
 2655DPPE   NH353713  36.527  14.892  14.776 -0.0656 -0.0680  0.2843
 2655DPPE   PO453714  36.096  14.957  14.961  0.2556  0.0843  0.0420
 2655DPPE   GL153715  35.769  14.492  15.046 -0.1829  0.1069  0.0969
 2655DPPE   GL253716  35.519  14.655  14.919 -0.1094 -0.1151  0.0682
 2655DPPE   C1A53717  35.381  14.251  15.300 -0.1100 -0.0328 -0.0487
 2655DPPE   C2A53718  35.110  13.990  15.587 -0.2798 -0.1899  0.2003
 2655DPPE   C3A53719  34.708  13.801  15.441  0.0876 -0.1034 -0.0412
 2655DPPE   C4A53720  34.558  13.384  15.424 -0.1560 -0.1249 -0.1615
 2655DPPE   C1B53721  35.056  14.415  14.870 -0.0939  0.3873  0.2074
 2655DPPE   C2B53722  34.803  14.058  14.823  0.2392  0.0035  0.1542
 2655DPPE   C3B53723  34.489  13.770  14.985 -0.0868  0.2509 -0.1165
 2655DPPE   C4B53724  34.195  13.513  14.881  0.0320 -0.0202 -0.1131
 2656DPPE   NH353725  35.814  15.777   9.374  0.3027 -0.0322  0.0569
 2656DPPE   PO453726  35.553  15.904   8.965 -0.0395 -0.1148  0.1862
 2656DPPE   GL153727  35.879  16.111   8.856  0.1285  0.1799 -0.0383
 2656DPPE   GL253728  35.973  16.438   8.670  0.1386  0.0850 -0.0212
 2656DPPE   C1A53729  36.245  16.257   9.104 -0.2508  0.0596  0.1187
 2656DPPE   C2A53730  36.624  16.443   9.235 -0.2570 -0.0842  0.1749
 2656DPPE   C3A53731  37.071  16.540   9.167 -0.0498 -0.0339 -0.1995
 2656DPPE   C4A53732  37.442  16.688   9.112  0.0485  0.3366 -0.5039
 2656DPPE   C1B53733  36.446  16.391   8.622  0.2420  0.1620 -0.0772
 2656DPPE   C2B53734  36.871  16.323   8.627  0.1657  0.0013  0.1140
 2656DPPE   C3B53735  37.251  16.471   8.471  0.1636  0.0472 -0.0319
 2656DPPE   C4B53736  37.584  16.679   8.647 -0.3757 -0.1767 -0.1632
 2657DPPE   NH353737   1.289  10.736  13.721  0.0375  0.0994 -0.0104
 2657DPPE   PO453738   1.421  10.905  14.083 -0.0260 -0.0033 -0.0687
 2657DPPE   GL153739   1.171  10.619  14.264 -0.1015 -0.3832  0.0421
 2657DPPE   GL253740   1.169  10.386  14.124  0.0896 -0.0120 -0.1553
 2657DPPE   C1A53741   1.087  10.187  14.606  0.0710  0.1720  0.1230
 2657DPPE   C2A53742   1.179   9.788  14.608  0.0593  0.0554  0.0508
 2657DPPE   C3A53743   1.464   9.614  14.300  0.4182 -0.4826 -0.3057
 2657DPPE   C4A53744   1.498   9.513  13.830 -0.0133  0.1616  0.2061
 2657DPPE   C1B53745   1.533  10.095  14.302 -0.0512 -0.1487  0.1018
 2657DPPE   C2B53746   1.885  10.086  14.539 -0.1620  0.1570 -0.0852
 2657DPPE   C3B53747   2.292  10.002  14.622  0.1567 -0.1280 -0.2925
 2657DPPE   C4B53748   2.472  10.287  14.877  0.1132  0.1083  0.0219
 2658DPPE   NH353749  35.741  17.280   4.993 -0.0150 -0.4365  0.1168
 2658DPPE   PO453750  35.903  16.853   4.653  0.5307  0.0774  0.1701
 2658DPPE   GL153751  35.508  16.482   4.467  0.0306 -0.4144  0.2048
 2658DPPE   GL253752  35.586  16.440   4.133 -0.0291 -0.4044 -0.2539
 2658DPPE   C1A53753  35.312  16.053   4.505 -0.3548 -0.1461  0.0198
 2658DPPE   C2A53754  34.958  15.874   4.210  0.1965  0.0900  0.2813
 2658DPPE   C3A53755  34.709  15.517   4.291 -0.3597  0.0299 -0.0315
 2658DPPE   C4A53756  34.564  15.097   4.288  0.0543  0.3485  0.0475
 2658DPPE   C1B53757  35.208  16.265   4.034  0.2214 -0.1874 -0.1996
 2658DPPE   C2B53758  34.888  16.220   3.886 -0.0292  0.0975 -0.0528
 2658DPPE   C3B53759  34.401  16.359   3.965 -0.1239  0.1533  0.1962
 2658DPPE   C4B53760  33.988  16.395   3.870 -0.0826  0.5392  0.1075
 2659DPPE   NH353761  33.931  21.992   6.378  0.3917  0.0877 -0.1421
 2659DPPE   PO453762  34.119  21.666   6.201 -0.0181 -0.1595  0.2674
 2659DPPE   GL153763  33.791  21.860   5.892 -0.1755  0.1564 -0.2221
 2659DPPE   GL253764  33.758  21.777   5.644 -0.0380 -0.0655  0.0153
 2659DPPE   C1A53765  33.375  22.117   5.616 -0.2727  0.0986  0.0732
 2659DPPE   C2A53766  33.089  22.086   5.231  0.0827  0.0423  0.2212
 2659DPPE   C3A53767  33.164  22.369   4.895  0.2346 -0.0379  0.2007
 2659DPPE   C4A53768  33.217  22.791   4.710 -0.1186 -0.1378  0.0436
 2659DPPE   C1B53769  33.639  21.896   5.225 -0.2937  0.3550  0.0901
 2659DPPE   C2B53770  33.639  22.260   4.980  0.1506 -0.0203  0.2893
 2659DPPE   C3B53771  33.644  22.458   4.699  0.2635  0.1509 -0.2366
 2659DPPE   C4B53772  33.662  22.805   4.479  0.1280 -0.0371 -0.4583
 2660DPPE   NH353773   2.162  11.151   6.111 -0.0086 -0.0807 -0.0602
 2660DPPE   PO453774   2.429  11.134   6.451 -0.1818  0.1082  0.2370
 2660DPPE   GL153775   2.872  11.075   6.347  0.2763 -0.0347  0.0140
 2660DPPE   GL253776   3.039  11.242   6.028  0.0704  0.0356 -0.1069
 2660DPPE   C1A53777   3.024  10.791   6.384 -0.0464  0.1760  0.1674
 2660DPPE   C2A53778   2.980  10.322   6.357 -0.1402 -0.1513  0.1273
 2660DPPE   C3A53779   2.933  10.039   6.609 -0.0067 -0.0122 -0.4326
 2660DPPE   C4A53780   3.050   9.737   6.782  0.0565 -0.1554  0.0989
 2660DPPE   C1B53781   3.328  11.287   5.781 -0.3332 -0.1691 -0.0138
 2660DPPE   C2B53782   3.715  11.192   5.830 -0.0780 -0.0981 -0.2122
 2660DPPE   C3B53783   4.105  11.084   6.072  0.1249  0.0560  0.0974
 2660DPPE   C4B53784   4.410  11.070   6.305  0.0949 -0.0962 -0.1903
 2661DPPE   NH353785  33.162  20.103   9.314 -0.0422 -0.0779 -0.3632
 2661DPPE   PO453786  33.109  20.211   8.893 -0.4595 -0.1072 -0.2103
 2661DPPE   GL153787  32.635  20.068   8.854 -0.0411 -0.4390 -0.2249
 2661DPPE   GL253788  32.601  19.972   9.187 -0.1653  0.0500 -0.2041
 2661DPPE   C1A53789  32.218  20.096   8.774  0.1400 -0.0821  0.2235
 2661DPPE   C2A53790  31.824  19.974   8.671 -0.0633  0.1676  0.0441
 2661DPPE   C3A53791  31.530  19.986   8.367 -0.3688 -0.1163 -0.1510
 2661DPPE   C4A53792  31.127  20.038   8.401  0.1592 -0.2389 -0.0684
 2661DPPE   C1B53793  32.234  19.869   9.367  0.2058  0.2571  0.2286
 2661DPPE   C2B53794  31.756  19.869   9.513 -0.2626  0.0526 -0.0806
 2661DPPE   C3B53795  31.320  19.924   9.552  0.1768 -0.2293 -0.1661
 2661DPPE   C4B53796  31.049  19.634   9.385  0.1688 -0.1105  0.2510
 2662DPPE   NH353797  33.640  18.370   8.027 -0.1997 -0.2414  0.0372
 2662DPPE   PO453798  33.736  18.233   8.399  0.1007  0.0230  0.2259
 2662DPPE   GL153799  33.295  18.070   8.393  0.0851 -0.0480 -0.1644
 2662DPPE   GL253800  33.044  18.184   8.304  0.0848 -0.0070 -0.3508
 2662DPPE   C1A53801  33.078  17.737   8.373 -0.0214  0.0728  0.0715
 2662DPPE   C2A53802  32.668  17.592   8.327 -0.2397  0.0921  0.0237
 2662DPPE   C3A53803  32.297  17.358   8.128 -0.1256  0.2108  0.1161
 2662DPPE   C4A53804  32.221  17.147   7.784 -0.2713 -0.4381  0.1234
 2662DPPE   C1B53805  32.591  18.145   8.288  0.0088 -0.0828  0.2200
 2662DPPE   C2B53806  32.199  18.255   8.240 -0.1331 -0.0203 -0.0157
 2662DPPE   C3B53807  31.769  18.183   8.148 -0.0856  0.1666 -0.0325
 2662DPPE   C4B53808  31.595  17.903   7.940 -0.2001  0.2055  0.1750
 2663DPPE   NH353809  34.441  17.858  15.818 -0.1041 -0.1990 -0.0059
 2663DPPE   PO453810  34.445  17.498  15.518 -0.1799  0.2458  0.2528
 2663DPPE   GL153811  34.015  17.621  15.759 -0.0192 -0.1420  0.0257
 2663DPPE   GL253812  33.939  17.710  16.148 -0.1490  0.0088  0.0592
 2663DPPE   C1A53813  33.681  17.326  16.023 -0.0471 -0.0821  0.0032
 2663DPPE   C2A53814  33.491  17.047  16.254  0.2170  0.1035  0.0193
 2663DPPE   C3A53815  33.031  16.970  16.257 -0.3265  0.1573  0.2120
 2663DPPE   C4A53816  32.993  16.608  16.102  0.0593  0.0655  0.3120
 2663DPPE   C1B53817  33.586  17.746  16.285 -0.2133 -0.1875  0.0212
 2663DPPE   C2B53818  33.184  17.490  16.267 -0.0935 -0.3049  0.1026
 2663DPPE   C3B53819  32.690  17.329  16.343  0.0155 -0.2056 -0.1167
 2663DPPE   C4B53820  32.455  17.107  16.683 -0.2636 -0.0437 -0.1890
 2664DPPE   NH353821   0.749  14.105   5.097 -0.4035  0.2601 -0.0991
 2664DPPE   PO453822   1.100  13.836   5.186 -0.0525  0.1158 -0.0327
 2664DPPE   GL153823   1.484  14.194   5.146 -0.0031 -0.0279 -0.2622
 2664DPPE   GL253824   1.632  14.442   4.849 -0.0557  0.0732  0.1993
 2664DPPE   C1A53825   1.720  14.367   5.575  0.0282  0.0449  0.0327
 2664DPPE   C2A53826   1.996  14.759   5.678  0.2706  0.0872  0.2968
 2664DPPE   C3A53827   2.425  14.934   5.751  0.1337 -0.0650  0.1715
 2664DPPE   C4A53828   2.752  15.180   5.900  0.0371 -0.2023  0.0182
 2664DPPE   C1B53829   1.839  14.542   5.161 -0.1524  0.0278  0.1286
 2664DPPE   C2B53830   2.184  14.379   5.346  0.1298 -0.0118  0.3348
 2664DPPE   C3B53831   2.617  14.482   5.395  0.2458 -0.0485  0.0490
 2664DPPE   C4B53832   2.808  14.832   5.426 -0.3615  0.3856 -0.2116
 2665DPPE   NH353833   2.379  12.098   5.966  0.2020  0.0834 -0.0332
 2665DPPE   PO453834   2.081  12.206   6.345  0.0733  0.1332 -0.2064
 2665DPPE   GL153835   2.384  12.557   6.383  0.2369 -0.2643 -0.0930
 2665DPPE   GL253836   2.538  12.601   6.122  0.2721 -0.2459  0.1351
 2665DPPE   C1A53837   2.735  12.773   6.576 -0.0577  0.1315  0.0817
 2665DPPE   C2A53838   3.151  12.711   6.792 -0.0267  0.1238  0.2475
 2665DPPE   C3A53839   3.437  12.992   6.805  0.3546  0.0987 -0.1585
 2665DPPE   C4A53840   3.678  13.224   7.030 -0.1111  0.1812 -0.0436
 2665DPPE   C1B53841   2.775  12.931   5.929 -0.1512  0.2519  0.4168
 2665DPPE   C2B53842   3.035  13.248   5.752  0.3711 -0.0896  0.0178
 2665DPPE   C3B53843   3.126  13.637   5.590 -0.1192 -0.1432 -0.0707
 2665DPPE   C4B53844   3.109  13.921   5.362 -0.0620 -0.1084  0.0528
 2666DPPE   NH353845  37.589  14.546  17.933  0.2618 -0.1916 -0.1496
 2666DPPE   PO453846  38.047  14.388  17.959 -0.0963 -0.0382 -0.3684
 2666DPPE   GL153847  37.932  13.938  18.157 -0.0774 -0.0123  0.0495
 2666DPPE   GL253848  38.013  13.607  17.980  0.0199  0.0219 -0.0814
 2666DPPE   C1A53849  37.936  13.595  18.488  0.3228  0.0584  0.2575
 2666DPPE   C2A53850  38.129  13.262  18.335 -0.1854 -0.0115 -0.0667
 2666DPPE   C3A53851  38.208  12.742  18.142 -0.2019  0.2563  0.0998
 2666DPPE   C4A53852  37.914  12.399  17.939 -0.0393  0.2291 -0.0768
 2666DPPE   C1B53853  37.620  13.582  18.070  0.0152 -0.0864 -0.1938
 2666DPPE   C2B53854  37.438  13.497  18.538  0.1080 -0.0057 -0.0985
 2666DPPE   C3B53855  37.022  13.560  18.702  0.0108  0.1961 -0.1515
 2666DPPE   C4B53856  37.123  13.558  19.207 -0.1499 -0.2655 -0.1948
 2667DPPE   NH353857  35.351  20.065   4.089  0.0371 -0.0851 -0.2747
 2667DPPE   PO453858  35.609  20.161   3.754 -0.1696 -0.0316 -0.0320
 2667DPPE   GL153859  35.545  20.355   3.381  0.3705 -0.2423 -0.0256
 2667DPPE   GL253860  35.254  20.597   3.321 -0.0605  0.2269  0.2432
 2667DPPE   C1A53861  35.612  20.400   2.966  0.0642  0.0374  0.2191
 2667DPPE   C2A53862  35.930  20.395   2.584  0.0991 -0.1309  0.0600
 2667DPPE   C3A53863  35.979  20.810   2.387  0.1078  0.0148  0.1840
 2667DPPE   C4A53864  36.021  21.059   2.085  0.0237 -0.0566 -0.0680
 2667DPPE   C1B53865  34.851  20.850   3.292 -0.1415 -0.2179 -0.0069
 2667DPPE   C2B53866  34.481  20.660   3.179  0.1452  0.1777 -0.3028
 2667DPPE   C3B53867  34.106  20.351   3.159  0.0487  0.2474 -0.0363
 2667DPPE   C4B53868  33.831  20.055   3.081 -0.2251  0.1644 -0.1576
 2668DPPE   NH353869   1.273  10.411  11.615 -0.2023 -0.0903 -0.1432
 2668DPPE   PO453870   1.514  10.570  11.797 -0.0047  0.0124  0.0915
 2668DPPE   GL153871   1.523  10.117  11.962 -0.2882 -0.1281 -0.1347
 2668DPPE   GL253872   1.540  10.084  12.440 -0.4151  0.3585  0.0752
 2668DPPE   C1A53873   1.420   9.667  11.991 -0.0307  0.0084 -0.1114
 2668DPPE   C2A53874   1.393   9.137  12.058  0.1819  0.2408 -0.1792
 2668DPPE   C3A53875   1.217   8.748  12.174 -0.1929  0.2438 -0.1004
 2668DPPE   C4A53876   1.304   8.273  12.348 -0.0112 -0.2745  0.0882
 2668DPPE   C1B53877   1.798   9.699  12.558 -0.1178  0.1931 -0.0295
 2668DPPE   C2B53878   1.793   9.370  12.408  0.1001  0.1734 -0.1494
 2668DPPE   C3B53879   1.869   8.946  12.246  0.1245  0.0624  0.3488
 2668DPPE   C4B53880   1.853   8.802  11.846 -0.2501  0.0620  0.1695
 2669DPPE   NH353881  37.604  15.254   3.435  0.6235  0.1044 -0.0182
 2669DPPE   PO453882  37.683  14.870   3.671  0.0924  0.0079 -0.0516
 2669DPPE   GL153883  37.250  14.895   3.309  0.2068 -0.2055  0.0185
 2669DPPE   GL253884  37.080  14.679   3.563 -0.1549  0.1750  0.1559
 2669DPPE   C1A53885  37.091  15.115   2.991 -0.0796 -0.1854 -0.2152
 2669DPPE   C2A53886  36.754  15.131   2.871  0.5695 -0.0377 -0.1807
 2669DPPE   C3A53887  36.333  15.076   2.628  0.1414  0.0140 -0.1831
 2669DPPE   C4A53888  36.184  14.854   2.222 -0.3785 -0.1617 -0.0392
 2669DPPE   C1B53889  36.797  14.618   3.203 -0.1077  0.2607 -0.2514
 2669DPPE   C2B53890  36.405  14.660   2.898 -0.2472 -0.0980 -0.0789
 2669DPPE   C3B53891  36.061  14.626   2.672  0.1708 -0.0080  0.1327
 2669DPPE   C4B53892  35.828  14.250   2.599 -0.3890  0.2336  0.0003
 2670DPPE   NH353893  33.367  21.695   8.486  0.0485  0.1048 -0.1210
 2670DPPE   PO453894  33.378  21.944   8.113 -0.2223  0.1497 -0.0799
 2670DPPE   GL153895  32.955  21.954   8.022  0.0662 -0.0527 -0.0411
 2670DPPE   GL253896  32.868  22.053   8.330  0.1579 -0.0508  0.2072
 2670DPPE   C1A53897  32.436  21.974   7.952 -0.0849 -0.0933  0.1909
 2670DPPE   C2A53898  31.979  21.901   7.850 -0.1446  0.1851  0.0186
 2670DPPE   C3A53899  31.618  21.878   8.134 -0.0186  0.1234  0.3083
 2670DPPE   C4A53900  31.237  21.752   8.005  0.0718 -0.2165  0.0423
 2670DPPE   C1B53901  32.518  22.394   8.322 -0.0570 -0.1950 -0.0794
 2670DPPE   C2B53902  32.359  22.877   8.413 -0.1063 -0.0825 -0.5349
 2670DPPE   C3B53903  32.025  22.978   8.276 -0.1082 -0.1083  0.1831
 2670DPPE   C4B53904  31.601  23.033   8.124  0.0351  0.0201  0.0025
 2671DPPE   NH353905   1.353  13.986   4.701  0.0245 -0.1153  0.4768
 2671DPPE   PO453906   1.202  14.058   4.274  0.1007 -0.4290  0.1029
 2671DPPE   GL153907   1.704  14.172   4.333  0.1996  0.0142 -0.0615
 2671DPPE   GL253908   1.760  14.534   4.209  0.2697 -0.2331 -0.0590
 2671DPPE   C1A53909   2.033  14.235   4.557  0.4130 -0.0443  0.1667
 2671DPPE   C2A53910   2.405  14.329   4.408  0.0055 -0.2333 -0.0306
 2671DPPE   C3A53911   2.783  14.539   4.435 -0.2010 -0.2251  0.0644
 2671DPPE   C4A53912   3.140  14.605   4.451 -0.0378 -0.4623 -0.1034
 2671DPPE   C1B53913   2.113  14.459   4.010 -0.0444  0.1547 -0.1982
 2671DPPE   C2B53914   2.546  14.452   3.949 -0.1616  0.2601 -0.1697
 2671DPPE   C3B53915   2.918  14.689   3.848 -0.0677  0.0349 -0.2327
 2671DPPE   C4B53916   3.234  14.987   3.781 -0.4223 -0.0585  0.1376
 2672DPPE   NH353917   1.800  13.207   5.195  0.1077  0.2132 -0.1633
 2672DPPE   PO453918   1.882  12.975   4.757  0.1587 -0.0448 -0.1074
 2672DPPE   GL153919   2.287  13.135   4.832 -0.0232  0.0491 -0.1968
 2672DPPE   GL253920   2.348  13.294   4.618 -0.1019 -0.1183  0.1254
 2672DPPE   C1A53921   2.734  13.006   4.844 -0.1830  0.1913 -0.3210
 2672DPPE   C2A53922   3.183  12.838   4.744 -0.1829  0.0330 -0.0595
 2672DPPE   C3A53923   3.604  12.846   4.686  0.0894 -0.2014 -0.0320
 2672DPPE   C4A53924   4.011  12.853   4.675 -0.2876  0.3053 -0.1169
 2672DPPE   C1B53925   2.762  13.572   4.550 -0.2236 -0.1091 -0.0101
 2672DPPE   C2B53926   2.985  13.603   4.182 -0.0588  0.3559 -0.2350
 2672DPPE   C3B53927   3.422  13.729   4.000  0.2830  0.1275 -0.0424
 2672DPPE   C4B53928   3.764  13.652   3.648 -0.1953  0.1038 -0.1797
 2673DPPE   NH353929   1.002  12.897   3.294  0.1465 -0.2502  0.1701
 2673DPPE   PO453930   1.090  13.359   3.176  0.0573 -0.1385  0.0055
 2673DPPE   GL153931   1.059  13.169   2.860  0.2106 -0.2659 -0.1651
 2673DPPE   GL253932   0.766  13.296   2.701  0.1432 -0.2142  0.1969
 2673DPPE   C1A53933   1.265  13.095   2.459 -0.0744  0.2295 -0.0279
 2673DPPE   C2A53934   1.419  12.703   2.336  0.2896  0.0809  0.4015
 2673DPPE   C3A53935   1.644  12.393   2.240  0.0549  0.1026  0.0953
 2673DPPE   C4A53936   1.257  12.175   2.018  0.0710 -0.1813 -0.1077
 2673DPPE   C1B53937   0.756  12.864   2.512 -0.1375  0.0506 -0.2717
 2673DPPE   C2B53938   0.911  12.602   2.168  0.0257 -0.3840  0.3412
 2673DPPE   C3B53939   0.778  12.089   2.101  0.0797  0.0750  0.0514
 2673DPPE   C4B53940   1.000  11.780   1.837 -0.1860  0.0159  0.1844
 2674DPPE   NH353941   1.524  10.570  12.294  0.0283  0.3400 -0.0127
 2674DPPE   PO453942   1.887  10.471  12.538  0.2792  0.0060 -0.2424
 2674DPPE   GL153943   2.069  10.088  12.406 -0.3120 -0.1812  0.3492
 2674DPPE   GL253944   2.331  10.051  12.218 -0.4122  0.5381  0.0870
 2674DPPE   C1A53945   1.964   9.712  12.102 -0.1616  0.1462  0.0473
 2674DPPE   C2A53946   1.859   9.365  11.915  0.0666 -0.3195 -0.0361
 2674DPPE   C3A53947   1.665   9.152  11.550 -0.0382 -0.0682  0.0286
 2674DPPE   C4A53948   1.583   9.207  11.093  0.1613 -0.1302  0.3512
 2674DPPE   C1B53949   2.417   9.642  12.353  0.0768 -0.2467  0.0962
 2674DPPE   C2B53950   2.345   9.428  12.682  0.0546 -0.1722  0.2808
 2674DPPE   C3B53951   2.016   9.334  12.915 -0.2153 -0.0512 -0.0466
 2674DPPE   C4B53952   1.874   9.011  12.724 -0.2474  0.0048  0.3550
 2675DPPE   NH353953  33.347  19.513  12.332 -0.0908  0.3933  0.0535
 2675DPPE   PO453954  33.220  19.396  11.991  0.0395 -0.3485  0.1470
 2675DPPE   GL153955  32.830  19.204  11.892  0.1484  0.2164 -0.1464
 2675DPPE   GL253956  32.639  18.985  12.077  0.1777 -0.2810 -0.0594
 2675DPPE   C1A53957  32.369  19.387  11.844  0.1814 -0.0824  0.1290
 2675DPPE   C2A53958  31.949  19.312  11.846 -0.2438 -0.1710  0.2663
 2675DPPE   C3A53959  31.540  19.166  11.766 -0.0571 -0.0527  0.2541
 2675DPPE   C4A53960  31.120  19.111  11.804  0.3764  0.0332 -0.0169
 2675DPPE   C1B53961  32.148  18.866  12.138 -0.0399 -0.1614 -0.0581
 2675DPPE   C2B53962  31.701  18.781  12.086 -0.5103  0.1458 -0.1102
 2675DPPE   C3B53963  31.232  18.697  12.206 -0.1173 -0.1106 -0.3459
 2675DPPE   C4B53964  30.857  18.597  12.523 -0.0250 -0.0365  0.1199
 2676DPPE   NH353965  35.777  14.250  12.938 -0.1359 -0.2933 -0.0252
 2676DPPE   PO453966  35.850  14.367  13.433  0.0008 -0.2382  0.0222
 2676DPPE   GL153967  35.576  14.223  13.718 -0.0675  0.1568  0.0649
 2676DPPE   GL253968  35.761  13.952  13.775 -0.0473 -0.0002  0.1774
 2676DPPE   C1A53969  35.230  14.112  13.921 -0.1520  0.0020  0.0041
 2676DPPE   C2A53970  34.911  13.881  13.936  0.0069 -0.0038 -0.0879
 2676DPPE   C3A53971  34.749  13.603  14.096 -0.1489 -0.0772  0.2796
 2676DPPE   C4A53972  34.570  13.184  14.229 -0.0799  0.0352  0.3646
 2676DPPE   C1B53973  35.450  13.728  13.724 -0.1446 -0.4227  0.1182
 2676DPPE   C2B53974  35.108  13.441  13.710  0.1844  0.3042  0.1516
 2676DPPE   C3B53975  34.918  13.108  13.782 -0.0360 -0.3559  0.3803
 2676DPPE   C4B53976  34.563  12.798  13.820  0.0355 -0.0637  0.1404
 2677DPPE   NH353977  33.908  16.749  12.667 -0.0765  0.5554 -0.0191
 2677DPPE   PO453978  33.866  16.857  13.109  0.1659  0.0548 -0.1247
 2677DPPE   GL153979  33.674  16.596  13.402 -0.1149 -0.1007  0.0546
 2677DPPE   GL253980  33.504  16.752  13.665  0.2581  0.0274 -0.0549
 2677DPPE   C1A53981  33.226  16.456  13.366  0.0211 -0.1585 -0.0326
 2677DPPE   C2A53982  32.657  16.358  13.336  0.2713  0.1535  0.1681
 2677DPPE   C3A53983  32.249  16.276  13.103 -0.3544 -0.0558 -0.1268
 2677DPPE   C4A53984  32.115  16.108  12.686  0.1737 -0.1978 -0.1011
 2677DPPE   C1B53985  33.143  16.767  13.727 -0.1468 -0.1677 -0.1646
 2677DPPE   C2B53986  32.837  16.639  13.843  0.1143  0.0691 -0.1928
 2677DPPE   C3B53987  32.657  16.449  14.191  0.0296  0.0421  0.0677
 2677DPPE   C4B53988  32.332  16.542  14.498  0.0012  0.0685 -0.0953
 2678DPPE   NH353989   0.344  14.017  15.032 -0.3339 -0.1515 -0.1651
 2678DPPE   PO453990   0.554  14.372  15.270  0.1033 -0.0209 -0.2004
 2678DPPE   GL153991   0.801  14.594  15.400 -0.1417  0.0623  0.1159
 2678DPPE   GL253992   1.054  14.485  15.246 -0.1270  0.1853 -0.2040
 2678DPPE   C1A53993   0.931  15.005  15.312 -0.0658  0.3961  0.0448
 2678DPPE   C2A53994   0.971  15.490  15.286 -0.0605  0.0204  0.0285
 2678DPPE   C3A53995   1.271  15.720  15.162 -0.2846  0.1366  0.1703
 2678DPPE   C4A53996   1.479  15.876  14.869  0.0221 -0.1086 -0.3228
 2678DPPE   C1B53997   1.396  14.775  15.231 -0.1055 -0.0536 -0.2102
 2678DPPE   C2B53998   1.755  14.917  14.978  0.0081 -0.2345  0.1228
 2678DPPE   C3B53999   2.160  15.142  15.048 -0.2056  0.1770 -0.1092
 2678DPPE   C4B54000   2.638  15.177  14.968 -0.1500 -0.1176  0.1943
 2679DPPE   NH354001  36.367  19.021  16.410  0.2145 -0.2007 -0.1436
 2679DPPE   PO454002  36.195  19.364  16.674  0.1002  0.0339  0.0360
 2679DPPE   GL154003  36.574  19.573  16.570 -0.3042 -0.0973  0.3084
 2679DPPE   GL254004  36.432  19.866  16.627 -0.0445 -0.0866 -0.1496
 2679DPPE   C1A54005  37.053  19.500  16.390  0.2437 -0.3601 -0.2478
 2679DPPE   C2A54006  37.440  19.714  16.376  0.1015  0.0410 -0.1221
 2679DPPE   C3A54007  37.762  20.120  16.349 -0.5468 -0.1883  0.1269
 2679DPPE   C4A54008  38.148  20.434  16.439 -0.0457 -0.2851 -0.0783
 2679DPPE   C1B54009  36.646  20.104  16.912 -0.0835 -0.1081  0.1054
 2679DPPE   C2B54010  37.022  20.257  17.047  0.1354  0.0180  0.0082
 2679DPPE   C3B54011  37.517  20.331  17.152 -0.0683  0.2291  0.1020
 2679DPPE   C4B54012  37.880  20.637  17.108 -0.3525  0.1160  0.0681
 2680DPPE   NH354013  33.579  23.249   8.163  0.0340 -0.2955  0.0636
 2680DPPE   PO454014  33.399  23.203   8.566  0.0509  0.4706  0.0887
 2680DPPE   GL154015  33.124  23.488   8.339 -0.1728  0.1339  0.2547
 2680DPPE   GL254016  32.994  23.658   8.588 -0.2337 -0.4506  0.2280
 2680DPPE   C1A54017  32.812  23.808   8.202  0.2673 -0.0358  0.0103
 2680DPPE   C2A54018  32.281  23.885   8.323 -0.1438 -0.1826 -0.3387
 2680DPPE   C3A54019  31.773  23.917   8.449 -0.0246  0.0489 -0.5094
 2680DPPE   C4A54020  31.416  23.872   8.692  0.0327  0.2914 -0.0195
 2680DPPE   C1B54021  32.671  23.818   8.806  0.0753  0.0481 -0.3414
 2680DPPE   C2B54022  32.595  24.177   9.089  0.2625 -0.0906 -0.1641
 2680DPPE   C3B54023  32.339  24.692   9.131  0.0110 -0.1624  0.3231
 2680DPPE   C4B54024  32.121  24.962   9.049 -0.1105  0.0132  0.0309
 2681DPPE   NH354025  33.273  18.733  10.940 -0.1142  0.2516 -0.1536
 2681DPPE   PO454026  33.362  18.702  10.521 -0.0243 -0.1807  0.2815
 2681DPPE   GL154027  32.930  18.641  10.367 -0.3102  0.1300  0.6823
 2681DPPE   GL254028  32.819  18.696  10.679 -0.1082 -0.1684 -0.0762
 2681DPPE   C1A54029  32.554  18.518  10.097  0.0155 -0.0640 -0.2174
 2681DPPE   C2A54030  32.244  18.317   9.860  0.1458 -0.2348  0.0279
 2681DPPE   C3A54031  32.098  17.871   9.892 -0.0649 -0.2840 -0.2522
 2681DPPE   C4A54032  31.709  17.839  10.063  0.3157 -0.0465  0.1688
 2681DPPE   C1B54033  32.454  18.470  10.657  0.0780 -0.0049  0.0401
 2681DPPE   C2B54034  32.072  18.450  10.343 -0.1481  0.2632 -0.3155
 2681DPPE   C3B54035  31.745  18.352  10.119 -0.0222  0.0497  0.0021
 2681DPPE   C4B54036  31.436  18.525   9.956 -0.1027  0.0776 -0.1134
 2682DPPE   NH354037  34.815  20.169  16.880 -0.0958  0.0656  0.1420
 2682DPPE   PO454038  35.203  19.875  16.815 -0.0486  0.1534  0.0045
 2682DPPE   GL154039  35.206  20.082  17.228  0.1526 -0.0585  0.2301
 2682DPPE   GL254040  35.425  20.052  17.416  0.0984  0.0193 -0.1190
 2682DPPE   C1A54041  35.166  20.447  17.524  0.2562 -0.0095 -0.2086
 2682DPPE   C2A54042  35.061  20.755  17.796 -0.2772 -0.1487  0.2464
 2682DPPE   C3A54043  34.837  20.878  18.231  0.1359  0.1589 -0.1879
 2682DPPE   C4A54044  34.578  20.525  18.394  0.2861 -0.0760 -0.2204
 2682DPPE   C1B54045  35.817  20.246  17.691  0.3859  0.1426  0.0217
 2682DPPE   C2B54046  35.913  20.407  18.091 -0.0792 -0.3328  0.1946
 2682DPPE   C3B54047  36.037  20.249  18.506 -0.0470  0.1562 -0.5343
 2682DPPE   C4B54048  36.272  19.961  18.856  0.2198  0.1881 -0.0840
 2683DPPE   NH354049   2.446  11.970  14.769 -0.3344 -0.0994  0.2622
 2683DPPE   PO454050   2.297  12.376  15.034  0.2166  0.1915 -0.1125
 2683DPPE   GL154051   2.676  12.390  15.168 -0.1624 -0.0892  0.1131
 2683DPPE   GL254052   2.713  12.091  15.242 -0.0954  0.3282 -0.0721
 2683DPPE   C1A54053   3.052  12.349  14.980 -0.1924  0.1766 -0.0321
 2683DPPE   C2A54054   3.435  12.304  15.119  0.0767  0.0699  0.1375
 2683DPPE   C3A54055   3.715  12.239  15.498 -0.0563 -0.0583  0.2792
 2683DPPE   C4A54056   4.167  12.254  15.676  0.3686 -0.0842 -0.0259
 2683DPPE   C1B54057   3.014  12.200  15.535 -0.2929 -0.1514 -0.1787
 2683DPPE   C2B54058   3.303  12.424  15.853  0.1081 -0.1308  0.3648
 2683DPPE   C3B54059   3.583  12.695  15.706 -0.2358  0.5395  0.0253
 2683DPPE   C4B54060   3.965  12.713  15.572 -0.3855  0.0068 -0.0808
 2684DPPE   NH354061   1.304  13.870  15.828  0.4550  0.0269  0.0554
 2684DPPE   PO454062   1.604  13.641  15.955  0.2849  0.0101  0.0691
 2684DPPE   GL154063   1.775  14.022  15.968  0.1299  0.1059 -0.1972
 2684DPPE   GL254064   1.751  14.362  16.261 -0.1543  0.0257  0.0779
 2684DPPE   C1A54065   2.246  14.291  16.149  0.0389 -0.1202 -0.0341
 2684DPPE   C2A54066   2.451  14.517  16.405 -0.2389  0.0578  0.2901
 2684DPPE   C3A54067   2.820  14.600  16.509 -0.0107  0.0631  0.1343
 2684DPPE   C4A54068   3.228  14.778  16.479 -0.3097 -0.0621  0.1027
 2684DPPE   C1B54069   1.992  14.732  16.449  0.0197  0.2801  0.0243
 2684DPPE   C2B54070   2.260  15.064  16.521 -0.1188 -0.1532 -0.2416
 2684DPPE   C3B54071   2.280  15.505  16.497 -0.1447  0.0235  0.0665
 2684DPPE   C4B54072   2.225  15.975  16.477  0.0614  0.1334  0.0410
 2685DPPE   NH354073  34.080  16.831   9.286 -0.0291  0.1407 -0.1127
 2685DPPE   PO454074  34.098  16.721   9.733 -0.1779  0.1857  0.1661
 2685DPPE   GL154075  33.774  16.553   9.860 -0.0618  0.1842  0.0310
 2685DPPE   GL254076  33.674  16.378  10.142  0.1602 -0.3678 -0.0198
 2685DPPE   C1A54077  33.331  16.505   9.646  0.2777  0.1512 -0.0951
 2685DPPE   C2A54078  32.965  16.334   9.659 -0.0614  0.0375 -0.1532
 2685DPPE   C3A54079  32.503  16.192   9.684 -0.1154 -0.3797 -0.1720
 2685DPPE   C4A54080  32.321  15.807   9.863  0.2142 -0.0701  0.0042
 2685DPPE   C1B54081  33.206  16.353  10.145  0.0481  0.5941  0.2296
 2685DPPE   C2B54082  32.743  16.359  10.104 -0.0742  0.0834 -0.3472
 2685DPPE   C3B54083  32.450  16.794  10.177  0.1453  0.1629  0.3601
 2685DPPE   C4B54084  32.121  17.011  10.274  0.0908  0.1164 -0.0411
 2686DPPE   NH354085  34.050  18.516  15.361 -0.2317  0.4381 -0.1232
 2686DPPE   PO454086  34.071  18.919  15.107  0.0428  0.4135 -0.4558
 2686DPPE   GL154087  33.674  18.837  15.201 -0.0325  0.1217  0.1739
 2686DPPE   GL254088  33.598  18.642  15.343  0.3922 -0.2371 -0.0557
 2686DPPE   C1A54089  33.221  18.932  15.337 -0.0546 -0.0687 -0.2786
 2686DPPE   C2A54090  32.859  18.810  15.417  0.2241  0.0385 -0.0729
 2686DPPE   C3A54091  32.431  18.692  15.531  0.2414 -0.2253  0.3326
 2686DPPE   C4A54092  32.168  18.333  15.703 -0.0738 -0.0634  0.3438
 2686DPPE   C1B54093  33.283  18.363  15.542 -0.5016 -0.1050 -0.0730
 2686DPPE   C2B54094  32.986  18.376  15.758  0.3065  0.2434 -0.1620
 2686DPPE   C3B54095  32.740  18.067  15.975 -0.1298  0.0316 -0.0172
 2686DPPE   C4B54096  32.391  17.848  15.716  0.0806  0.1116 -0.2764
 2687DPPE   NH354097  37.704  14.343  13.990 -0.0706  0.0548  0.0471
 2687DPPE   PO454098  37.413  14.655  13.796  0.0236  0.3224  0.0526
 2687DPPE   GL154099  37.765  14.837  13.641  0.0567  0.0642  0.0423
 2687DPPE   GL254100  37.887  14.681  13.311  0.2238  0.1066  0.2919
 2687DPPE   C1A54101  38.057  15.157  13.481  0.1008 -0.0388 -0.2080
 2687DPPE   C2A54102  38.233  15.561  13.413  0.3588 -0.1000  0.1249
 2687DPPE   C3A54103  38.548  15.841  13.351 -0.1689 -0.1324  0.1165
 2687DPPE   C4A54104  38.530  16.282  13.361 -0.2407  0.0593 -0.0002
 2687DPPE   C1B54105  38.317  14.676  13.243  0.0748  0.2394  0.0922
 2687DPPE   C2B54106  38.545  15.129  13.212 -0.0293  0.1091 -0.0102
 2687DPPE   C3B54107  38.719  15.522  12.972 -0.0218 -0.1812 -0.1886
 2687DPPE   C4B54108  38.623  15.837  12.705 -0.1824  0.1455  0.0404
 2688DPPE   NH354109   1.147  11.839   5.321 -0.0904  0.0483  0.1251
 2688DPPE   PO454110   1.466  11.484   5.501  0.0590 -0.1093  0.0464
 2688DPPE   GL154111   1.086  11.372   5.223 -0.1741 -0.1384 -0.2219
 2688DPPE   GL254112   1.184  11.216   4.918 -0.1646 -0.1729  0.0810
 2688DPPE   C1A54113   0.703  11.257   5.018 -0.4361 -0.3512 -0.1766
 2688DPPE   C2A54114   0.411  11.074   4.760  0.0377  0.0336  0.2205
 2688DPPE   C3A54115   0.187  11.005   4.347  0.3801 -0.1314  0.1640
 2688DPPE   C4A54116  -0.135  10.970   4.112  0.2504 -0.1923  0.0893
 2688DPPE   C1B54117   1.432  10.902   4.751  0.1605  0.0333  0.1459
 2688DPPE   C2B54118   1.718  10.598   4.717 -0.2330  0.0598  0.1295
 2688DPPE   C3B54119   1.866  10.284   4.539 -0.0536  0.1596 -0.0426
 2688DPPE   C4B54120   1.570  10.037   4.340  0.0338 -0.1448  0.0367
 2689DPPE   NH354121  35.198  15.839  15.591 -0.3062  0.3283  0.1005
 2689DPPE   PO454122  34.831  16.048  15.426  0.2358 -0.3023  0.0212
 2689DPPE   GL154123  34.496  15.883  15.639 -0.0072 -0.0801 -0.0779
 2689DPPE   GL254124  34.147  16.023  15.571  0.1951  0.2950 -0.1005
 2689DPPE   C1A54125  34.304  15.576  15.976 -0.0234 -0.0898  0.2643
 2689DPPE   C2A54126  34.237  15.243  16.285 -0.2641 -0.0238  0.1384
 2689DPPE   C3A54127  34.003  15.243  16.644  0.2086 -0.2067 -0.0852
 2689DPPE   C4A54128  33.714  15.173  16.966  0.4029  0.5612 -0.2430
 2689DPPE   C1B54129  34.059  16.017  16.030 -0.0883 -0.1875 -0.0226
 2689DPPE   C2B54130  34.021  15.674  16.372 -0.0313 -0.0828 -0.1850
 2689DPPE   C3B54131  33.854  15.687  16.766  0.0038 -0.1026 -0.2488
 2689DPPE   C4B54132  33.771  15.617  17.178  0.0396  0.0254  0.2369
 2690DPPE   NH354133  35.326  18.437   3.765 -0.1612 -0.1478  0.2295
 2690DPPE   PO454134  35.135  18.191   4.133  0.0794  0.0210 -0.1969
 2690DPPE   GL154135  34.848  18.381   3.878  0.2837  0.0335  0.1632
 2690DPPE   GL254136  34.844  18.273   3.525  0.2063 -0.3593 -0.0519
 2690DPPE   C1A54137  34.421  18.239   3.809 -0.2240  0.1387 -0.0362
 2690DPPE   C2A54138  34.204  18.246   3.443  0.2001  0.0084 -0.0531
 2690DPPE   C3A54139  33.952  18.264   3.190 -0.0922  0.0595 -0.0286
 2690DPPE   C4A54140  33.672  18.198   2.892  0.2811 -0.3932  0.0776
 2690DPPE   C1B54141  34.778  17.911   3.379 -0.0117 -0.0173  0.3183
 2690DPPE   C2B54142  34.540  17.650   3.648 -0.2370  0.2338  0.0452
 2690DPPE   C3B54143  34.749  17.390   3.898  0.4258 -0.0852 -0.1646
 2690DPPE   C4B54144  35.051  17.191   4.134  0.0831 -0.0408  0.2922
 2691DPPE   NH354145   2.446  11.585  12.073 -0.1987  0.0677 -0.0341
 2691DPPE   PO454146   2.610  11.741  12.002  0.2453 -0.1269  0.0289
 2691DPPE   GL154147   2.779  12.133  11.947 -0.0685 -0.2058  0.0288
 2691DPPE   GL254148   2.501  12.471  11.965 -0.1187  0.1885  0.1754
 2691DPPE   C1A54149   3.166  12.458  11.781  0.0839  0.0335 -0.0708
 2691DPPE   C2A54150   3.517  12.671  11.671 -0.0406 -0.2549  0.0064
 2691DPPE   C3A54151   3.638  12.765  11.205 -0.4506 -0.0027 -0.0105
 2691DPPE   C4A54152   3.797  12.388  10.940 -0.2434 -0.1721 -0.0173
 2691DPPE   C1B54153   2.744  12.757  11.775  0.1242 -0.0021 -0.0737
 2691DPPE   C2B54154   2.805  13.075  11.523 -0.3545 -0.3488  0.0881
 2691DPPE   C3B54155   2.788  13.516  11.610 -0.0213  0.0594 -0.2027
 2691DPPE   C4B54156   2.869  13.853  11.545 -0.1272  0.1672 -0.3079
 2692DPPE   NH354157   0.695  10.783   8.926  0.1749  0.0983  0.1236
 2692DPPE   PO454158   0.545  11.051   9.215 -0.1629  0.3178 -0.3285
 2692DPPE   GL154159   0.417  10.708   9.351 -0.0321  0.0227  0.0435
 2692DPPE   GL254160   0.370  10.382   9.195  0.3863  0.0413 -0.1498
 2692DPPE   C1A54161   0.101  10.577   9.568  0.0518  0.1142 -0.1375
 2692DPPE   C2A54162  -0.047  10.107   9.668  0.1222 -0.4241  0.2204
 2692DPPE   C3A54163  -0.021   9.680   9.568 -0.0282 -0.1799  0.1725
 2692DPPE   C4A54164   0.024   9.328   9.668  0.0693  0.0796 -0.1434
 2692DPPE   C1B54165   0.164  10.000   9.085 -0.2095 -0.2313  0.0890
 2692DPPE   C2B54166   0.099   9.519   8.980 -0.2542 -0.1053  0.0517
 2692DPPE   C3B54167  -0.201   9.304   9.232  0.1471  0.3800  0.4293
 2692DPPE   C4B54168  -0.232   8.930   9.276  0.2139  0.1695  0.0657
 2693DPPE   NH354169   1.815  13.003  15.787 -0.0067 -0.1317 -0.0783
 2693DPPE   PO454170   1.957  12.460  15.658  0.0485 -0.0728 -0.0665
 2693DPPE   GL154171   2.107  12.216  16.026 -0.5846  0.2888  0.2159
 2693DPPE   GL254172   1.875  11.943  16.049  0.0564  0.0032  0.3027
 2693DPPE   C1A54173   2.537  12.056  16.185 -0.0250 -0.0029  0.0948
 2693DPPE   C2A54174   2.777  11.700  16.283  0.2618 -0.1746  0.0983
 2693DPPE   C3A54175   2.903  11.365  16.250 -0.0299  0.1699 -0.1434
 2693DPPE   C4A54176   2.779  10.927  16.056 -0.1560  0.0265  0.3131
 2693DPPE   C1B54177   2.203  11.790  15.810 -0.1030  0.0930 -0.0595
 2693DPPE   C2B54178   2.392  11.406  16.029  0.2068  0.2869  0.2325
 2693DPPE   C3B54179   2.395  11.152  16.311 -0.1639 -0.1723  0.1604
 2693DPPE   C4B54180   2.113  10.784  16.465 -0.4402  0.0997  0.2526
 2694DPPE   NH354181  33.778  19.752  12.570 -0.1276 -0.0889  0.1042
 2694DPPE   PO454182  33.921  19.908  13.057 -0.0353 -0.0915 -0.3181
 2694DPPE   GL154183  34.330  19.909  12.961  0.2617 -0.0933  0.1094
 2694DPPE   GL254184  34.546  19.609  13.025  0.1352 -0.0770  0.2098
 2694DPPE   C1A54185  34.586  20.266  12.690 -0.1267 -0.0356  0.1728
 2694DPPE   C2A54186  34.851  20.538  12.769  0.0406  0.0657 -0.2433
 2694DPPE   C3A54187  35.155  20.517  13.038 -0.2395  0.1434  0.0188
 2694DPPE   C4A54188  35.554  20.486  13.329 -0.2220  0.0988  0.1922
 2694DPPE   C1B54189  35.013  19.458  12.793 -0.0608  0.0207  0.2176
 2694DPPE   C2B54190  35.385  19.293  12.628  0.1829  0.2768 -0.1467
 2694DPPE   C3B54191  35.768  19.135  12.636  0.2363 -0.4974 -0.0859
 2694DPPE   C4B54192  36.180  19.147  12.256  0.1039  0.2979  0.1637
 2695DPPE   NH354193  33.093  21.079  10.707  0.0319  0.0468  0.3163
 2695DPPE   PO454194  33.323  21.327  10.446  0.2059 -0.0789  0.0039
 2695DPPE   GL154195  32.837  21.344  10.380  0.1004 -0.1157  0.1904
 2695DPPE   GL254196  32.704  21.475  10.036  0.1729  0.3615 -0.0126
 2695DPPE   C1A54197  32.429  21.200  10.407 -0.0463  0.1668  0.0437
 2695DPPE   C2A54198  32.097  21.173  10.221 -0.0136  0.2697 -0.0335
 2695DPPE   C3A54199  31.629  21.186  10.129 -0.0764 -0.0778 -0.1112
 2695DPPE   C4A54200  31.195  21.260   9.914  0.1396 -0.1162  0.2729
 2695DPPE   C1B54201  32.404  21.218   9.835  0.0201 -0.2318 -0.3951
 2695DPPE   C2B54202  32.003  21.309   9.738  0.1579  0.0366  0.0531
 2695DPPE   C3B54203  31.705  21.518   9.657  0.0649  0.2361  0.5320
 2695DPPE   C4B54204  31.404  21.638   9.502  0.0287  0.0259  0.0440
 2696DPPE   NH354205  35.538  16.294  17.191  0.2111 -0.2145  0.2090
 2696DPPE   PO454206  35.400  16.194  16.773  0.0206 -0.1210 -0.0929
 2696DPPE   GL154207  35.098  16.032  17.002  0.1614 -0.2104  0.0221
 2696DPPE   GL254208  35.082  16.001  17.333  0.2497 -0.0687  0.2274
 2696DPPE   C1A54209  34.636  15.924  17.090  0.2555  0.2216  0.2593
 2696DPPE   C2A54210  34.223  15.701  17.412  0.2594 -0.3049 -0.0263
 2696DPPE   C3A54211  33.982  15.535  17.624 -0.0074 -0.0133  0.1739
 2696DPPE   C4A54212  33.556  15.426  17.656  0.1556  0.1502  0.1149
 2696DPPE   C1B54213  34.834  15.751  17.523 -0.3756  0.2722 -0.3750
 2696DPPE   C2B54214  34.735  15.508  17.851 -0.0205 -0.2399  0.2770
 2696DPPE   C3B54215  34.373  15.492  17.982  0.0555  0.2638 -0.2692
 2696DPPE   C4B54216  34.295  15.102  18.270  0.2164  0.0120  0.0817
 2697DPPE   NH354217   0.307  12.537   8.483 -0.0074 -0.1221  0.1710
 2697DPPE   PO454218   0.677  12.555   8.619  0.2229  0.0394 -0.2169
 2697DPPE   GL154219   0.757  12.989   8.770 -0.0870  0.0778  0.2477
 2697DPPE   GL254220   1.027  12.943   8.943  0.1402 -0.0238  0.2119
 2697DPPE   C1A54221   0.784  13.388   8.981 -0.3559 -0.3378 -0.1107
 2697DPPE   C2A54222   0.956  13.622   8.846  0.2505 -0.1719 -0.2049
 2697DPPE   C3A54223   1.090  13.966   8.898 -0.0156  0.3086 -0.2195
 2697DPPE   C4A54224   1.118  14.328   9.065  0.0031 -0.0406  0.0558
 2697DPPE   C1B54225   1.290  13.263   8.872  0.0816  0.1895  0.3127
 2697DPPE   C2B54226   1.551  13.597   8.960  0.1475  0.0357 -0.1862
 2697DPPE   C3B54227   1.587  13.950   9.005  0.0126  0.0882  0.1429
 2697DPPE   C4B54228   1.805  14.354   8.920 -0.0681  0.3073  0.1286
 2698DPPE   NH354229  37.121  15.269  17.789 -0.0255  0.0371 -0.1394
 2698DPPE   PO454230  36.919  15.386  18.225 -0.1426  0.2673  0.2309
 2698DPPE   GL154231  36.850  15.280  18.661 -0.0655  0.4367 -0.0244
 2698DPPE   GL254232  36.722  15.517  18.893 -0.1471 -0.6591 -0.2732
 2698DPPE   C1A54233  36.817  14.996  19.074  0.0044 -0.0042 -0.3829
 2698DPPE   C2A54234  36.834  15.197  19.345  0.3175  0.0903  0.0584
 2698DPPE   C3A54235  36.827  15.624  19.522 -0.1067  0.0483 -0.2563
 2698DPPE   C4A54236  37.191  15.950  19.477  0.0452  0.1507 -0.0791
 2698DPPE   C1B54237  37.147  15.448  19.057 -0.0134  0.2696 -0.3046
 2698DPPE   C2B54238  37.645  15.369  19.114  0.1536  0.0479  0.0246
 2698DPPE   C3B54239  38.063  15.449  19.315 -0.1450  0.0466 -0.1700
 2698DPPE   C4B54240  38.285  15.472  19.668  0.2698  0.1877 -0.0163
 2699DPPE   NH354241   1.009  14.772  17.524  0.1024  0.0000 -0.1865
 2699DPPE   PO454242   0.764  14.544  17.054 -0.2392 -0.0711  0.0950
 2699DPPE   GL154243   0.891  14.917  16.721  0.1551  0.0643  0.3442
 2699DPPE   GL254244   1.181  14.923  16.399  0.1321 -0.2455 -0.2699
 2699DPPE   C1A54245   1.209  15.305  16.713 -0.1948  0.2926 -0.1212
 2699DPPE   C2A54246   1.514  15.545  16.888 -0.2394  0.2511 -0.4465
 2699DPPE   C3A54247   1.534  15.898  16.999  0.1107  0.0648  0.1906
 2699DPPE   C4A54248   1.692  16.282  17.031  0.1644  0.1227  0.0266
 2699DPPE   C1B54249   1.316  15.255  16.218  0.0288 -0.2679  0.0251
 2699DPPE   C2B54250   1.576  15.426  15.955  0.2594  0.1778  0.1999
 2699DPPE   C3B54251   1.638  15.719  15.606 -0.0125  0.0001 -0.2898
 2699DPPE   C4B54252   1.719  16.075  15.289 -0.0443  0.1069 -0.0526
 2700DPPE   NH354253  35.023  22.923   6.289  0.3577 -0.2356 -0.1145
 2700DPPE   PO454254  35.193  23.296   6.137  0.1711 -0.1313  0.0401
 2700DPPE   GL154255  35.414  23.581   6.440  0.2283  0.4013  0.1835
 2700DPPE   GL254256  35.585  23.478   6.832 -0.0963 -0.2570  0.1032
 2700DPPE   C1A54257  35.455  24.020   6.584 -0.0763 -0.0673  0.0685
 2700DPPE   C2A54258  35.828  24.268   6.327 -0.1730  0.3136 -0.0190
 2700DPPE   C3A54259  36.236  24.354   6.182  0.0285  0.2585 -0.0842
 2700DPPE   C4A54260  36.508  24.635   5.865 -0.0702 -0.0101  0.1195
 2700DPPE   C1B54261  35.870  23.798   6.914  0.0884 -0.1690  0.0769
 2700DPPE   C2B54262  36.261  23.896   7.203  0.0634  0.2394  0.2698
 2700DPPE   C3B54263  36.619  24.212   7.214  0.0251 -0.0347  0.1011
 2700DPPE   C4B54264  36.992  24.222   7.096  0.2207 -0.2266  0.1162
 2701DPPE   NH354265  37.645  13.133   7.129 -0.0077 -0.1756 -0.0433
 2701DPPE   PO454266  37.502  12.903   7.481  0.3380 -0.1014  0.1259
 2701DPPE   GL154267  37.226  12.680   7.252  0.1248  0.1816  0.0827
 2701DPPE   GL254268  37.412  12.425   7.330 -0.0697  0.0048  0.0148
 2701DPPE   C1A54269  36.970  12.577   6.886 -0.0914  0.1370 -0.1744
 2701DPPE   C2A54270  36.632  12.150   6.880 -0.3426  0.0343 -0.0470
 2701DPPE   C3A54271  36.424  11.849   6.926  0.0812 -0.2798 -0.0654
 2701DPPE   C4A54272  36.149  11.550   6.880  0.0190 -0.1173 -0.1213
 2701DPPE   C1B54273  37.193  12.118   7.017  0.3254  0.1700 -0.0895
 2701DPPE   C2B54274  36.926  11.768   6.758  0.0824 -0.0148 -0.1593
 2701DPPE   C3B54275  36.599  11.500   6.668  0.2525  0.3103 -0.0656
 2701DPPE   C4B54276  36.407  11.043   6.682  0.4357  0.1425 -0.3472
 2702DPPE   NH354277   0.729  14.868   3.825  0.0260  0.1879 -0.1606
 2702DPPE   PO454278   1.027  14.984   3.614  0.0664  0.1202 -0.1691
 2702DPPE   GL154279   1.351  15.179   3.388  0.2585  0.1069  0.0539
 2702DPPE   GL254280   1.417  15.465   3.486 -0.0572  0.0749 -0.0273
 2702DPPE   C1A54281   1.717  15.249   3.137 -0.0153  0.2655  0.1067
 2702DPPE   C2A54282   2.020  15.380   2.897  0.0193  0.0563 -0.1723
 2702DPPE   C3A54283   2.335  15.213   2.469 -0.1631  0.1478 -0.1656
 2702DPPE   C4A54284   2.682  15.042   2.361 -0.2982  0.1557 -0.3614
 2702DPPE   C1B54285   1.770  15.360   3.661  0.2287 -0.2321 -0.0548
 2702DPPE   C2B54286   1.996  15.032   3.625  0.0306  0.0690 -0.0991
 2702DPPE   C3B54287   2.185  15.010   3.311  0.1661  0.1145  0.2318
 2702DPPE   C4B54288   2.431  15.040   2.910 -0.0334  0.1355 -0.0224
 2703DPPE   NH354289   2.267  12.730  15.932 -0.0274  0.2186  0.1751
 2703DPPE   PO454290   2.177  13.163  16.105 -0.1175  0.0554 -0.0397
 2703DPPE   GL154291   2.527  13.387  16.213 -0.0803 -0.0313 -0.1247
 2703DPPE   GL254292   2.552  13.688  16.035  0.0769  0.0617 -0.0172
 2703DPPE   C1A54293   2.834  13.290  16.546 -0.2657  0.1663 -0.0099
 2703DPPE   C2A54294   3.222  13.057  16.709 -0.1900 -0.1183 -0.2569
 2703DPPE   C3A54295   3.658  13.040  16.656  0.4401 -0.5455  0.0066
 2703DPPE   C4A54296   3.996  12.994  16.559 -0.0504  0.0109  0.0059
 2703DPPE   C1B54297   3.022  13.614  15.970  0.2240  0.0078 -0.0114
 2703DPPE   C2B54298   3.452  13.631  16.004 -0.2254 -0.0956 -0.0610
 2703DPPE   C3B54299   3.877  13.700  15.926  0.4128 -0.0755  0.0781
 2703DPPE   C4B54300   4.288  13.674  15.950  0.0399 -0.3855  0.0910
 2704DPPE   NH354301  33.629  17.433   9.861  0.0421 -0.0100 -0.0671
 2704DPPE   PO454302  33.935  17.181   9.619 -0.1233 -0.4141 -0.0101
 2704DPPE   GL154303  33.624  16.916   9.508  0.3038 -0.3258 -0.2651
 2704DPPE   GL254304  33.382  17.003   9.760 -0.1402 -0.0072  0.0702
 2704DPPE   C1A54305  33.407  16.671   9.181 -0.2691  0.3251  0.2003
 2704DPPE   C2A54306  33.169  16.391   9.191 -0.1079 -0.1025  0.0866
 2704DPPE   C3A54307  32.951  15.925   9.361  0.1817  0.2690  0.1160
 2704DPPE   C4A54308  32.739  15.669   9.681 -0.2808 -0.0314  0.1162
 2704DPPE   C1B54309  33.114  16.919   9.505 -0.0678 -0.0075 -0.3195
 2704DPPE   C2B54310  32.781  16.749   9.258  0.0949  0.0082  0.0311
 2704DPPE   C3B54311  32.598  16.301   9.226  0.1508  0.3534 -0.1662
 2704DPPE   C4B54312  32.490  15.870   9.312 -0.0036  0.0270 -0.3436
 2705DPPE   NH354313   0.301  10.861  12.716  0.2128  0.0980  0.1273
 2705DPPE   PO454314   0.334  10.724  13.092  0.0137  0.0103 -0.1519
 2705DPPE   GL154315   0.141  10.345  13.310  0.2844  0.0184 -0.0088
 2705DPPE   GL254316   0.076  10.136  13.152 -0.0049  0.1052 -0.1381
 2705DPPE   C1A54317  -0.093  10.037  13.584 -0.0285 -0.1334  0.1926
 2705DPPE   C2A54318  -0.349   9.670  13.520 -0.0632  0.4702  0.1835
 2705DPPE   C3A54319  -0.416   9.290  13.424 -0.0232 -0.1777 -0.2112
 2705DPPE   C4A54320  -0.648   8.966  13.135 -0.0537 -0.0059  0.0260
 2705DPPE   C1B54321  -0.108   9.785  13.082  0.1729  0.1955  0.0328
 2705DPPE   C2B54322  -0.194   9.278  12.939  0.0344 -0.1091 -0.0162
 2705DPPE   C3B54323   0.018   9.023  12.696 -0.2206 -0.1904  0.1394
 2705DPPE   C4B54324   0.256   8.775  12.669 -0.2401 -0.0347  0.0811
 2706DPPE   NH354325   1.484  11.923  10.732 -0.2522 -0.3000 -0.1367
 2706DPPE   PO454326   1.058  11.983  10.802 -0.0457 -0.2127  0.0140
 2706DPPE   GL154327   1.122  12.421  10.790 -0.1246  0.1393 -0.0903
 2706DPPE   GL254328   1.525  12.449  10.679  0.1053  0.4211 -0.0344
 2706DPPE   C1A54329   1.367  12.861  11.014 -0.2155  0.0342  0.0525
 2706DPPE   C2A54330   1.481  13.221  11.123 -0.3314 -0.2890 -0.0304
 2706DPPE   C3A54331   1.878  13.350  10.974 -0.0675 -0.0763 -0.0317
 2706DPPE   C4A54332   2.298  13.630  11.059 -0.0479 -0.0205 -0.2116
 2706DPPE   C1B54333   1.736  12.829  10.699  0.0765  0.0461 -0.1390
 2706DPPE   C2B54334   1.964  13.196  10.528  0.0937  0.3296 -0.2137
 2706DPPE   C3B54335   2.253  13.573  10.461 -0.3784  0.0668  0.0183
 2706DPPE   C4B54336   2.605  13.925  10.257 -0.0470  0.1695  0.1195
 2707DPPE   NH354337  34.544  21.039   9.114  0.0175 -0.3750  0.2232
 2707DPPE   PO454338  34.418  21.248   9.589 -0.1549  0.0190 -0.0507
 2707DPPE   GL154339  34.661  20.990   9.725  0.0446  0.2205 -0.1758
 2707DPPE   GL254340  34.488  20.704   9.912 -0.1596  0.2766  0.0364
 2707DPPE   C1A54341  35.072  20.892   9.616 -0.1316 -0.2861 -0.1397
 2707DPPE   C2A54342  35.500  21.032   9.838 -0.0302 -0.0521 -0.2137
 2707DPPE   C3A54343  35.952  21.029   9.970 -0.1690 -0.0640  0.1041
 2707DPPE   C4A54344  36.371  20.887   9.896  0.3015 -0.1542  0.0447
 2707DPPE   C1B54345  34.915  20.622  10.001  0.0300  0.0521 -0.2332
 2707DPPE   C2B54346  35.372  20.682  10.165  0.0958 -0.1771  0.2683
 2707DPPE   C3B54347  35.790  20.625  10.331  0.0883  0.0529  0.0077
 2707DPPE   C4B54348  36.195  20.658  10.378 -0.0766  0.0748  0.0351
 2708DPPE   NH354349  34.974  15.652  14.152  0.2491  0.0393 -0.0167
 2708DPPE   PO454350  34.910  15.523  13.846 -0.2361 -0.0952 -0.3261
 2708DPPE   GL154351  34.540  15.450  14.212 -0.1320 -0.2085 -0.1941
 2708DPPE   GL254352  34.513  15.723  14.484 -0.0427  0.1367 -0.1958
 2708DPPE   C1A54353  34.194  15.196  14.270  0.1262 -0.4641 -0.1857
 2708DPPE   C2A54354  33.805  15.153  14.416  0.5881 -0.1935  0.0450
 2708DPPE   C3A54355  33.404  14.988  14.550  0.2238  0.1608 -0.0679
 2708DPPE   C4A54356  33.018  14.919  14.490  0.1164  0.0949 -0.0472
 2708DPPE   C1B54357  34.193  15.458  14.724  0.3123  0.0469 -0.2044
 2708DPPE   C2B54358  33.849  15.211  14.948  0.0004  0.1534 -0.6317
 2708DPPE   C3B54359  33.668  15.009  15.379 -0.0223  0.4012 -0.2885
 2708DPPE   C4B54360  33.537  14.566  15.626  0.1447 -0.1752  0.3272
 2709DPPE   NH354361  34.041  20.634  15.031 -0.1235  0.0748 -0.0275
 2709DPPE   PO454362  34.369  20.423  15.338  0.1832  0.0600  0.0224
 2709DPPE   GL154363  34.033  20.541  15.547 -0.1069  0.2638  0.2956
 2709DPPE   GL254364  33.978  20.744  15.836  0.1136  0.0726  0.0223
 2709DPPE   C1A54365  33.590  20.788  15.558 -0.0017  0.2805 -0.1305
 2709DPPE   C2A54366  33.252  21.110  15.655 -0.2428 -0.0168  0.0915
 2709DPPE   C3A54367  32.930  21.280  15.719 -0.0064 -0.0441 -0.2519
 2709DPPE   C4A54368  32.743  21.659  15.827 -0.0468  0.0769  0.1246
 2709DPPE   C1B54369  33.615  20.796  16.078 -0.1768  0.0567  0.0274
 2709DPPE   C2B54370  33.140  20.750  16.048 -0.0214  0.2026  0.0119
 2709DPPE   C3B54371  32.969  20.431  16.176 -0.0906 -0.2278  0.2682
 2709DPPE   C4B54372  32.591  20.238  16.180 -0.0835  0.1194 -0.0211
 2710DPPE   NH354373  38.246  15.048   5.030  0.3187  0.4517  0.2732
 2710DPPE   PO454374  38.434  14.788   4.740 -0.1388  0.1390 -0.0831
 2710DPPE   GL154375  38.795  14.981   4.985  0.0755  0.2594 -0.4448
 2710DPPE   GL254376  38.707  15.394   4.938  0.2574 -0.1800  0.1477
 2710DPPE   C1A54377  38.976  15.240   5.355 -0.1202  0.0944  0.2804
 2710DPPE   C2A54378  39.187  15.633   5.595 -0.0633 -0.1626 -0.0467
 2710DPPE   C3A54379  39.504  15.891   5.758  0.0082  0.1066 -0.0820
 2710DPPE   C4A54380  39.867  16.050   5.800 -0.0153  0.1044  0.0154
 2710DPPE   C1B54381  39.088  15.632   5.064  0.1602 -0.0311  0.0779
 2710DPPE   C2B54382  39.398  15.848   5.090 -0.1324 -0.0731  0.0073
 2710DPPE   C3B54383  39.722  16.070   5.227 -0.0209  0.1738  0.1629
 2710DPPE   C4B54384  40.184  16.119   5.175  0.0640  0.2083 -0.2488
 2711DPPE   NH354385  35.230  15.840  12.281  0.0548  0.3089 -0.0235
 2711DPPE   PO454386  35.680  15.873  12.044 -0.1036 -0.1002 -0.1716
 2711DPPE   GL154387  35.945  16.168  12.193 -0.0156  0.3101  0.2273
 2711DPPE   GL254388  35.699  16.399  12.244 -0.1061 -0.1333 -0.1408
 2711DPPE   C1A54389  36.241  16.580  12.188  0.0573 -0.0624 -0.2511
 2711DPPE   C2A54390  36.627  16.730  12.059  0.1096 -0.0146 -0.2207
 2711DPPE   C3A54391  36.917  16.934  12.083  0.3252  0.0072  0.1071
 2711DPPE   C4A54392  37.412  17.093  12.091  0.1510  0.0802 -0.0549
 2711DPPE   C1B54393  35.772  16.573  11.897 -0.0825  0.1652 -0.1847
 2711DPPE   C2B54394  36.147  16.922  11.870 -0.0443 -0.2056 -0.0486
 2711DPPE   C3B54395  36.512  17.186  11.949  0.0540  0.2410  0.3003
 2711DPPE   C4B54396  36.554  17.515  11.927 -0.0861 -0.1862  0.2883
 2712DPPE   NH354397  38.375  15.876   4.387 -0.0323 -0.1712 -0.1532
 2712DPPE   PO454398  38.697  15.673   4.145 -0.1378 -0.4149  0.2086
 2712DPPE   GL154399  39.147  15.759   4.147 -0.1303 -0.1524 -0.1898
 2712DPPE   GL254400  39.244  15.845   3.901 -0.1494  0.1308  0.1075
 2712DPPE   C1A54401  39.229  16.021   4.507  0.1413 -0.0289  0.4379
 2712DPPE   C2A54402  39.582  16.279   4.421  0.2094  0.0977  0.1398
 2712DPPE   C3A54403  39.740  16.691   4.264 -0.0914  0.3391  0.0733
 2712DPPE   C4A54404  39.979  17.059   4.216 -0.0450 -0.0969 -0.1232
 2712DPPE   C1B54405  39.613  16.234   3.838 -0.0254 -0.1304 -0.2321
 2712DPPE   C2B54406  40.077  16.458   3.921 -0.1250 -0.2919  0.1215
 2712DPPE   C3B54407  40.215  16.642   4.180  0.0818  0.2021 -0.0810
 2712DPPE   C4B54408  40.454  16.761   4.336  0.1901  0.0327  0.1545
 2713DPPE   NH354409  34.678  17.475  12.016  0.0081 -0.0916 -0.3209
 2713DPPE   PO454410  34.267  17.622  12.023  0.0346 -0.3482 -0.4002
 2713DPPE   GL154411  34.543  17.904  11.745  0.3014 -0.3470 -0.1815
 2713DPPE   GL254412  34.843  17.746  11.548  0.0059  0.1289  0.1724
 2713DPPE   C1A54413  34.812  18.276  11.853  0.3089 -0.3506 -0.1515
 2713DPPE   C2A54414  35.183  18.503  11.890 -0.0483 -0.1555  0.2739
 2713DPPE   C3A54415  35.443  18.709  11.935 -0.2713 -0.1090  0.0680
 2713DPPE   C4A54416  35.844  18.706  12.129 -0.0622 -0.1192 -0.0970
 2713DPPE   C1B54417  35.182  17.712  11.223  0.0711  0.0948  0.0795
 2713DPPE   C2B54418  35.530  18.026  11.267  0.1753 -0.4192 -0.1603
 2713DPPE   C3B54419  35.540  18.313  11.523 -0.1196 -0.2752 -0.2827
 2713DPPE   C4B54420  35.836  18.747  11.572 -0.1563 -0.2973 -0.1853
 2714DPPE   NH354421  37.125  15.980   3.329  0.2008 -0.3968  0.1267
 2714DPPE   PO454422  37.142  16.461   3.247  0.2769  0.0999 -0.0920
 2714DPPE   GL154423  36.850  16.297   3.005 -0.0599 -0.1225  0.0420
 2714DPPE   GL254424  36.985  16.324   2.715  0.1457  0.0487 -0.1789
 2714DPPE   C1A54425  36.294  16.163   3.000 -0.2201  0.2095 -0.2264
 2714DPPE   C2A54426  36.040  16.030   2.740  0.0604 -0.0359 -0.3226
 2714DPPE   C3A54427  35.672  15.877   2.705  0.0782  0.2439  0.1978
 2714DPPE   C4A54428  35.323  16.072   2.550 -0.2529  0.2383 -0.0280
 2714DPPE   C1B54429  36.909  16.411   2.238  0.2584 -0.3232 -0.0035
 2714DPPE   C2B54430  36.963  16.392   1.785 -0.2979  0.3413 -0.0929
 2714DPPE   C3B54431  37.054  16.574   1.336  0.0213  0.2727  0.0211
 2714DPPE   C4B54432  36.936  16.645   0.968  0.0863  0.1050  0.2357
 2715DPPE   NH354433  33.635  19.720   9.400  0.3183 -0.2561 -0.1371
 2715DPPE   PO454434  33.231  19.589   9.461 -0.1249 -0.2301 -0.0715
 2715DPPE   GL154435  32.895  19.681   9.491 -0.0785 -0.0989 -0.1933
 2715DPPE   GL254436  32.830  19.495   9.691  0.2170  0.3491  0.1246
 2715DPPE   C1A54437  32.508  19.885   9.779 -0.1492 -0.1935  0.4215
 2715DPPE   C2A54438  32.051  19.792   9.932 -0.1372 -0.6178 -0.1720
 2715DPPE   C3A54439  31.609  19.683   9.924 -0.0578 -0.3856  0.2605
 2715DPPE   C4A54440  31.331  19.466   9.701  0.1924  0.0422  0.0159
 2715DPPE   C1B54441  32.459  19.387   9.552 -0.3808 -0.2108  0.0314
 2715DPPE   C2B54442  32.057  19.452   9.600 -0.0082 -0.0767  0.1176
 2715DPPE   C3B54443  31.718  19.154   9.728  0.1874 -0.2501 -0.0974
 2715DPPE   C4B54444  31.835  18.824  10.011 -0.2692  0.0635  0.0501
 2716DPPE   NH354445  34.455  20.080   6.197 -0.1796 -0.0563  0.0764
 2716DPPE   PO454446  34.103  19.918   6.027  0.1394 -0.0383  0.1281
 2716DPPE   GL154447  33.671  19.937   5.853  0.0847  0.2121 -0.2502
 2716DPPE   GL254448  33.549  20.165   5.812  0.0647  0.0013 -0.1114
 2716DPPE   C1A54449  33.236  19.760   5.612 -0.4028 -0.0674 -0.0841
 2716DPPE   C2A54450  33.042  19.273   5.375 -0.0096  0.1573  0.0455
 2716DPPE   C3A54451  32.605  19.124   5.141  0.1825  0.1284 -0.1911
 2716DPPE   C4A54452  32.223  18.940   4.964 -0.3453 -0.0160  0.3207
 2716DPPE   C1B54453  33.111  20.228   5.707 -0.1504  0.1503 -0.2404
 2716DPPE   C2B54454  32.905  20.535   5.692 -0.0016  0.1687  0.1810
 2716DPPE   C3B54455  32.670  20.910   5.446  0.0758  0.1090 -0.1185
 2716DPPE   C4B54456  32.669  21.187   5.203 -0.3487  0.0810  0.0671
 2717DPPE   NH354457  37.888  11.787   9.268 -0.1572 -0.1959  0.1304
 2717DPPE   PO454458  38.042  11.854   9.734  0.1400  0.1814  0.1524
 2717DPPE   GL154459  37.690  11.417   9.590 -0.2118 -0.1790  0.0835
 2717DPPE   GL254460  37.867  11.285   9.747  0.0032 -0.3856 -0.0539
 2717DPPE   C1A54461  37.448  11.118   9.406  0.2832 -0.0487  0.0102
 2717DPPE   C2A54462  37.199  10.752   9.466 -0.1937 -0.1330  0.2578
 2717DPPE   C3A54463  37.119  10.353   9.332 -0.0842  0.0614  0.2136
 2717DPPE   C4A54464  36.988   9.878   9.287  0.0652  0.1312  0.0475
 2717DPPE   C1B54465  38.006  10.926   9.771  0.0735 -0.0756 -0.2865
 2717DPPE   C2B54466  38.027  10.538   9.781  0.2247 -0.3761 -0.1193
 2717DPPE   C3B54467  37.832  10.118   9.629 -0.0144  0.1837 -0.1620
 2717DPPE   C4B54468  37.816   9.644   9.699 -0.1501 -0.2569  0.1825
 2718DPPE   NH354469  38.385  13.683   7.251  0.1982 -0.1669 -0.0580
 2718DPPE   PO454470  38.152  13.962   7.043  0.2934  0.2559 -0.1568
 2718DPPE   GL154471  38.559  14.119   7.132 -0.2332  0.0777  0.1210
 2718DPPE   GL254472  38.657  14.275   6.769 -0.1740  0.0294  0.0697
 2718DPPE   C1A54473  38.909  14.467   7.224 -0.0020  0.1191  0.0557
 2718DPPE   C2A54474  39.211  14.773   7.195  0.1896  0.0345  0.1776
 2718DPPE   C3A54475  39.393  15.047   7.415  0.1319  0.0601 -0.1803
 2718DPPE   C4A54476  39.609  15.400   7.714 -0.2636 -0.2018  0.0716
 2718DPPE   C1B54477  39.112  14.376   6.620  0.5428 -0.3947 -0.0088
 2718DPPE   C2B54478  39.505  14.587   6.723 -0.0702  0.1220  0.2684
 2718DPPE   C3B54479  39.849  14.871   6.811  0.0286  0.2850 -0.2395
 2718DPPE   C4B54480  40.294  14.867   6.649 -0.2846  0.2168 -0.0424
 2719DPPE   NH354481   2.322  11.075   5.320 -0.2008 -0.2833 -0.2108
 2719DPPE   PO454482   1.969  11.410   5.297  0.3000  0.1857  0.2927
 2719DPPE   GL154483   1.668  11.133   5.127  0.0041 -0.1535 -0.2785
 2719DPPE   GL254484   1.834  10.790   5.163 -0.1467  0.2328 -0.0279
 2719DPPE   C1A54485   1.375  10.786   5.256 -0.0361  0.0833 -0.1555
 2719DPPE   C2A54486   1.227  10.525   4.994  0.1558 -0.0966  0.1341
 2719DPPE   C3A54487   1.402  10.117   4.853 -0.0592 -0.3894 -0.0530
 2719DPPE   C4A54488   1.516   9.726   4.780 -0.2044 -0.0265 -0.0010
 2719DPPE   C1B54489   1.898  10.405   5.170  0.0945 -0.1167 -0.0931
 2719DPPE   C2B54490   1.892  10.020   5.108 -0.4565  0.1660 -0.3181
 2719DPPE   C3B54491   1.708   9.691   5.423 -0.1864 -0.3060 -0.1420
 2719DPPE   C4B54492   1.351   9.827   5.721  0.0149 -0.0377 -0.1307
 2720DPPE   NH354493   0.111  13.117  13.168 -0.2570 -0.6840 -0.1176
 2720DPPE   PO454494  -0.076  13.328  12.910  0.0393 -0.0600  0.0345
 2720DPPE   GL154495   0.066  13.627  12.656 -0.1058 -0.1733  0.0103
 2720DPPE   GL254496   0.066  13.906  12.810 -0.0231  0.0332  0.0858
 2720DPPE   C1A54497   0.439  13.899  12.385  0.1044  0.1102 -0.0851
 2720DPPE   C2A54498   0.744  14.038  12.154 -0.2571  0.0342  0.2004
 2720DPPE   C3A54499   0.822  14.386  12.044 -0.1071  0.0449  0.1320
 2720DPPE   C4A54500   1.017  14.712  11.857  0.1297 -0.3870  0.1272
 2720DPPE   C1B54501   0.092  14.215  12.387  0.0056  0.3663 -0.2543
 2720DPPE   C2B54502   0.316  14.358  12.110  0.0866  0.0292  0.0872
 2720DPPE   C3B54503   0.452  14.538  11.755 -0.0672  0.0591 -0.0394
 2720DPPE   C4B54504   0.700  14.820  11.508  0.0484 -0.1314 -0.2664
 2721DPPE   NH354505  34.590  19.325  13.624 -0.2149 -0.0973  0.0666
 2721DPPE   PO454506  34.333  19.177  13.161 -0.0722  0.1940  0.2164
 2721DPPE   GL154507  34.582  19.200  12.765  0.0489  0.0515 -0.1613
 2721DPPE   GL254508  34.492  19.475  12.537  0.2534 -0.2386 -0.0592
 2721DPPE   C1A54509  34.883  18.947  12.628 -0.3145 -0.1606 -0.0573
 2721DPPE   C2A54510  35.354  18.777  12.527 -0.1607  0.0715  0.0346
 2721DPPE   C3A54511  35.866  18.655  12.641 -0.5515  0.0786 -0.2512
 2721DPPE   C4A54512  36.262  18.759  12.562  0.0485 -0.3380  0.0821
 2721DPPE   C1B54513  34.827  19.839  12.522  0.2886  0.3394  0.0087
 2721DPPE   C2B54514  35.089  20.083  12.778  0.2887  0.0696 -0.1228
 2721DPPE   C3B54515  35.588  20.146  12.651  0.4401  0.0033  0.1551
 2721DPPE   C4B54516  35.906  20.030  12.295  0.1525 -0.1577 -0.3282
 2722DPPE   NH354517  32.873  21.194  12.118  0.0701 -0.2691 -0.0975
 2722DPPE   PO454518  32.768  21.255  12.602 -0.1723  0.0907  0.1120
 2722DPPE   GL154519  32.477  21.289  12.953  0.1406 -0.1110  0.1081
 2722DPPE   GL254520  32.281  21.261  12.799  0.4528  0.3519 -0.2389
 2722DPPE   C1A54521  32.278  21.240  13.293 -0.3383 -0.2413 -0.2869
 2722DPPE   C2A54522  31.886  21.216  13.478  0.0247  0.0652  0.1616
 2722DPPE   C3A54523  31.519  21.438  13.563  0.0337  0.0089 -0.1105
 2722DPPE   C4A54524  31.181  21.465  13.354 -0.0037  0.2098  0.0276
 2722DPPE   C1B54525  31.892  21.083  12.948 -0.3615 -0.1298 -0.0848
 2722DPPE   C2B54526  31.602  20.847  13.158  0.2574 -0.0594 -0.0792
 2722DPPE   C3B54527  31.190  20.846  13.176 -0.2519  0.1408  0.0547
 2722DPPE   C4B54528  30.793  20.574  13.170  0.2009  0.0183  0.2097
 2723DPPE   NH354529  32.931  20.918  12.979 -0.2245  0.0232  0.1241
 2723DPPE   PO454530  33.132  20.975  13.421  0.1473  0.0285 -0.0281
 2723DPPE   GL154531  32.851  20.858  13.699  0.0023  0.1087  0.2873
 2723DPPE   GL254532  32.861  20.550  13.794  0.0411 -0.1016  0.0037
 2723DPPE   C1A54533  32.370  20.802  13.754  0.0868 -0.1349  0.0698
 2723DPPE   C2A54534  32.063  20.898  14.088  0.1349  0.2059 -0.3796
 2723DPPE   C3A54535  31.625  20.708  14.260  0.0627  0.4313 -0.0349
 2723DPPE   C4A54536  31.605  20.279  14.538  0.0693 -0.0707 -0.3344
 2723DPPE   C1B54537  32.684  20.846  14.187  0.0118 -0.1495  0.0936
 2723DPPE   C2B54538  32.483  21.179  14.229  0.2514  0.1030  0.1560
 2723DPPE   C3B54539  32.208  21.232  14.514 -0.0048  0.0394 -0.1871
 2723DPPE   C4B54540  31.716  21.174  14.503 -0.0065 -0.0034  0.2179
 2724DPPE   NH354541  38.316  15.180  16.781  0.1533  0.0311  0.0781
 2724DPPE   PO454542  38.750  14.971  16.862 -0.0163  0.1856 -0.5129
 2724DPPE   GL154543  38.868  15.346  16.723  0.0379  0.0187  0.1698
 2724DPPE   GL254544  39.008  15.222  16.401  0.1719 -0.4047  0.0059
 2724DPPE   C1A54545  39.013  15.774  16.783 -0.0356  0.1845  0.0147
 2724DPPE   C2A54546  39.376  15.895  17.124  0.2497 -0.0180  0.3493
 2724DPPE   C3A54547  39.552  15.916  17.415  0.0866 -0.2432  0.1068
 2724DPPE   C4A54548  39.804  16.209  17.607 -0.1499 -0.2750  0.0980
 2724DPPE   C1B54549  39.327  15.533  16.408  0.0285 -0.1451  0.2909
 2724DPPE   C2B54550  39.566  15.901  16.589 -0.0610  0.3113 -0.0912
 2724DPPE   C3B54551  39.612  16.267  16.707 -0.1999 -0.1288  0.0660
 2724DPPE   C4B54552  39.182  16.418  16.673  0.1952 -0.1658 -0.1101
 2725DPPE   NH354553  36.364  17.608   5.627 -0.0168 -0.1351  0.2321
 2725DPPE   PO454554  36.227  17.756   6.035  0.0151 -0.3120 -0.2328
 2725DPPE   GL154555  36.535  17.973   6.043  0.0023 -0.3363  0.0722
 2725DPPE   GL254556  36.490  18.224   5.929  0.4795 -0.0776 -0.3262
 2725DPPE   C1A54557  36.947  17.933   6.225  0.2058 -0.3224  0.2087
 2725DPPE   C2A54558  37.315  18.068   6.478  0.2117 -0.0587 -0.0994
 2725DPPE   C3A54559  37.466  18.287   6.846  0.2872  0.2399 -0.4044
 2725DPPE   C4A54560  37.646  18.695   6.940 -0.0603  0.3253  0.1209
 2725DPPE   C1B54561  36.651  18.440   6.160 -0.0748  0.0677 -0.3615
 2725DPPE   C2B54562  36.994  18.498   6.169 -0.3493  0.1227 -0.0460
 2725DPPE   C3B54563  37.410  18.568   6.430 -0.0845 -0.2208 -0.3137
 2725DPPE   C4B54564  37.917  18.747   6.517  0.1581 -0.1244 -0.2860
 2726DPPE   NH354565  36.414  14.812  12.349 -0.3155 -0.2120  0.2089
 2726DPPE   PO454566  36.149  15.091  12.592 -0.5196  0.0616 -0.3586
 2726DPPE   GL154567  36.379  15.313  12.374 -0.2646 -0.1325 -0.0241
 2726DPPE   GL254568  36.592  15.265  12.180  0.1875 -0.0348  0.0166
 2726DPPE   C1A54569  36.316  15.706  12.366 -0.3304  0.0817 -0.0472
 2726DPPE   C2A54570  36.425  16.115  12.329  0.2123  0.2441 -0.0980
 2726DPPE   C3A54571  36.763  16.308  12.328  0.0253 -0.3640  0.1037
 2726DPPE   C4A54572  37.205  16.635  12.360 -0.1230 -0.0589 -0.0649
 2726DPPE   C1B54573  37.022  15.207  11.966 -0.0616 -0.0643 -0.0211
 2726DPPE   C2B54574  37.259  15.572  11.774  0.1036 -0.3630 -0.2463
 2726DPPE   C3B54575  37.626  15.693  11.785  0.1481 -0.2198 -0.0497
 2726DPPE   C4B54576  37.988  15.482  12.050 -0.3279 -0.0494  0.2025
 2727DPPE   NH354577   3.239  10.402  10.897  0.0694 -0.1502 -0.2099
 2727DPPE   PO454578   3.617  10.198  10.757 -0.1487  0.3342  0.0360
 2727DPPE   GL154579   3.333   9.910  11.057  0.1882 -0.0994  0.0217
 2727DPPE   GL254580   3.437  10.092  11.282  0.1106 -0.0836  0.0512
 2727DPPE   C1A54581   3.151   9.615  11.500 -0.1654 -0.2822 -0.0728
 2727DPPE   C2A54582   2.818   9.327  11.501 -0.1337  0.1013  0.2124
 2727DPPE   C3A54583   2.495   9.118  11.696 -0.2495 -0.1194  0.2314
 2727DPPE   C4A54584   2.445   8.796  11.954  0.1354 -0.0415  0.1851
 2727DPPE   C1B54585   3.620   9.774  11.579  0.1045  0.0676 -0.0290
 2727DPPE   C2B54586   3.528   9.444  11.888  0.0378 -0.0259 -0.1623
 2727DPPE   C3B54587   3.282   9.034  11.789 -0.1848  0.2207  0.1377
 2727DPPE   C4B54588   3.193   8.699  11.943  0.1304 -0.0443 -0.1302
 2728DPPE   NH354589   1.249  10.936   6.990 -0.0339  0.0205  0.2913
 2728DPPE   PO454590   0.910  11.056   7.405 -0.0332 -0.3718 -0.0761
 2728DPPE   GL154591   0.873  10.629   7.230  0.0598 -0.3014  0.1620
 2728DPPE   GL254592   0.930  10.426   7.517 -0.2883 -0.4141  0.2096
 2728DPPE   C1A54593   0.845  10.234   6.962 -0.0195  0.4215  0.2059
 2728DPPE   C2A54594   0.749   9.768   7.084  0.0790 -0.3686  0.0251
 2728DPPE   C3A54595   0.819   9.399   7.297  0.2017  0.0858 -0.2911
 2728DPPE   C4A54596   0.683   9.014   7.234  0.1926 -0.0637  0.1048
 2728DPPE   C1B54597   0.813  10.034   7.518 -0.4138 -0.1879 -0.1071
 2728DPPE   C2B54598   0.557   9.732   7.575 -0.0563 -0.1442  0.0556
 2728DPPE   C3B54599   0.481   9.362   7.772  0.1297  0.1131  0.0812
 2728DPPE   C4B54600   0.529   9.028   7.709  0.0824  0.1522  0.0242
 2729DPPE   NH354601  37.993  10.870  11.932 -0.1887 -0.1998  0.1797
 2729DPPE   PO454602  38.272  10.849  11.582 -0.2208 -0.3242  0.1679
 2729DPPE   GL154603  38.151  10.435  11.559  0.1933  0.0182 -0.1667
 2729DPPE   GL254604  37.829  10.417  11.822 -0.2609  0.2631  0.0512
 2729DPPE   C1A54605  38.026  10.052  11.570 -0.2332  0.1994  0.3123
 2729DPPE   C2A54606  37.981   9.603  11.715  0.0732 -0.0383  0.2473
 2729DPPE   C3A54607  37.823   9.421  11.860  0.0796 -0.0133 -0.0671
 2729DPPE   C4A54608  37.530   9.190  11.937  0.0912 -0.0556  0.1391
 2729DPPE   C1B54609  37.580  10.068  11.724  0.1947  0.2476  0.2515
 2729DPPE   C2B54610  37.518   9.855  11.445  0.0247  0.3029  0.0595
 2729DPPE   C3B54611  37.262   9.649  11.193  0.1408  0.0903  0.0571
 2729DPPE   C4B54612  36.942   9.337  11.128 -0.1351 -0.0903 -0.1812
 2730DPPE   NH354613  34.098  22.427  13.009 -0.1207  0.0127 -0.2063
 2730DPPE   PO454614  33.675  22.306  13.056  0.0146  0.2906  0.0122
 2730DPPE   GL154615  33.405  22.561  13.570  0.0751 -0.1015  0.0738
 2730DPPE   GL254616  33.215  22.927  13.544 -0.0777  0.2045  0.1737
 2730DPPE   C1A54617  33.281  22.661  14.038  0.1734 -0.0296  0.3957
 2730DPPE   C2A54618  33.452  22.503  14.473 -0.0063 -0.2669  0.2968
 2730DPPE   C3A54619  33.497  22.460  14.765  0.0899 -0.0869 -0.1561
 2730DPPE   C4A54620  33.631  22.330  15.141  0.0365  0.0529  0.2745
 2730DPPE   C1B54621  33.143  23.203  13.875  0.0210  0.1713  0.1947
 2730DPPE   C2B54622  33.351  23.126  14.281  0.0774  0.2574  0.2501
 2730DPPE   C3B54623  33.720  22.981  14.478 -0.2383 -0.2076 -0.3132
 2730DPPE   C4B54624  33.819  22.847  14.881  0.1384 -0.1595 -0.0296
 2731DPPE   NH354625   1.928  12.275  13.792 -0.0679  0.3310 -0.1865
 2731DPPE   PO454626   2.251  12.408  13.506  0.1686 -0.0244  0.0588
 2731DPPE   GL154627   2.606  12.749  13.523 -0.2907  0.5186 -0.1493
 2731DPPE   GL254628   2.820  12.773  13.849  0.1237  0.2791 -0.2752
 2731DPPE   C1A54629   3.124  12.819  13.473  0.0070 -0.1437  0.1939
 2731DPPE   C2A54630   3.451  13.191  13.627  0.2362 -0.2837 -0.2815
 2731DPPE   C3A54631   3.806  13.373  13.693 -0.2478 -0.2991 -0.0557
 2731DPPE   C4A54632   4.189  13.304  13.882  0.0067 -0.1624  0.4086
 2731DPPE   C1B54633   3.084  13.067  13.924 -0.1511  0.0843 -0.2890
 2731DPPE   C2B54634   3.383  13.263  14.134 -0.2555 -0.1845  0.0173
 2731DPPE   C3B54635   3.811  13.182  14.269  0.0793  0.0124 -0.0185
 2731DPPE   C4B54636   4.302  13.186  14.361 -0.4606 -0.1153 -0.0004
 2732DPPE   NH354637  35.069  16.433  10.718 -0.1575 -0.2275  0.0159
 2732DPPE   PO454638  35.429  16.415  10.353 -0.3583  0.4190 -0.2073
 2732DPPE   GL154639  35.850  16.435  10.268 -0.0089 -0.0857 -0.0087
 2732DPPE   GL254640  36.026  16.415   9.993 -0.0258  0.2438  0.0337
 2732DPPE   C1A54641  36.167  16.659  10.387 -0.0139  0.1307 -0.0463
 2732DPPE   C2A54642  36.514  16.746  10.220  0.5230  0.0009  0.0991
 2732DPPE   C3A54643  36.889  16.861  10.117  0.0184 -0.1512 -0.1590
 2732DPPE   C4A54644  37.296  17.109  10.042  0.0304  0.0775 -0.2700
 2732DPPE   C1B54645  36.463  16.339   9.940  0.2238  0.0579 -0.0667
 2732DPPE   C2B54646  36.914  16.325  10.070 -0.0476 -0.0176  0.0739
 2732DPPE   C3B54647  37.224  16.436  10.292 -0.1907  0.1328 -0.2080
 2732DPPE   C4B54648  37.369  16.812  10.408 -0.1410  0.1149 -0.0886
 2733DPPE   NH354649  33.815  17.855  13.615  0.1139  0.1361 -0.3419
 2733DPPE   PO454650  33.880  17.781  14.120 -0.0198 -0.3009 -0.2466
 2733DPPE   GL154651  33.549  17.673  14.108 -0.1571 -0.1176  0.2093
 2733DPPE   GL254652  33.357  17.676  13.798 -0.0392 -0.4011 -0.2965
 2733DPPE   C1A54653  33.199  17.763  14.257 -0.0298  0.0881  0.0216
 2733DPPE   C2A54654  32.804  17.553  14.327 -0.0433  0.0597 -0.2429
 2733DPPE   C3A54655  32.402  17.603  14.500 -0.3543  0.2191 -0.0615
 2733DPPE   C4A54656  31.991  17.396  14.661  0.1405 -0.0226  0.1628
 2733DPPE   C1B54657  32.909  17.723  13.852  0.0497 -0.0359  0.1029
 2733DPPE   C2B54658  32.466  17.657  13.976 -0.1983  0.4680  0.1081
 2733DPPE   C3B54659  32.097  17.451  14.028  0.1372 -0.0925 -0.0663
 2733DPPE   C4B54660  31.645  17.549  14.066 -0.2948 -0.3095 -0.1117
 2734DPPE   NH354661  36.854  17.804   4.773 -0.1414  0.3255  0.2951
 2734DPPE   PO454662  37.107  17.446   4.503 -0.0699  0.2246  0.3427
 2734DPPE   GL154663  37.441  17.763   4.589 -0.1204  0.1598 -0.1678
 2734DPPE   GL254664  37.277  18.004   4.829  0.0397 -0.0094  0.1560
 2734DPPE   C1A54665  37.693  18.104   4.633 -0.1214 -0.0345 -0.0852
 2734DPPE   C2A54666  38.040  18.312   4.382 -0.4389  0.2113  0.1409
 2734DPPE   C3A54667  38.437  18.206   4.324 -0.1920  0.3091  0.4040
 2734DPPE   C4A54668  38.628  18.112   4.696  0.3915  0.0932  0.2293
 2734DPPE   C1B54669  37.530  18.437   4.932 -0.2139  0.1261  0.1175
 2734DPPE   C2B54670  37.768  18.844   4.962  0.1477  0.1955  0.0159
 2734DPPE   C3B54671  37.957  19.270   4.975  0.0618 -0.0855 -0.3356
 2734DPPE   C4B54672  38.330  19.509   4.808 -0.2358 -0.2500 -0.2438
 2735DPPE   NH354673  35.730  14.941  14.502 -0.2475 -0.1864  0.0473
 2735DPPE   PO454674  36.154  14.604  14.574 -0.0331  0.0666  0.3797
 2735DPPE   GL154675  35.722  14.406  14.495 -0.3564 -0.2409 -0.2543
 2735DPPE   GL254676  35.644  14.084  14.312 -0.3058 -0.2823 -0.2369
 2735DPPE   C1A54677  35.476  14.109  14.783  0.2421  0.2220  0.3904
 2735DPPE   C2A54678  35.206  13.751  14.951 -0.1480 -0.1057  0.2497
 2735DPPE   C3A54679  35.026  13.602  15.170  0.1187  0.1747  0.1807
 2735DPPE   C4A54680  34.851  13.195  15.072 -0.0178  0.0900 -0.2086
 2735DPPE   C1B54681  35.473  13.679  14.520 -0.2301 -0.0574 -0.2774
 2735DPPE   C2B54682  35.520  13.231  14.562 -0.1649 -0.4108  0.0946
 2735DPPE   C3B54683  35.537  12.912  14.383 -0.0293 -0.1178 -0.0211
 2735DPPE   C4B54684  35.272  12.492  14.384  0.0971  0.2081  0.0705
 2736DPPE   NH354685  35.547  15.203  15.039  0.0754 -0.1158  0.1872
 2736DPPE   PO454686  35.496  15.493  15.400  0.2571  0.1051 -0.0061
 2736DPPE   GL154687  35.278  15.257  15.638 -0.0164  0.2072 -0.1094
 2736DPPE   GL254688  35.272  14.992  15.560  0.0685  0.0876 -0.1404
 2736DPPE   C1A54689  35.124  14.846  15.998  0.0036 -0.1364  0.2124
 2736DPPE   C2A54690  34.837  14.608  15.951  0.0108  0.3806 -0.2191
 2736DPPE   C3A54691  34.669  14.125  15.858 -0.0041  0.4840  0.0763
 2736DPPE   C4A54692  34.297  13.744  15.786  0.0439  0.1219  0.1042
 2736DPPE   C1B54693  35.112  14.619  15.292  0.1568  0.0824  0.4561
 2736DPPE   C2B54694  34.812  14.310  15.324 -0.1401  0.0143 -0.2173
 2736DPPE   C3B54695  34.409  14.167  15.437  0.2599 -0.3981 -0.3005
 2736DPPE   C4B54696  34.009  14.196  15.810 -0.0187 -0.0900 -0.0880
 2737DPPE   NH354697   1.214  10.766   7.768  0.1137  0.0699 -0.0758
 2737DPPE   PO454698   1.443  10.455   7.613 -0.1588  0.3508 -0.2558
 2737DPPE   GL154699   1.350  10.055   7.442 -0.2873  0.1125 -0.1055
 2737DPPE   GL254700   1.584   9.961   7.184  0.0682  0.1757 -0.1563
 2737DPPE   C1A54701   1.172   9.755   7.345  0.0159  0.1711 -0.2102
 2737DPPE   C2A54702   1.323   9.344   7.420  0.1152  0.3034  0.1281
 2737DPPE   C3A54703   1.630   9.050   7.577 -0.0416  0.1447 -0.3466
 2737DPPE   C4A54704   1.935   8.810   7.410 -0.0920  0.3568  0.0675
 2737DPPE   C1B54705   1.684   9.545   6.994 -0.3775 -0.2067 -0.0558
 2737DPPE   C2B54706   1.633   9.445   6.605  0.0736  0.1710 -0.0718
 2737DPPE   C3B54707   1.354   9.470   6.225 -0.2992  0.1547  0.1462
 2737DPPE   C4B54708   1.142   9.361   5.880 -0.0121  0.0291 -0.4496
 2738DPPE   NH354709  35.631  14.533   9.797  0.2431 -0.0334  0.0937
 2738DPPE   PO454710  35.371  14.199  10.014 -0.1867 -0.1379  0.0292
 2738DPPE   GL154711  35.149  13.989   9.924  0.4370  0.3253 -0.0562
 2738DPPE   GL254712  34.891  14.265   9.821  0.0219  0.3667  0.1136
 2738DPPE   C1A54713  35.190  13.565   9.815 -0.0729 -0.0651  0.1517
 2738DPPE   C2A54714  35.116  13.084   9.648  0.1296  0.1406 -0.1389
 2738DPPE   C3A54715  34.839  12.717   9.562 -0.0053  0.2203 -0.2220
 2738DPPE   C4A54716  34.664  12.424   9.674 -0.1952  0.3440 -0.3580
 2738DPPE   C1B54717  34.692  13.823   9.861 -0.2522  0.1080  0.0126
 2738DPPE   C2B54718  34.438  13.522   9.529  0.0646 -0.2190 -0.2437
 2738DPPE   C3B54719  34.143  13.116   9.482  0.0317  0.2065  0.1507
 2738DPPE   C4B54720  34.076  12.719   9.458  0.0173  0.3783  0.0170
 2739DPPE   NH354721  34.344  20.584   8.573 -0.0026  0.0576 -0.2224
 2739DPPE   PO454722  34.163  20.618   8.976 -0.3680  0.0857  0.0154
 2739DPPE   GL154723  34.562  20.323   9.234 -0.0269  0.1167 -0.1897
 2739DPPE   GL254724  34.624  20.628   9.386  0.0342 -0.1181  0.0689
 2739DPPE   C1A54725  34.876  20.089   9.042 -0.1569 -0.3382  0.2864
 2739DPPE   C2A54726  35.329  20.254   9.017 -0.1358 -0.1321  0.1180
 2739DPPE   C3A54727  35.620  20.231   9.325 -0.2866 -0.0273  0.3021
 2739DPPE   C4A54728  35.976  20.495   9.389  0.1761 -0.2187  0.0381
 2739DPPE   C1B54729  34.890  20.414   9.558 -0.0302 -0.2070 -0.2019
 2739DPPE   C2B54730  35.311  20.446   9.733 -0.0016 -0.4121 -0.0056
 2739DPPE   C3B54731  35.730  20.500   9.818  0.2967 -0.0775  0.4020
 2739DPPE   C4B54732  36.116  20.388   9.948 -0.0314  0.0460  0.2556
 2740DPPE   NH354733  35.931  17.136   3.756  0.3278  0.0165 -0.0308
 2740DPPE   PO454734  35.867  17.541   3.671  0.2543  0.0751 -0.0746
 2740DPPE   GL154735  35.684  17.393   3.403  0.1113  0.0509 -0.1555
 2740DPPE   GL254736  35.398  17.328   3.627  0.1751  0.4611  0.2336
 2740DPPE   C1A54737  35.373  17.278   3.114 -0.1360  0.0619 -0.0078
 2740DPPE   C2A54738  34.926  16.988   3.078  0.3198 -0.1018  0.1168
 2740DPPE   C3A54739  34.869  16.567   3.000 -0.0827  0.3481 -0.0805
 2740DPPE   C4A54740  34.798  16.319   2.570 -0.1224 -0.2066  0.0088
 2740DPPE   C1B54741  34.932  17.360   3.428  0.1671  0.4302  0.1268
 2740DPPE   C2B54742  34.588  17.167   3.471 -0.1092  0.0757  0.0108
 2740DPPE   C3B54743  34.143  17.332   3.654 -0.0647 -0.0042 -0.2012
 2740DPPE   C4B54744  33.634  17.331   3.682 -0.1512  0.2339 -0.0188
 2741DPPE   NH354745   2.181  11.807   7.486  0.1266  0.0689  0.3453
 2741DPPE   PO454746   1.994  12.122   7.210  0.1277 -0.0883 -0.3070
 2741DPPE   GL154747   2.297  12.289   7.179 -0.0362 -0.0635 -0.1609
 2741DPPE   GL254748   2.348  12.543   7.461 -0.0905  0.1582 -0.1896
 2741DPPE   C1A54749   2.652  12.435   6.980  0.1634  0.1278 -0.2073
 2741DPPE   C2A54750   2.901  12.251   6.794 -0.3211  0.0857  0.0992
 2741DPPE   C3A54751   3.184  12.115   6.584 -0.1723 -0.1499 -0.1174
 2741DPPE   C4A54752   3.448  12.249   6.289  0.0264  0.3267  0.0928
 2741DPPE   C1B54753   2.397  12.973   7.789  0.0104 -0.2122  0.0925
 2741DPPE   C2B54754   2.502  13.382   7.770 -0.0688  0.0317 -0.0101
 2741DPPE   C3B54755   2.563  13.798   7.859  0.0935 -0.1202 -0.2366
 2741DPPE   C4B54756   2.744  14.227   7.773 -0.0378 -0.0663  0.1175
 2742DPPE   NH354757  36.817  13.211  12.228  0.1777 -0.2498  0.2430
 2742DPPE   PO454758  37.204  13.575  12.233  0.2208  0.0246 -0.1858
 2742DPPE   GL154759  37.327  13.828  11.865  0.0289  0.0094  0.0814
 2742DPPE   GL254760  37.490  13.655  11.763 -0.0421 -0.1746 -0.4246
 2742DPPE   C1A54761  37.542  14.176  11.851 -0.1652  0.1677 -0.1294
 2742DPPE   C2A54762  37.821  14.450  11.834 -0.1780  0.1023 -0.0309
 2742DPPE   C3A54763  37.755  14.909  11.987 -0.2263 -0.1323  0.3173
 2742DPPE   C4A54764  37.467  15.161  12.246  0.0906 -0.0368  0.0114
 2742DPPE   C1B54765  37.749  13.845  11.388 -0.0432  0.1719 -0.0373
 2742DPPE   C2B54766  37.944  14.179  11.435 -0.1381 -0.2521  0.1145
 2742DPPE   C3B54767  38.132  14.389  11.198 -0.3910  0.2422 -0.2902
 2742DPPE   C4B54768  38.205  14.715  10.978  0.1391 -0.0052 -0.0004
 2743DPPE   NH354769   0.282  12.852   4.673 -0.1076  0.0749  0.0392
 2743DPPE   PO454770   0.041  13.184   4.810  0.1383  0.2049  0.1373
 2743DPPE   GL154771  -0.259  12.881   4.642  0.2045 -0.1307  0.2110
 2743DPPE   GL254772  -0.122  12.719   4.433 -0.4935  0.4115 -0.4434
 2743DPPE   C1A54773  -0.676  12.619   4.664 -0.0892 -0.0779  0.4281
 2743DPPE   C2A54774  -0.959  12.288   4.641  0.0122 -0.4932  0.2030
 2743DPPE   C3A54775  -1.236  12.124   4.428 -0.0744 -0.3914 -0.3707
 2743DPPE   C4A54776  -1.408  11.854   4.055 -0.3574 -0.2283 -0.0448
 2743DPPE   C1B54777  -0.304  12.250   4.440  0.1086 -0.0989  0.2969
 2743DPPE   C2B54778  -0.451  11.777   4.369  0.1681 -0.3436  0.2299
 2743DPPE   C3B54779  -0.517  11.422   4.143 -0.0530  0.1709  0.3338
 2743DPPE   C4B54780  -0.633  10.992   4.146  0.1778 -0.5023 -0.0646
 2744DPPE   NH354781  36.907  13.644   9.524 -0.1921 -0.1955 -0.1352
 2744DPPE   PO454782  37.226  13.532   9.247  0.1222  0.1782 -0.0850
 2744DPPE   GL154783  37.376  13.929   9.421 -0.1143  0.2868 -0.0808
 2744DPPE   GL254784  37.417  13.992   9.066  0.3278  0.4095  0.1233
 2744DPPE   C1A54785  37.583  14.289   9.448 -0.1199  0.3225 -0.0351
 2744DPPE   C2A54786  37.648  14.778   9.403  0.1488  0.0777  0.0945
 2744DPPE   C3A54787  38.059  15.013   9.302 -0.0628  0.1078 -0.1622
 2744DPPE   C4A54788  38.414  15.219   9.443 -0.0944  0.4448 -0.0651
 2744DPPE   C1B54789  37.656  14.446   8.978 -0.0008  0.1079 -0.0867
 2744DPPE   C2B54790  38.100  14.448   9.293  0.0893 -0.0575  0.0430
 2744DPPE   C3B54791  38.424  14.278   9.572  0.1072 -0.0160 -0.3990
 2744DPPE   C4B54792  38.879  14.246   9.719  0.2381  0.1375  0.0482
 2745DPPE   NH354793  33.951  21.162  14.557  0.1073  0.1430 -0.3003
 2745DPPE   PO454794  34.144  21.108  14.926 -0.1086  0.2382  0.1230
 2745DPPE   GL154795  34.022  21.493  15.098  0.1721  0.0570 -0.0788
 2745DPPE   GL254796  33.775  21.584  14.871 -0.0215 -0.3710  0.0567
 2745DPPE   C1A54797  34.103  21.823  15.462  0.0626  0.1399  0.1293
 2745DPPE   C2A54798  34.085  22.190  15.592 -0.0731 -0.2822 -0.1383
 2745DPPE   C3A54799  34.409  22.510  15.676 -0.0726  0.1227  0.0105
 2745DPPE   C4A54800  34.678  22.811  15.548 -0.0365 -0.0993  0.1585
 2745DPPE   C1B54801  33.650  21.780  15.249 -0.2748 -0.0703 -0.2526
 2745DPPE   C2B54802  33.512  22.157  15.588  0.1088 -0.0767 -0.1247
 2745DPPE   C3B54803  33.124  22.343  15.509 -0.1248  0.1408  0.1215
 2745DPPE   C4B54804  32.632  22.386  15.361  0.0152  0.2004  0.2453
 2746DPPE   NH354805  36.879  12.921  13.845 -0.0790 -0.1426 -0.4166
 2746DPPE   PO454806  36.959  13.094  13.440  0.2248  0.0998 -0.0445
 2746DPPE   GL154807  36.677  12.794  13.412  0.1789 -0.1876  0.0037
 2746DPPE   GL254808  36.278  12.774  13.362 -0.1637 -0.0800  0.2860
 2746DPPE   C1A54809  36.553  12.359  13.536 -0.0425 -0.1457 -0.1570
 2746DPPE   C2A54810  36.266  12.043  13.516  0.1630  0.2237  0.0030
 2746DPPE   C3A54811  35.882  11.995  13.700 -0.2007  0.1141 -0.0154
 2746DPPE   C4A54812  35.558  11.656  13.740 -0.3300  0.4863 -0.1528
 2746DPPE   C1B54813  36.178  12.525  13.205 -0.0477 -0.2443 -0.0458
 2746DPPE   C2B54814  35.814  12.487  13.060  0.0234 -0.0452 -0.2191
 2746DPPE   C3B54815  35.352  12.398  13.170 -0.0483  0.3968 -0.1653
 2746DPPE   C4B54816  35.019  12.205  13.396 -0.2882  0.1458  0.3446
 2747DPPE   NH354817  33.253  20.583   9.223 -0.4285  0.0209 -0.0824
 2747DPPE   PO454818  33.276  20.769   8.835 -0.1164  0.1481  0.1902
 2747DPPE   GL154819  32.805  20.847   8.936 -0.3343 -0.3906  0.0971
 2747DPPE   GL254820  32.807  20.485   9.205  0.2740  0.1402  0.1174
 2747DPPE   C1A54821  32.384  20.969   8.932  0.2439  0.1731  0.1240
 2747DPPE   C2A54822  31.988  21.072   8.958 -0.3965  0.1944  0.0229
 2747DPPE   C3A54823  31.702  21.225   9.271 -0.0337  0.0357  0.0933
 2747DPPE   C4A54824  31.488  20.984   9.559  0.4713  0.0050 -0.1460
 2747DPPE   C1B54825  32.380  20.440   9.200  0.1279 -0.3830 -0.2937
 2747DPPE   C2B54826  31.936  20.303   9.122 -0.0298  0.1773  0.0856
 2747DPPE   C3B54827  31.592  20.189   9.095  0.2458  0.0598 -0.1974
 2747DPPE   C4B54828  31.337  19.862   8.836  0.2387  0.0931 -0.1222
 2748DPPE   NH354829  37.690  15.163  15.552 -0.2321  0.1066 -0.1958
 2748DPPE   PO454830  37.867  14.991  16.004  0.0623  0.0036  0.2049
 2748DPPE   GL154831  38.023  15.396  15.985  0.1668 -0.1634 -0.0435
 2748DPPE   GL254832  38.202  15.343  16.233 -0.1511  0.1286 -0.1614
 2748DPPE   C1A54833  38.286  15.718  15.923  0.1534 -0.2614 -0.1243
 2748DPPE   C2A54834  38.627  16.159  15.859 -0.1258 -0.0279  0.0434
 2748DPPE   C3A54835  39.034  16.418  15.591  0.0521  0.1716 -0.3594
 2748DPPE   C4A54836  39.436  16.505  15.712  0.2445 -0.6057 -0.0913
 2748DPPE   C1B54837  38.557  15.579  16.293 -0.3596  0.2351 -0.2483
 2748DPPE   C2B54838  38.725  15.980  16.365 -0.0357  0.0465 -0.2098
 2748DPPE   C3B54839  38.861  16.440  16.216 -0.3010 -0.1745  0.1084
 2748DPPE   C4B54840  38.651  16.497  16.560  0.1314 -0.3082 -0.2047
 2749DPPE   NH354841  35.917  15.673  14.278  0.1154 -0.0246  0.0863
 2749DPPE   PO454842  35.469  15.441  14.493 -0.1332  0.0293 -0.0558
 2749DPPE   GL154843  35.223  15.197  14.668 -0.0375 -0.0689 -0.1330
 2749DPPE   GL254844  35.001  15.240  14.447  0.2023 -0.2071 -0.2093
 2749DPPE   C1A54845  34.999  14.886  14.861 -0.0109 -0.2426  0.1722
 2749DPPE   C2A54846  34.631  14.665  14.940 -0.1545 -0.1307 -0.0396
 2749DPPE   C3A54847  34.252  14.378  14.964 -0.1787 -0.0284  0.2971
 2749DPPE   C4A54848  33.741  14.273  14.903  0.1028  0.1082  0.1393
 2749DPPE   C1B54849  34.566  15.010  14.576  0.1763 -0.1694 -0.0335
 2749DPPE   C2B54850  34.311  14.830  14.599 -0.1098 -0.0383  0.0265
 2749DPPE   C3B54851  33.874  14.759  14.745  0.1236 -0.1266  0.2443
 2749DPPE   C4B54852  33.463  14.761  15.006  0.0227  0.2637 -0.2670
 2750DPPE   NH354853  33.844  23.685   9.328 -0.1148  0.1360  0.1666
 2750DPPE   PO454854  34.255  23.647   9.351 -0.2756 -0.1521 -0.0406
 2750DPPE   GL154855  34.181  24.040   9.227  0.6424  0.2559 -0.2177
 2750DPPE   GL254856  34.348  24.182   9.261  0.1384 -0.1964 -0.2556
 2750DPPE   C1A54857  33.982  24.511   9.232 -0.0039  0.2150  0.2182
 2750DPPE   C2A54858  33.981  24.806   9.354 -0.0696 -0.1617  0.2663
 2750DPPE   C3A54859  34.194  24.957   9.602  0.0621 -0.3275  0.0383
 2750DPPE   C4A54860  34.644  24.967   9.687 -0.2828  0.0621 -0.1073
 2750DPPE   C1B54861  34.562  24.653   9.197 -0.3317 -0.0210 -0.0884
 2750DPPE   C2B54862  35.051  24.884   9.270  0.1199  0.1638  0.1483
 2750DPPE   C3B54863  35.461  24.965   9.543 -0.1344 -0.4305  0.2381
 2750DPPE   C4B54864  35.386  25.007   9.988 -0.0995 -0.0993 -0.1637
 2751DPPE   NH354865  35.131  21.113   6.665 -0.0780 -0.2538  0.1013
 2751DPPE   PO454866  34.976  20.932   7.061  0.0238 -0.0935 -0.4050
 2751DPPE   GL154867  35.326  20.953   7.372  0.1292 -0.3640  0.1272
 2751DPPE   GL254868  35.084  21.027   7.578  0.1915 -0.0718 -0.2886
 2751DPPE   C1A54869  35.775  20.868   7.442  0.0985 -0.3050 -0.1819
 2751DPPE   C2A54870  36.092  20.651   7.366  0.3402 -0.2577  0.2945
 2751DPPE   C3A54871  36.506  20.708   7.464 -0.2046  0.2883  0.1901
 2751DPPE   C4A54872  36.977  20.809   7.382 -0.4252  0.1064  0.1644
 2751DPPE   C1B54873  35.562  21.159   7.764  0.1043 -0.0378 -0.2139
 2751DPPE   C2B54874  35.964  20.981   7.969  0.2220 -0.4584  0.2803
 2751DPPE   C3B54875  36.426  21.026   7.837  0.1709  0.1908  0.0691
 2751DPPE   C4B54876  36.797  20.947   7.869  0.1061 -0.3346 -0.1650
 2752DPPE   NH354877  37.498  18.284   2.973  0.0198 -0.0390  0.3654
 2752DPPE   PO454878  37.340  18.247   2.632  0.0005  0.0952  0.0778
 2752DPPE   GL154879  37.815  18.473   2.588 -0.3197  0.0714 -0.2791
 2752DPPE   GL254880  38.090  18.299   2.716  0.0245  0.0280  0.0225
 2752DPPE   C1A54881  37.950  18.813   2.344 -0.0048  0.0463 -0.1387
 2752DPPE   C2A54882  37.881  19.243   2.180 -0.1964 -0.0757 -0.3367
 2752DPPE   C3A54883  37.881  19.491   1.811  0.0576  0.2058 -0.0318
 2752DPPE   C4A54884  37.771  19.891   1.643  0.0553 -0.1322 -0.0575
 2752DPPE   C1B54885  38.367  18.125   2.390  0.1516 -0.1433  0.1088
 2752DPPE   C2B54886  38.719  18.094   2.158 -0.2507  0.2112  0.2519
 2752DPPE   C3B54887  39.147  17.933   2.158  0.0474 -0.0750 -0.3807
 2752DPPE   C4B54888  39.507  17.761   2.180  0.1415 -0.1462  0.1729
 2753DPPE   NH354889  36.022  16.638   5.252  0.1689  0.0623  0.2575
 2753DPPE   PO454890  35.615  16.814   5.140  0.0416  0.1854 -0.1562
 2753DPPE   GL154891  35.396  16.783   4.864  0.0885  0.1617 -0.1583
 2753DPPE   GL254892  34.992  16.869   5.031  0.1054 -0.2848  0.0639
 2753DPPE   C1A54893  35.104  16.443   4.756  0.1755 -0.2050 -0.0574
 2753DPPE   C2A54894  34.703  16.298   4.527 -0.0477  0.0456 -0.2135
 2753DPPE   C3A54895  34.450  15.925   4.315 -0.1275  0.0128  0.1436
 2753DPPE   C4A54896  34.492  15.896   3.833  0.0675  0.2933  0.0716
 2753DPPE   C1B54897  34.638  16.803   4.777 -0.2365  0.0519  0.1925
 2753DPPE   C2B54898  34.316  16.673   4.524 -0.0129 -0.3714 -0.3483
 2753DPPE   C3B54899  34.083  16.290   4.540  0.0636  0.2549  0.1078
 2753DPPE   C4B54900  33.954  15.926   4.180 -0.3624 -0.2653 -0.1628
 2754DPPE   NH354901  37.599  15.118   6.639  0.1045 -0.3537  0.1191
 2754DPPE   PO454902  37.523  15.203   6.302  0.0419  0.0402  0.4368
 2754DPPE   GL154903  37.549  15.649   6.492  0.1048 -0.1357  0.0675
 2754DPPE   GL254904  37.684  15.843   6.383 -0.1459  0.2492 -0.2688
 2754DPPE   C1A54905  37.604  15.851   6.961 -0.2321 -0.0510 -0.0817
 2754DPPE   C2A54906  37.882  16.034   7.231  0.1443 -0.0218 -0.0269
 2754DPPE   C3A54907  38.172  16.125   7.502 -0.0359 -0.0387 -0.0458
 2754DPPE   C4A54908  38.246  16.314   7.955 -0.1405  0.2172  0.0882
 2754DPPE   C1B54909  37.615  16.291   6.675 -0.1217 -0.1201  0.1497
 2754DPPE   C2B54910  37.769  16.756   6.743  0.1598  0.0015  0.1230
 2754DPPE   C3B54911  37.906  16.988   7.104 -0.1013  0.2427  0.1792
 2754DPPE   C4B54912  38.304  17.177   7.343 -0.0142 -0.2883  0.1572
 2755DPPE   NH354913  37.640  14.813  17.437  0.0430 -0.2031 -0.1188
 2755DPPE   PO454914  37.583  15.074  17.886  0.3038 -0.2471 -0.0614
 2755DPPE   GL154915  37.333  15.071  18.170 -0.4472 -0.1927 -0.1776
 2755DPPE   GL254916  37.242  14.776  18.255  0.1440 -0.0368  0.0278
 2755DPPE   C1A54917  37.318  15.081  18.709  0.2760 -0.0137  0.0094
 2755DPPE   C2A54918  37.295  14.887  19.023  0.1239  0.0112 -0.1763
 2755DPPE   C3A54919  37.252  14.798  19.374 -0.0125 -0.0607 -0.2370
 2755DPPE   C4A54920  36.945  14.822  19.661  0.0906  0.0649  0.0476
 2755DPPE   C1B54921  36.929  14.668  18.543  0.0638 -0.1126  0.2859
 2755DPPE   C2B54922  36.891  14.490  18.940  0.1373  0.1471  0.1841
 2755DPPE   C3B54923  36.665  14.555  19.338 -0.1116  0.1537 -0.1979
 2755DPPE   C4B54924  36.992  14.351  19.737 -0.1853 -0.0271 -0.2164
 2756DPPE   NH354925  35.091  17.660   4.562 -0.1997  0.0068  0.2258
 2756DPPE   PO454926  35.054  18.052   4.767  0.0602 -0.3730 -0.1677
 2756DPPE   GL154927  34.647  18.013   4.515  0.1111 -0.3683  0.1685
 2756DPPE   GL254928  34.681  17.885   4.095 -0.0175  0.3892  0.1664
 2756DPPE   C1A54929  34.270  18.130   4.288 -0.1056 -0.0442  0.0082
 2756DPPE   C2A54930  33.954  17.979   4.041  0.5033  0.1667 -0.2594
 2756DPPE   C3A54931  33.953  17.784   3.671 -0.1057 -0.2079 -0.4896
 2756DPPE   C4A54932  34.210  17.758   3.192 -0.0093 -0.3705 -0.1695
 2756DPPE   C1B54933  34.333  17.525   4.171 -0.1395  0.1270  0.0645
 2756DPPE   C2B54934  33.887  17.418   4.095 -0.1697 -0.2595 -0.1064
 2756DPPE   C3B54935  33.514  17.746   3.980  0.1221 -0.0476 -0.0152
 2756DPPE   C4B54936  33.107  17.795   3.825 -0.3492 -0.0561  0.3932
 2757DPPE   NH354937   0.731  16.256   3.033 -0.0210  0.1713  0.0818
 2757DPPE   PO454938   0.754  16.012   3.462 -0.1300 -0.0056 -0.1850
 2757DPPE   GL154939   1.191  15.915   3.404  0.1327 -0.0459  0.0900
 2757DPPE   GL254940   1.209  16.056   3.130  0.3071  0.2889  0.1401
 2757DPPE   C1A54941   1.657  15.965   3.545  0.1079  0.0911 -0.0679
 2757DPPE   C2A54942   2.053  16.118   3.794 -0.1252 -0.0837 -0.1032
 2757DPPE   C3A54943   2.288  16.400   3.897  0.4285 -0.0660  0.2590
 2757DPPE   C4A54944   2.126  16.758   3.806  0.1857  0.2883 -0.4137
 2757DPPE   C1B54945   1.612  16.253   3.011  0.1857 -0.1407  0.1871
 2757DPPE   C2B54946   1.971  16.495   2.836  0.0016 -0.0565  0.2381
 2757DPPE   C3B54947   2.268  16.563   2.517  0.1303 -0.2766 -0.0418
 2757DPPE   C4B54948   2.552  16.191   2.426  0.1180 -0.0396  0.0126
 2758DPPE   NH354949  33.876  16.720  10.574 -0.1329 -0.0217 -0.2644
 2758DPPE   PO454950  33.770  17.209  10.585  0.0123 -0.2061 -0.0491
 2758DPPE   GL154951  33.351  17.106  10.329 -0.2386 -0.1468 -0.0484
 2758DPPE   GL254952  33.281  16.773  10.237 -0.1939 -0.0331 -0.0825
 2758DPPE   C1A54953  32.889  17.149  10.463 -0.0011  0.0579 -0.1354
 2758DPPE   C2A54954  32.492  17.209  10.521  0.1458 -0.0072  0.1162
 2758DPPE   C3A54955  32.147  17.100  10.849  0.4501  0.2223 -0.1395
 2758DPPE   C4A54956  31.838  17.046  11.144  0.0757  0.2425  0.2385
 2758DPPE   C1B54957  32.903  16.628  10.517 -0.1667  0.2819  0.0408
 2758DPPE   C2B54958  32.378  16.687  10.647 -0.0735  0.0616 -0.2169
 2758DPPE   C3B54959  31.958  16.508  10.587  0.0242 -0.3261  0.0478
 2758DPPE   C4B54960  31.512  16.215  10.799  0.1389  0.0487  0.3398
 2759DPPE   NH354961   1.235  10.574   8.972  0.0358  0.0244  0.0536
 2759DPPE   PO454962   1.561  10.527   9.299 -0.0438  0.3162  0.2769
 2759DPPE   GL154963   1.350  10.112   9.403  0.3878  0.0575 -0.0236
 2759DPPE   GL254964   1.230  10.079   9.132  0.1359  0.0338  0.1909
 2759DPPE   C1A54965   1.396   9.634   9.542 -0.0804 -0.2849 -0.3140
 2759DPPE   C2A54966   1.217   9.250   9.558 -0.0751 -0.2374 -0.2059
 2759DPPE   C3A54967   1.203   8.781   9.515  0.2686  0.1058 -0.0438
 2759DPPE   C4A54968   1.115   8.400   9.486 -0.1086 -0.2044  0.1399
 2759DPPE   C1B54969   0.989   9.657   9.233 -0.2837  0.0910 -0.0129
 2759DPPE   C2B54970   0.899   9.261   9.117  0.0480 -0.0055  0.0771
 2759DPPE   C3B54971   0.526   8.956   8.984 -0.2212  0.1922  0.0760
 2759DPPE   C4B54972   0.245   8.596   9.106  0.0418 -0.0638  0.2746
 2760DPPE   NH354973  35.908  28.246  13.951 -0.1080  0.0238  0.0987
 2760DPPE   PO454974  35.609  27.968  13.949 -0.0343 -0.1497  0.3469
 2760DPPE   GL154975  35.881  27.827  13.589  0.2043 -0.0718  0.2016
 2760DPPE   GL254976  35.873  28.014  13.293  0.0268 -0.1056 -0.1962
 2760DPPE   C1A54977  36.123  27.557  13.407  0.1183  0.1669  0.0230
 2760DPPE   C2A54978  36.524  27.630  13.399  0.0436  0.0312  0.2999
 2760DPPE   C3A54979  36.878  27.507  13.414  0.2189 -0.1962  0.0212
 2760DPPE   C4A54980  37.324  27.513  13.444 -0.0979  0.1526  0.1442
 2760DPPE   C1B54981  35.842  27.733  12.978  0.2096 -0.2869 -0.3561
 2760DPPE   C2B54982  35.976  27.410  12.867 -0.0623  0.1750 -0.3045
 2760DPPE   C3B54983  36.142  27.101  12.592  0.0559  0.3292 -0.1529
 2760DPPE   C4B54984  36.215  26.709  12.508  0.0521  0.1448  0.2792
 2761DPPE   NH354985  33.978  14.141  20.155 -0.0656 -0.0359 -0.1692
 2761DPPE   PO454986  34.436  14.113  20.381  0.1864  0.0759 -0.0081
 2761DPPE   GL154987  34.436  14.280  20.068 -0.0866  0.1193  0.0751
 2761DPPE   GL254988  34.176  14.461  19.727 -0.0594  0.1765 -0.0514
 2761DPPE   C1A54989  34.747  14.473  19.921  0.2207  0.1035 -0.1395
 2761DPPE   C2A54990  35.007  14.791  20.013 -0.0271 -0.0324 -0.1699
 2761DPPE   C3A54991  35.147  15.210  20.098 -0.0617 -0.2854  0.3366
 2761DPPE   C4A54992  34.996  15.623  20.313 -0.1449  0.1098  0.3777
 2761DPPE   C1B54993  34.193  14.786  19.380 -0.1286  0.1245  0.2941
 2761DPPE   C2B54994  34.376  15.223  19.272 -0.0170  0.0706 -0.0825
 2761DPPE   C3B54995  34.673  15.506  19.196  0.2046  0.1470  0.0816
 2761DPPE   C4B54996  34.970  15.838  19.313 -0.4471  0.0841  0.1499
 2762DPPE   NH354997  30.058  17.311   6.015 -0.2564 -0.0376 -0.0281
 2762DPPE   PO454998  30.187  17.677   6.247 -0.1814  0.1102 -0.0037
 2762DPPE   GL154999  30.528  17.773   6.525 -0.1914 -0.0768  0.1515
 2762DPPE   GL255000  30.570  17.556   6.698  0.2024 -0.0055 -0.0495
 2762DPPE   C1A55001  30.949  17.829   6.796 -0.2867 -0.4565 -0.1372
 2762DPPE   C2A55002  31.167  18.009   7.189 -0.3609 -0.1464 -0.0448
 2762DPPE   C3A55003  31.339  18.085   7.552 -0.1769  0.0598 -0.2722
 2762DPPE   C4A55004  31.510  18.397   7.676 -0.2466  0.0652 -0.2724
 2762DPPE   C1B55005  31.007  17.480   6.448 -0.0750  0.1145 -0.1806
 2762DPPE   C2B55006  31.333  17.387   6.377  0.1192  0.0798 -0.3288
 2762DPPE   C3B55007  31.619  17.657   6.347  0.0428 -0.0236 -0.1415
 2762DPPE   C4B55008  31.912  17.947   6.369  0.4576  0.1790  0.0754
 2763DPPE   NH355009   3.199  17.026  13.829  0.1059 -0.0398 -0.1817
 2763DPPE   PO455010   2.794  17.102  13.701 -0.0840 -0.0232  0.1510
 2763DPPE   GL155011   2.508  16.792  13.917 -0.1953 -0.1042  0.0661
 2763DPPE   GL255012   2.437  16.795  14.165  0.0684 -0.0332  0.0731
 2763DPPE   C1A55013   2.200  16.611  13.761 -0.2998 -0.0309  0.1847
 2763DPPE   C2A55014   1.873  16.724  13.567 -0.4119  0.0133  0.1253
 2763DPPE   C3A55015   1.524  16.549  13.499 -0.0814 -0.0748  0.2488
 2763DPPE   C4A55016   1.139  16.428  13.731  0.0945  0.1454 -0.2055
 2763DPPE   C1B55017   2.324  16.367  14.275 -0.0659  0.2784  0.1752
 2763DPPE   C2B55018   1.991  16.224  14.237  0.1820 -0.1063  0.1548
 2763DPPE   C3B55019   1.722  15.868  14.062  0.2879  0.2931 -0.2712
 2763DPPE   C4B55020   1.404  15.957  13.831 -0.4525 -0.2173 -0.0810
 2764DPPE   NH355021   0.562  19.626   8.145  0.0396  0.1346  0.2327
 2764DPPE   PO455022   0.606  19.554   8.595  0.0669 -0.5487 -0.1411
 2764DPPE   GL155023   0.229  19.588   8.568 -0.1966  0.2004  0.2839
 2764DPPE   GL255024   0.143  19.377   8.428 -0.1151  0.0919  0.1557
 2764DPPE   C1A55025  -0.218  19.691   8.419 -0.2301 -0.0842 -0.1181
 2764DPPE   C2A55026  -0.661  19.702   8.668 -0.1197  0.3104  0.1023
 2764DPPE   C3A55027  -1.099  19.876   8.526  0.1232 -0.3117  0.0134
 2764DPPE   C4A55028  -1.508  19.775   8.599 -0.0736  0.2186 -0.4123
 2764DPPE   C1B55029  -0.015  19.416   7.997 -0.0043 -0.0218  0.1123
 2764DPPE   C2B55030  -0.344  19.445   7.779  0.0602  0.0912 -0.1344
 2764DPPE   C3B55031  -0.711  19.233   7.725 -0.1873  0.1464  0.1576
 2764DPPE   C4B55032  -0.879  18.832   7.684 -0.0194  0.3748 -0.0481
 2765DPPE   NH355033   1.131  17.357  11.897  0.0461  0.0601  0.3084
 2765DPPE   PO455034   1.074  17.474  12.344  0.1038 -0.1780  0.1216
 2765DPPE   GL155035   0.665  17.175  12.182  0.1102 -0.1588 -0.0557
 2765DPPE   GL255036   0.618  17.226  11.783  0.0516  0.1177 -0.1677
 2765DPPE   C1A55037   0.231  16.985  12.091 -0.0840  0.0787  0.1786
 2765DPPE   C2A55038  -0.162  16.940  12.006 -0.3115 -0.0321 -0.0357
 2765DPPE   C3A55039  -0.578  16.815  12.113 -0.1850 -0.0754  0.1931
 2765DPPE   C4A55040  -0.721  16.447  12.265  0.0471 -0.0967 -0.0755
 2765DPPE   C1B55041   0.157  17.126  11.589  0.1855  0.1758  0.1243
 2765DPPE   C2B55042  -0.123  16.845  11.454  0.1860 -0.3139  0.0095
 2765DPPE   C3B55043  -0.457  16.787  11.201 -0.0424  0.4434 -0.2448
 2765DPPE   C4B55044  -0.498  16.359  11.062  0.1045  0.0440  0.2052
 2766DPPE   NH355045   0.350  18.552  12.312  0.5613  0.1091  0.0920
 2766DPPE   PO455046   0.229  18.838  12.510 -0.3403  0.2827 -0.1254
 2766DPPE   GL155047  -0.228  18.843  12.500  0.2609 -0.2283 -0.0734
 2766DPPE   GL255048  -0.247  18.533  12.358 -0.1556 -0.2024 -0.0469
 2766DPPE   C1A55049  -0.689  18.862  12.540  0.1167  0.0778  0.0717
 2766DPPE   C2A55050  -0.937  18.789  12.841  0.3224 -0.0797 -0.2068
 2766DPPE   C3A55051  -1.249  18.854  12.990  0.2666 -0.2659  0.0290
 2766DPPE   C4A55052  -1.406  18.956  13.399  0.2687 -0.0822 -0.1581
 2766DPPE   C1B55053  -0.482  18.350  12.542  0.0195  0.1997  0.2318
 2766DPPE   C2B55054  -0.870  18.180  12.693  0.0593 -0.4109 -0.0235
 2766DPPE   C3B55055  -1.126  18.064  13.007  0.0217 -0.1536  0.0184
 2766DPPE   C4B55056  -1.401  17.985  13.506  0.1666 -0.3172  0.0239
 2767DPPE   NH355057   2.253  19.493  16.982 -0.0214 -0.1859 -0.0544
 2767DPPE   PO455058   1.735  19.661  16.862 -0.3162 -0.1482 -0.0796
 2767DPPE   GL155059   1.334  19.536  17.178 -0.0357 -0.3390 -0.2784
 2767DPPE   GL255060   1.309  19.450  17.494 -0.0357 -0.1441  0.1268
 2767DPPE   C1A55061   0.974  19.850  17.372 -0.0074 -0.2996  0.1772
 2767DPPE   C2A55062   0.573  19.776  17.592 -0.1764  0.3416  0.0942
 2767DPPE   C3A55063   0.274  19.637  17.875 -0.0615 -0.1061  0.1475
 2767DPPE   C4A55064  -0.106  19.845  18.108 -0.0173  0.0027  0.1148
 2767DPPE   C1B55065   0.881  19.347  17.468 -0.0735  0.2793  0.0108
 2767DPPE   C2B55066   0.656  19.255  17.862 -0.0151 -0.2367  0.2592
 2767DPPE   C3B55067   0.709  19.317  18.303 -0.1106 -0.3418  0.1047
 2767DPPE   C4B55068   0.785  19.235  18.630 -0.1764  0.0464  0.1365
 2768DPPE   NH355069   4.976  15.273   4.947 -0.1731 -0.2521  0.1787
 2768DPPE   PO455070   4.929  14.987   4.608 -0.1461 -0.0094 -0.0911
 2768DPPE   GL155071   4.816  14.793   4.363 -0.2668  0.0862  0.2346
 2768DPPE   GL255072   4.853  15.026   4.066  0.1123  0.1533 -0.2164
 2768DPPE   C1A55073   4.796  14.398   4.125 -0.1294 -0.0229 -0.0579
 2768DPPE   C2A55074   4.781  14.009   3.875  0.0129 -0.0182  0.1109
 2768DPPE   C3A55075   4.591  13.846   3.569 -0.0435  0.3079 -0.0731
 2768DPPE   C4A55076   4.531  13.628   3.244  0.0282 -0.3652 -0.3255
 2768DPPE   C1B55077   4.519  14.718   3.876 -0.0759  0.0888 -0.0850
 2768DPPE   C2B55078   4.531  14.354   3.596 -0.1280 -0.1540 -0.0430
 2768DPPE   C3B55079   4.511  14.199   3.199 -0.2612 -0.3077  0.0253
 2768DPPE   C4B55080   4.461  13.882   2.848  0.2849  0.1649 -0.1148
 2769DPPE   NH355081  31.855  15.617  18.140  0.1544 -0.1038 -0.3059
 2769DPPE   PO455082  31.834  16.104  18.287  0.0726 -0.0474 -0.1729
 2769DPPE   GL155083  32.162  16.141  17.974  0.0442 -0.4090  0.0298
 2769DPPE   GL255084  31.883  15.948  17.810  0.0237  0.1452  0.1615
 2769DPPE   C1A55085  32.321  16.517  17.721  0.1193  0.1454 -0.3353
 2769DPPE   C2A55086  32.679  16.783  17.584  0.2561 -0.0376 -0.0614
 2769DPPE   C3A55087  32.944  16.991  17.347  0.1430 -0.1210  0.0594
 2769DPPE   C4A55088  33.169  16.927  17.100 -0.0441 -0.3934  0.1604
 2769DPPE   C1B55089  32.060  16.085  17.411  0.1076 -0.0113  0.1596
 2769DPPE   C2B55090  31.995  16.158  16.972  0.3080  0.0567 -0.1726
 2769DPPE   C3B55091  32.258  16.415  16.772  0.1878  0.1430  0.2370
 2769DPPE   C4B55092  32.647  16.565  16.553 -0.0053 -0.1662  0.4047
 2770DPPE   NH355093   6.580  15.301   3.568  0.2059  0.0091 -0.0612
 2770DPPE   PO455094   6.492  15.090   3.901  0.2567 -0.3831 -0.0766
 2770DPPE   GL155095   6.536  14.773   3.540  0.0720 -0.2023  0.0506
 2770DPPE   GL255096   6.599  14.896   3.253 -0.0099  0.0443 -0.0577
 2770DPPE   C1A55097   6.681  14.350   3.379  0.1309 -0.0001  0.0325
 2770DPPE   C2A55098   6.728  13.949   3.430  0.0985 -0.0133  0.1057
 2770DPPE   C3A55099   6.470  13.556   3.291  0.2774  0.0071 -0.0371
 2770DPPE   C4A55100   6.172  13.261   3.348 -0.4648 -0.2082  0.2338
 2770DPPE   C1B55101   6.749  14.613   2.980 -0.3023  0.2855 -0.1563
 2770DPPE   C2B55102   6.735  14.190   2.939  0.1621  0.0779 -0.3350
 2770DPPE   C3B55103   7.065  14.018   3.088  0.2468 -0.3779 -0.2868
 2770DPPE   C4B55104   6.998  13.625   3.199 -0.0530 -0.3843 -0.2141
 2771DPPE   NH355105   0.037  20.396   9.269 -0.0168  0.0422  0.0177
 2771DPPE   PO455106   0.058  19.994   9.531 -0.0980 -0.1160 -0.0882
 2771DPPE   GL155107  -0.358  19.903   9.470  0.0761  0.3405 -0.1504
 2771DPPE   GL255108  -0.355  20.099   9.186 -0.1635 -0.1414  0.2993
 2771DPPE   C1A55109  -0.769  19.915   9.484  0.0389 -0.0066 -0.4040
 2771DPPE   C2A55110  -1.169  19.522   9.483 -0.0728  0.0399 -0.0956
 2771DPPE   C3A55111  -1.507  19.763   9.563 -0.1749  0.1786 -0.1058
 2771DPPE   C4A55112  -1.921  19.764   9.719  0.0421  0.2445  0.1384
 2771DPPE   C1B55113  -0.682  20.414   9.343  0.0540 -0.0583 -0.1123
 2771DPPE   C2B55114  -1.115  20.515   9.387 -0.1706 -0.0584  0.1400
 2771DPPE   C3B55115  -1.525  20.412   9.277 -0.3135  0.0845 -0.2349
 2771DPPE   C4B55116  -1.883  20.065   9.168 -0.2359  0.0886  0.0556
 2772DPPE   NH355117  35.384   8.539  13.351 -0.0189  0.0357 -0.0544
 2772DPPE   PO455118  35.252   8.519  12.939 -0.0430 -0.1698  0.0957
 2772DPPE   GL155119  35.162   8.929  13.110 -0.0963 -0.0334 -0.0412
 2772DPPE   GL255120  35.481   9.023  12.845  0.2842  0.2488 -0.3882
 2772DPPE   C1A55121  35.514   9.276  13.306  0.1191  0.0545  0.2488
 2772DPPE   C2A55122  35.388   9.590  13.545 -0.0783 -0.2298 -0.1052
 2772DPPE   C3A55123  35.447   9.713  13.965  0.1001 -0.2805  0.1404
 2772DPPE   C4A55124  35.350   9.841  14.401  0.0321 -0.1818  0.1360
 2772DPPE   C1B55125  35.635   9.435  12.795  0.1001 -0.2707 -0.1696
 2772DPPE   C2B55126  35.778   9.868  12.865 -0.2606  0.1306  0.0634
 2772DPPE   C3B55127  35.827  10.308  12.715  0.0098  0.3113 -0.2704
 2772DPPE   C4B55128  35.572  10.681  12.607 -0.0388  0.1371 -0.0034
 2773DPPE   NH355129   3.866  15.993   8.522  0.2604 -0.0368  0.1879
 2773DPPE   PO455130   3.379  15.890   8.643  0.1611 -0.3362  0.1587
 2773DPPE   GL155131   3.222  15.458   8.465 -0.2360 -0.2324  0.0546
 2773DPPE   GL255132   3.046  15.569   8.160  0.0850  0.2000  0.1343
 2773DPPE   C1A55133   2.986  15.178   8.603  0.2243  0.1298  0.0783
 2773DPPE   C2A55134   2.679  14.948   8.463 -0.0405 -0.1043 -0.0542
 2773DPPE   C3A55135   2.362  14.799   8.814  0.1645 -0.2024  0.0592
 2773DPPE   C4A55136   2.108  14.669   9.229 -0.2630 -0.1452  0.1196
 2773DPPE   C1B55137   2.550  15.422   8.206  0.0216  0.0652  0.2013
 2773DPPE   C2B55138   2.179  15.257   8.023 -0.0148 -0.0146  0.1823
 2773DPPE   C3B55139   1.769  15.225   7.975  0.3035 -0.0288 -0.1384
 2773DPPE   C4B55140   1.364  14.990   7.950 -0.0648 -0.0561  0.2187
 2774DPPE   NH355141   3.549  16.941   5.133  0.1256 -0.0432 -0.0513
 2774DPPE   PO455142   3.254  17.073   5.405 -0.0626  0.1292 -0.3002
 2774DPPE   GL155143   2.934  17.089   5.309  0.0309  0.1454 -0.2278
 2774DPPE   GL255144   2.773  16.790   5.442 -0.0380 -0.0686 -0.1027
 2774DPPE   C1A55145   2.603  17.283   5.186 -0.0732 -0.2219  0.2444
 2774DPPE   C2A55146   2.306  17.629   5.068 -0.4084  0.4528  0.1885
 2774DPPE   C3A55147   1.968  17.681   4.801  0.1310 -0.0314 -0.0613
 2774DPPE   C4A55148   1.574  17.962   4.624 -0.2421 -0.3561  0.0323
 2774DPPE   C1B55149   2.475  16.619   5.158  0.2300  0.2427  0.1689
 2774DPPE   C2B55150   2.196  16.512   4.782  0.0210  0.3509 -0.1076
 2774DPPE   C3B55151   2.222  16.299   4.376 -0.0298  0.0710 -0.0562
 2774DPPE   C4B55152   2.460  16.024   4.131 -0.0776  0.0096 -0.1605
 2775DPPE   NH355153   1.115   7.495   4.572  0.2672  0.0588  0.0500
 2775DPPE   PO455154   1.437   7.510   4.811 -0.0876 -0.0813 -0.1594
 2775DPPE   GL155155   1.252   7.819   5.053  0.0132 -0.2102 -0.2169
 2775DPPE   GL255156   1.353   7.881   5.282  0.0361 -0.0854 -0.1346
 2775DPPE   C1A55157   0.873   8.001   5.293 -0.4262 -0.0841 -0.0118
 2775DPPE   C2A55158   0.527   7.917   5.476 -0.0791  0.0068 -0.0805
 2775DPPE   C3A55159   0.411   8.149   5.894  0.1063  0.0531  0.0780
 2775DPPE   C4A55160   0.519   8.591   6.105  0.1590  0.0576 -0.0184
 2775DPPE   C1B55161   1.234   7.965   5.775 -0.1642  0.0331  0.2603
 2775DPPE   C2B55162   1.412   8.310   6.046  0.0275  0.0676  0.2334
 2775DPPE   C3B55163   1.295   8.539   6.328  0.1425 -0.1389 -0.0878
 2775DPPE   C4B55164   1.293   8.628   6.655  0.0760  0.2472  0.1136
 2776DPPE   NH355165  14.108  11.853   8.967 -0.1712 -0.1715  0.1945
 2776DPPE   PO455166  14.501  12.022   9.351 -0.0624  0.0272 -0.2467
 2776DPPE   GL155167  14.401  12.240   9.049 -0.0051 -0.3222 -0.2136
 2776DPPE   GL255168  14.602  12.591   9.069 -0.2309 -0.0145 -0.0867
 2776DPPE   C1A55169  14.069  12.652   8.937 -0.2770 -0.1267  0.1471
 2776DPPE   C2A55170  13.669  12.940   8.894 -0.1056  0.0261  0.2817
 2776DPPE   C3A55171  13.723  13.361   8.915  0.1173  0.1884  0.0835
 2776DPPE   C4A55172  13.718  13.760   8.717 -0.2663 -0.2277 -0.1121
 2776DPPE   C1B55173  14.553  12.899   8.828 -0.1055 -0.0731  0.1535
 2776DPPE   C2B55174  14.362  13.214   8.964 -0.0130  0.2543  0.0762
 2776DPPE   C3B55175  14.198  13.549   8.916  0.0542 -0.0076 -0.1281
 2776DPPE   C4B55176  14.090  13.844   9.126 -0.0970  0.1112  0.0357
 2777DPPE   NH355177  34.014  19.614   6.400 -0.1655  0.2552  0.0813
 2777DPPE   PO455178  34.376  19.362   6.747 -0.1135 -0.0921 -0.0859
 2777DPPE   GL155179  33.907  19.212   6.695 -0.0716 -0.2906 -0.0565
 2777DPPE   GL255180  33.654  19.421   6.650  0.0557 -0.3246  0.1799
 2777DPPE   C1A55181  33.571  18.911   6.550  0.0815  0.0551 -0.0291
 2777DPPE   C2A55182  33.198  18.875   6.398 -0.1189 -0.0765 -0.2349
 2777DPPE   C3A55183  32.696  18.952   6.638 -0.0748  0.1618 -0.1446
 2777DPPE   C4A55184  32.274  18.766   6.466 -0.1210  0.4342 -0.1546
 2777DPPE   C1B55185  33.369  19.184   6.884  0.2301 -0.1873 -0.0055
 2777DPPE   C2B55186  32.949  19.358   6.842 -0.1370 -0.0006 -0.2932
 2777DPPE   C3B55187  32.615  19.452   6.752 -0.3674  0.3228 -0.0746
 2777DPPE   C4B55188  32.364  19.345   6.420 -0.2494  0.0502 -0.0100
 2778DPPE   NH355189  33.968  17.833  12.965  0.3216  0.0288  0.1004
 2778DPPE   PO455190  33.612  17.775  13.155  0.0533  0.2235 -0.2622
 2778DPPE   GL155191  33.329  17.431  13.382 -0.1770  0.1265  0.2175
 2778DPPE   GL255192  33.495  17.092  13.348 -0.0820 -0.1240  0.1807
 2778DPPE   C1A55193  33.040  17.245  13.694  0.1470 -0.4912 -0.1602
 2778DPPE   C2A55194  32.537  17.139  13.953 -0.2653 -0.0272 -0.0886
 2778DPPE   C3A55195  32.267  16.725  14.082  0.0226 -0.0165  0.6226
 2778DPPE   C4A55196  32.142  16.325  13.936 -0.0154 -0.0187 -0.1678
 2778DPPE   C1B55197  32.968  17.002  13.299  0.0776 -0.1419  0.0383
 2778DPPE   C2B55198  32.539  16.841  13.409  0.0122  0.0965  0.2206
 2778DPPE   C3B55199  32.240  16.608  13.519  0.1746 -0.0939 -0.3443
 2778DPPE   C4B55200  31.785  16.628  13.659  0.1272 -0.2972 -0.1676
 2779DPPE   NH355201  37.396  12.168  12.174 -0.0818  0.3146 -0.0509
 2779DPPE   PO455202  37.571  11.879  12.452  0.0630 -0.2128  0.1509
 2779DPPE   GL155203  37.094  11.796  12.450 -0.0241  0.5545  0.1831
 2779DPPE   GL255204  37.008  11.837  12.120 -0.0419 -0.1347 -0.0368
 2779DPPE   C1A55205  36.905  11.551  12.526 -0.3503  0.0711 -0.1292
 2779DPPE   C2A55206  36.544  11.479  12.770 -0.2414 -0.1200  0.0093
 2779DPPE   C3A55207  36.139  11.424  12.914 -0.1416  0.2301  0.4727
 2779DPPE   C4A55208  35.712  11.432  13.193 -0.0554 -0.0583 -0.0285
 2779DPPE   C1B55209  36.546  11.703  12.241  0.0059 -0.0577  0.0782
 2779DPPE   C2B55210  36.198  11.508  12.314  0.0216 -0.0591 -0.3203
 2779DPPE   C3B55211  35.889  11.197  12.150  0.3534  0.1771  0.1062
 2779DPPE   C4B55212  35.512  10.953  12.010 -0.0280  0.1148 -0.2445
 2780DPPE   NH355213  33.202  19.157  13.187 -0.0369 -0.4399 -0.0359
 2780DPPE   PO455214  33.092  19.402  12.715 -0.1755 -0.1377  0.0162
 2780DPPE   GL155215  32.752  19.806  12.678 -0.4910 -0.0982 -0.0298
 2780DPPE   GL255216  32.484  19.974  12.538  0.1257 -0.4500  0.3693
 2780DPPE   C1A55217  32.257  19.626  12.830  0.2731  0.1602 -0.2325
 2780DPPE   C2A55218  31.975  19.321  12.798 -0.0580 -0.2875 -0.2229
 2780DPPE   C3A55219  31.693  19.250  12.960 -0.2815  0.0684  0.4860
 2780DPPE   C4A55220  31.691  19.170  13.354 -0.2051  0.0512  0.0622
 2780DPPE   C1B55221  32.081  20.007  12.530 -0.0173 -0.4141 -0.0329
 2780DPPE   C2B55222  31.755  19.775  12.461 -0.1976  0.3703 -0.0344
 2780DPPE   C3B55223  31.358  19.569  12.541 -0.0084 -0.1072  0.4953
 2780DPPE   C4B55224  31.229  19.238  12.698  0.1663  0.0328 -0.1183
 2781DPPE   NH355225   2.172  12.172  12.830 -0.4177 -0.0229 -0.0864
 2781DPPE   PO455226   2.132  11.825  12.453  0.2093 -0.1737  0.0367
 2781DPPE   GL155227   2.492  12.041  12.480 -0.0891 -0.0088  0.0295
 2781DPPE   GL255228   2.650  12.000  12.775 -0.1770  0.0002 -0.2241
 2781DPPE   C1A55229   3.006  12.177  12.410  0.0105  0.1586  0.2618
 2781DPPE   C2A55230   3.319  12.091  12.169 -0.1052 -0.1554  0.1957
 2781DPPE   C3A55231   3.612  11.604  12.281  0.1441  0.0777 -0.0740
 2781DPPE   C4A55232   3.832  11.267  12.546 -0.2297  0.2713  0.2065
 2781DPPE   C1B55233   2.705  12.486  12.587 -0.1205  0.2852  0.0986
 2781DPPE   C2B55234   2.911  12.630  12.218  0.0549 -0.0631  0.4004
 2781DPPE   C3B55235   3.141  12.999  11.933 -0.1319 -0.0781  0.3320
 2781DPPE   C4B55236   3.538  13.213  11.848 -0.0420  0.1664  0.1264
 2782DPPE   NH355237  34.018  23.628  10.588 -0.2358  0.3944  0.0009
 2782DPPE   PO455238  34.380  23.397  10.435 -0.0895  0.0571 -0.1598
 2782DPPE   GL155239  34.597  23.729  10.478  0.2149 -0.0970 -0.0261
 2782DPPE   GL255240  34.861  23.632  10.406  0.1465 -0.2779 -0.0588
 2782DPPE   C1A55241  34.479  24.091  10.703 -0.3952  0.2283 -0.3217
 2782DPPE   C2A55242  34.247  24.345  11.086 -0.2357  0.4407 -0.0454
 2782DPPE   C3A55243  34.275  24.469  11.518  0.2379  0.1194 -0.1382
 2782DPPE   C4A55244  34.196  24.834  11.788  0.2083  0.1161 -0.2370
 2782DPPE   C1B55245  34.954  24.132  10.458 -0.0162  0.1178 -0.1644
 2782DPPE   C2B55246  34.940  24.496  10.521 -0.1865  0.3984 -0.1901
 2782DPPE   C3B55247  35.102  24.739  10.835 -0.2251 -0.0301  0.0227
 2782DPPE   C4B55248  35.114  24.816  11.249 -0.0710  0.4179  0.0281
 2783DPPE   NH355249  33.614  23.749   9.872 -0.0064  0.1699 -0.0113
 2783DPPE   PO455250  33.407  23.532   9.577  0.0369  0.1601 -0.3212
 2783DPPE   GL155251  33.091  23.799   9.408  0.1315  0.1760 -0.2065
 2783DPPE   GL255252  32.967  23.842   9.203  0.1076  0.1183  0.0204
 2783DPPE   C1A55253  32.696  24.074   9.578  0.6606 -0.0939 -0.1229
 2783DPPE   C2A55254  32.262  24.096   9.862 -0.2462  0.0784 -0.0594
 2783DPPE   C3A55255  31.834  23.993   9.987  0.0996  0.5463  0.2572
 2783DPPE   C4A55256  31.555  23.910   9.730 -0.1052 -0.1421 -0.3167
 2783DPPE   C1B55257  33.013  24.160   8.881 -0.0449 -0.2190 -0.1246
 2783DPPE   C2B55258  33.130  24.164   8.502 -0.4243  0.0727 -0.2385
 2783DPPE   C3B55259  33.172  24.130   8.071 -0.1956  0.0225  0.0796
 2783DPPE   C4B55260  33.185  24.424   7.886  0.0266  0.0139 -0.1146
 2784DPPE   NH355261  38.324  13.870   5.301  0.2989 -0.1265 -0.2100
 2784DPPE   PO455262  38.688  14.127   5.274 -0.1778 -0.3154 -0.0426
 2784DPPE   GL155263  38.887  14.394   5.457 -0.4820  0.2893  0.2913
 2784DPPE   GL255264  38.940  14.658   5.335 -0.1861 -0.1191 -0.4480
 2784DPPE   C1A55265  39.227  14.616   5.747 -0.1249  0.3212 -0.0158
 2784DPPE   C2A55266  39.659  14.738   5.905 -0.0510 -0.3377  0.2308
 2784DPPE   C3A55267  40.065  14.761   6.052 -0.4082 -0.3058 -0.1336
 2784DPPE   C4A55268  40.584  14.640   6.168 -0.2007 -0.0965 -0.1290
 2784DPPE   C1B55269  39.286  14.886   5.221 -0.2120  0.2251 -0.2017
 2784DPPE   C2B55270  39.501  15.069   5.557  0.1650 -0.4629 -0.0139
 2784DPPE   C3B55271  39.701  15.163   5.853  0.0643  0.0769  0.0879
 2784DPPE   C4B55272  40.047  15.162   5.851  0.3453  0.2327  0.0010
 2785DPPE   NH355273   2.559  11.291  11.000  0.0564 -0.0840 -0.0678
 2785DPPE   PO455274   2.931  11.299  11.178  0.1939  0.0405 -0.1169
 2785DPPE   GL155275   3.313  11.460  11.282  0.0540 -0.4598  0.0133
 2785DPPE   GL255276   3.648  11.263  11.316  0.1386 -0.0594 -0.0205
 2785DPPE   C1A55277   3.450  11.817  11.274  0.3729  0.2166  0.2000
 2785DPPE   C2A55278   3.852  11.793  11.181  0.0004 -0.0925 -0.1266
 2785DPPE   C3A55279   4.319  11.688  11.089  0.0885  0.2737 -0.1924
 2785DPPE   C4A55280   4.581  11.934  11.337  0.1151 -0.1523  0.1279
 2785DPPE   C1B55281   4.068  11.318  11.467  0.0736  0.2455 -0.0672
 2785DPPE   C2B55282   4.475  11.382  11.495  0.0155  0.1280 -0.1607
 2785DPPE   C3B55283   4.805  11.148  11.530 -0.3190 -0.1861  0.0363
 2785DPPE   C4B55284   5.034  10.858  11.526  0.0290 -0.1810  0.1867
 2786DPPE   NH355285   3.350  10.014   9.617 -0.0760 -0.0002  0.0502
 2786DPPE   PO455286   3.420  10.091  10.049  0.1149  0.0235 -0.0210
 2786DPPE   GL155287   3.723   9.849  10.179 -0.1892  0.4147 -0.1594
 2786DPPE   GL255288   3.755   9.637   9.933 -0.0792  0.0181 -0.0285
 2786DPPE   C1A55289   4.070   9.783  10.424  0.0024 -0.1722  0.1487
 2786DPPE   C2A55290   4.237  10.126  10.726 -0.0896  0.1096  0.2143
 2786DPPE   C3A55291   4.640  10.177  10.853  0.0701 -0.1325 -0.6328
 2786DPPE   C4A55292   4.911  10.470  11.146  0.0128  0.3232  0.0601
 2786DPPE   C1B55293   3.474   9.325   9.981  0.2159 -0.2139  0.4886
 2786DPPE   C2B55294   3.156   8.995   9.866  0.3177 -0.0857  0.0514
 2786DPPE   C3B55295   3.109   8.623   9.791  0.1042 -0.1344  0.2816
 2786DPPE   C4B55296   2.974   8.210   9.839  0.1054 -0.4300 -0.1587
 2787DPPE   NH355297  36.207  19.525  16.218  0.0516 -0.3438  0.0814
 2787DPPE   PO455298  36.123  19.549  15.815  0.0574  0.0093 -0.1391
 2787DPPE   GL155299  36.154  19.986  15.901  0.0681 -0.0419 -0.4495
 2787DPPE   GL255300  36.059  20.230  16.141  0.2739 -0.0591  0.0356
 2787DPPE   C1A55301  36.507  20.068  15.863  0.1846 -0.2461  0.2398
 2787DPPE   C2A55302  36.880  20.284  15.973  0.1106  0.5083  0.0388
 2787DPPE   C3A55303  36.948  20.525  16.279 -0.0548  0.0713 -0.0449
 2787DPPE   C4A55304  36.804  20.569  16.611 -0.0631  0.1392  0.0400
 2787DPPE   C1B55305  36.493  20.296  16.347 -0.1856  0.1071 -0.1275
 2787DPPE   C2B55306  36.839  20.009  16.386 -0.0753 -0.1152 -0.0315
 2787DPPE   C3B55307  37.267  20.276  16.589 -0.1205  0.1625  0.0314
 2787DPPE   C4B55308  37.670  20.577  16.650  0.0984 -0.0070  0.1311
 2788DPPE   NH355309   2.610  12.058   5.374  0.0173  0.0033 -0.0888
 2788DPPE   PO455310   2.636  11.799   5.605  0.0800  0.2712  0.1605
 2788DPPE   GL155311   2.983  11.701   5.738 -0.2593 -0.2485 -0.2696
 2788DPPE   GL255312   3.222  11.868   5.502  0.1963 -0.0868  0.5266
 2788DPPE   C1A55313   3.186  11.683   6.101 -0.3429 -0.1103 -0.0770
 2788DPPE   C2A55314   3.591  11.592   6.173 -0.1033  0.0618  0.0548
 2788DPPE   C3A55315   3.984  11.726   6.216 -0.0042  0.0018  0.2353
 2788DPPE   C4A55316   4.325  11.650   6.522 -0.1021  0.2229  0.2114
 2788DPPE   C1B55317   3.566  11.622   5.370  0.1332  0.0434  0.1109
 2788DPPE   C2B55318   3.813  11.289   5.156  0.1189  0.1778  0.1856
 2788DPPE   C3B55319   3.768  10.938   4.813 -0.4497 -0.0054 -0.0972
 2788DPPE   C4B55320   3.392  10.823   4.584 -0.0337  0.4071 -0.1512
 2789DPPE   NH355321  34.576  19.516   4.865 -0.0292  0.0032  0.3499
 2789DPPE   PO455322  34.350  19.592   5.209  0.0637  0.2095 -0.4198
 2789DPPE   GL155323  33.976  19.793   5.433 -0.0338  0.0146  0.1918
 2789DPPE   GL255324  33.730  19.573   5.596  0.2144 -0.0092  0.0713
 2789DPPE   C1A55325  33.576  20.024   5.309 -0.3122 -0.0561 -0.1047
 2789DPPE   C2A55326  33.150  20.104   5.225 -0.1844 -0.0364  0.0087
 2789DPPE   C3A55327  32.830  19.798   5.147 -0.2120  0.5446  0.2259
 2789DPPE   C4A55328  32.421  19.603   5.140 -0.0959  0.2218 -0.2488
 2789DPPE   C1B55329  33.530  19.250   5.599 -0.1687 -0.2159 -0.0854
 2789DPPE   C2B55330  33.405  18.915   5.287 -0.2388 -0.0552  0.0283
 2789DPPE   C3B55331  33.221  18.834   4.847 -0.2201  0.0750  0.0410
 2789DPPE   C4B55332  33.116  18.523   4.445  0.3021  0.2394  0.0414
 2790DPPE   NH355333  35.209  16.740   6.008 -0.2354 -0.2227  0.1297
 2790DPPE   PO455334  35.088  16.324   5.837 -0.4399 -0.2529 -0.1128
 2790DPPE   GL155335  34.861  16.077   5.575 -0.1930 -0.1807  0.2501
 2790DPPE   GL255336  34.973  15.862   5.483 -0.0626  0.1342  0.2108
 2790DPPE   C1A55337  34.449  15.993   5.429 -0.1323 -0.3849  0.2727
 2790DPPE   C2A55338  34.080  15.862   5.288  0.2851 -0.0222 -0.2489
 2790DPPE   C3A55339  33.626  15.765   5.325  0.0747 -0.2786  0.3288
 2790DPPE   C4A55340  33.380  15.707   5.696  0.3186 -0.0098  0.2946
 2790DPPE   C1B55341  35.160  15.557   5.297 -0.2277 -0.1260 -0.2024
 2790DPPE   C2B55342  34.988  15.238   4.994 -0.0664 -0.2502 -0.2441
 2790DPPE   C3B55343  35.044  14.989   4.595  0.0203 -0.1741 -0.1053
 2790DPPE   C4B55344  35.070  14.894   4.159  0.5219  0.1103  0.2822
 2791DPPE   NH355345  36.747  15.397  16.520  0.0751  0.1672  0.2247
 2791DPPE   PO455346  36.425  15.039  16.608 -0.0616 -0.3637  0.0578
 2791DPPE   GL155347  36.190  14.714  16.626 -0.1591  0.1671 -0.0108
 2791DPPE   GL255348  35.992  14.807  16.788 -0.0820  0.2973  0.4131
 2791DPPE   C1A55349  35.907  14.319  16.666 -0.0581 -0.2113 -0.0491
 2791DPPE   C2A55350  35.549  14.075  16.797 -0.0410  0.2025  0.4443
 2791DPPE   C3A55351  35.181  13.851  17.009  0.4048 -0.0180 -0.1708
 2791DPPE   C4A55352  34.739  13.839  17.280  0.3291  0.0622  0.1780
 2791DPPE   C1B55353  35.556  14.767  16.904  0.3121 -0.1827  0.0165
 2791DPPE   C2B55354  35.318  14.557  16.876  0.1727  0.3052 -0.0652
 2791DPPE   C3B55355  35.018  14.343  17.075 -0.0245 -0.0891 -0.2104
 2791DPPE   C4B55356  34.672  14.270  17.320 -0.2524 -0.1370 -0.5389
 2792DPPE   NH355357  33.412  21.500  13.412 -0.0756  0.1186  0.0880
 2792DPPE   PO455358  33.086  21.735  13.429 -0.2286  0.0118 -0.0657
 2792DPPE   GL155359  32.915  21.923  13.652 -0.0555  0.1399  0.1972
 2792DPPE   GL255360  33.192  22.190  13.865 -0.2647  0.2296  0.0918
 2792DPPE   C1A55361  32.540  22.063  13.790 -0.0542 -0.3219 -0.1259
 2792DPPE   C2A55362  32.361  22.378  14.069 -0.0959 -0.0471 -0.1788
 2792DPPE   C3A55363  32.255  22.525  14.457  0.0260  0.0148 -0.1690
 2792DPPE   C4A55364  31.918  22.396  14.802 -0.1696  0.0497 -0.0038
 2792DPPE   C1B55365  32.897  21.887  14.135  0.5527  0.1212 -0.0299
 2792DPPE   C2B55366  32.505  21.689  14.226  0.2774 -0.1463 -0.2091
 2792DPPE   C3B55367  32.137  21.399  13.973  0.0827  0.1467 -0.2755
 2792DPPE   C4B55368  31.673  21.329  14.041 -0.1187 -0.1275  0.1370
 2793DPPE   NH355369  32.465  21.697  12.612 -0.3501 -0.3524  0.3858
 2793DPPE   PO455370  32.405  21.993  12.260  0.1554 -0.2580 -0.1193
 2793DPPE   GL155371  32.017  21.814  12.276  0.0640  0.1382 -0.1421
 2793DPPE   GL255372  31.949  21.792  12.701 -0.0674  0.1418  0.1844
 2793DPPE   C1A55373  31.646  21.728  11.943 -0.2361  0.2960  0.1803
 2793DPPE   C2A55374  31.234  21.547  11.933  0.4167  0.1923 -0.1264
 2793DPPE   C3A55375  30.790  21.546  11.987  0.4516 -0.1699  0.0463
 2793DPPE   C4A55376  30.562  21.713  11.586 -0.0203 -0.0100  0.1123
 2793DPPE   C1B55377  31.652  22.013  13.066  0.0522 -0.2935  0.0381
 2793DPPE   C2B55378  31.497  22.299  13.383  0.2627 -0.1389  0.1127
 2793DPPE   C3B55379  31.667  22.692  13.408  0.1101  0.2458 -0.1921
 2793DPPE   C4B55380  32.100  22.725  13.419 -0.0365 -0.0787 -0.0629
 2794DPPE   NH355381  38.210  11.370  10.230  0.0372 -0.1725 -0.3054
 2794DPPE   PO455382  37.884  11.570  10.125  0.0943  0.0383 -0.1880
 2794DPPE   GL155383  37.362  11.370   9.985 -0.4804  0.0958  0.0784
 2794DPPE   GL255384  37.207  11.521   9.745  0.3217  0.1357 -0.0651
 2794DPPE   C1A55385  37.070  11.043  10.008  0.1369 -0.1888 -0.1183
 2794DPPE   C2A55386  36.843  10.769   9.787 -0.0154  0.0504  0.0582
 2794DPPE   C3A55387  36.671  10.403   9.539 -0.0164 -0.0578  0.1619
 2794DPPE   C4A55388  36.307  10.112   9.507 -0.0308  0.1264  0.1876
 2794DPPE   C1B55389  36.905  11.506  10.032  0.0843  0.0034  0.3483
 2794DPPE   C2B55390  36.438  11.563   9.967 -0.3412  0.1454  0.2481
 2794DPPE   C3B55391  35.978  11.616   9.904 -0.4504 -0.3988 -0.2882
 2794DPPE   C4B55392  35.744  11.251   9.759 -0.1251  0.0446 -0.1601
 2795DPPE   NH355393   1.218   6.562  14.093  0.3422 -0.3043  0.0231
 2795DPPE   PO455394   0.911   6.877  14.287 -0.1232  0.3105 -0.0579
 2795DPPE   GL155395   1.075   7.289  14.115 -0.1277  0.4010 -0.0421
 2795DPPE   GL255396   1.333   7.189  13.781 -0.0655 -0.0364 -0.1583
 2795DPPE   C1A55397   1.339   7.616  13.896  0.1521  0.2542  0.2094
 2795DPPE   C2A55398   1.303   8.115  13.833 -0.1093 -0.2271  0.1180
 2795DPPE   C3A55399   1.504   8.544  13.679 -0.1301 -0.2562  0.2099
 2795DPPE   C4A55400   1.690   8.971  13.672 -0.0275 -0.1516  0.0117
 2795DPPE   C1B55401   0.964   7.366  13.555  0.1247 -0.0063 -0.6140
 2795DPPE   C2B55402   0.781   7.725  13.794 -0.4175  0.1713 -0.2075
 2795DPPE   C3B55403   0.748   8.061  13.921  0.2276 -0.2433 -0.0878
 2795DPPE   C4B55404   1.029   8.515  14.031  0.4819  0.1466  0.2186
 2796DPPE   NH355405   6.276  16.213  25.535  0.2930  0.1019  0.1422
 2796DPPE   PO455406   5.939  15.907  25.847 -0.0138 -0.2259 -0.1760
 2796DPPE   GL155407   5.541  15.976  26.043  0.0119 -0.1580  0.4290
 2796DPPE   GL255408   5.284  15.796  26.121 -0.1136  0.2309  0.1306
 2796DPPE   C1A55409   5.377  16.169  26.456  0.1850  0.0958 -0.0123
 2796DPPE   C2A55410   5.094  15.995  26.889  0.1107  0.1180  0.2238
 2796DPPE   C3A55411   4.795  15.686  26.993  0.2695 -0.0338 -0.0283
 2796DPPE   C4A55412   4.680  15.695  27.405  0.3211 -0.1584 -0.1119
 2796DPPE   C1B55413   5.281  15.695  26.514 -0.1321  0.0856  0.3397
 2796DPPE   C2B55414   5.505  15.763  26.896  0.2417  0.0110  0.2641
 2796DPPE   C3B55415   5.667  15.568  27.285 -0.0252  0.0137  0.0513
 2796DPPE   C4B55416   5.748  15.538  27.707  0.2208  0.2282  0.2551
 2797DPPE   NH355417  31.130  16.022  16.687 -0.0596  0.2218  0.0717
 2797DPPE   PO455418  30.687  16.145  16.572  0.1819  0.3108 -0.0974
 2797DPPE   GL155419  30.949  16.536  16.549  0.4002  0.0809  0.1421
 2797DPPE   GL255420  31.152  16.537  16.748  0.2527  0.2335  0.0052
 2797DPPE   C1A55421  31.110  16.949  16.337  0.0987  0.3806 -0.1715
 2797DPPE   C2A55422  31.561  17.189  16.488  0.1389 -0.1443 -0.1096
 2797DPPE   C3A55423  31.415  17.556  16.740  0.0252 -0.0652 -0.1860
 2797DPPE   C4A55424  31.245  17.446  17.134 -0.1568 -0.2565 -0.0003
 2797DPPE   C1B55425  31.274  16.923  16.830  0.2519  0.4081  0.0546
 2797DPPE   C2B55426  31.720  17.141  16.966  0.1097 -0.1662  0.1690
 2797DPPE   C3B55427  32.141  17.177  17.041  0.2541  0.2263 -0.0025
 2797DPPE   C4B55428  32.498  17.229  17.194  0.2490  0.0579  0.0377
 2798DPPE   NH355429   9.443  31.213   4.082 -0.0148 -0.2091 -0.0574
 2798DPPE   PO455430   9.071  31.304   3.797  0.0701 -0.0769  0.1134
 2798DPPE   GL155431   8.937  30.962   4.091  0.0935 -0.2480 -0.0351
 2798DPPE   GL255432   8.604  30.792   4.039 -0.0388 -0.1279 -0.2753
 2798DPPE   C1A55433   9.005  30.556   4.199 -0.2354 -0.0181 -0.1031
 2798DPPE   C2A55434   8.921  30.103   4.078  0.1685  0.0332  0.1862
 2798DPPE   C3A55435   8.951  29.738   4.296 -0.1782  0.1005  0.0008
 2798DPPE   C4A55436   9.098  29.701   4.717 -0.1039  0.3442  0.2008
 2798DPPE   C1B55437   8.531  30.405   4.144  0.2932 -0.2772 -0.2319
 2798DPPE   C2B55438   8.306  30.034   4.016  0.2168 -0.1519 -0.2561
 2798DPPE   C3B55439   7.952  29.697   4.134 -0.2418  0.1318  0.1941
 2798DPPE   C4B55440   7.520  29.551   4.069 -0.0964 -0.0479  0.2792
 2799DPPE   NH355441  36.219  19.850  26.254 -0.0789 -0.0683  0.0644
 2799DPPE   PO455442  35.896  20.146  26.359 -0.1910 -0.1981 -0.5055
 2799DPPE   GL155443  36.150  20.113  26.769  0.0707 -0.1741 -0.0494
 2799DPPE   GL255444  36.454  19.842  26.876  0.0178 -0.2203  0.2201
 2799DPPE   C1A55445  36.099  19.860  27.167 -0.1604  0.0866 -0.0013
 2799DPPE   C2A55446  35.985  19.572  27.499 -0.1582 -0.0432 -0.3634
 2799DPPE   C3A55447  36.188  19.488  27.897  0.2885  0.2540 -0.2271
 2799DPPE   C4A55448  36.609  19.245  28.031  0.2006 -0.0076 -0.1807
 2799DPPE   C1B55449  36.662  19.458  27.136  0.2177  0.0493 -0.0925
 2799DPPE   C2B55450  36.747  19.132  27.423  0.3689 -0.2725  0.2607
 2799DPPE   C3B55451  36.862  18.887  27.742 -0.0328 -0.0704  0.1526
 2799DPPE   C4B55452  37.313  18.745  27.855 -0.1035 -0.0847 -0.4033
 2800DPPE   NH355453  18.540  18.772   5.990  0.1837 -0.0471  0.1640
 2800DPPE   PO455454  18.589  19.211   5.791  0.1562 -0.0408 -0.0321
 2800DPPE   GL155455  18.105  19.072   5.859 -0.0807 -0.0080 -0.0314
 2800DPPE   GL255456  18.090  18.811   6.203 -0.4538  0.4291  0.4370
 2800DPPE   C1A55457  17.688  18.945   5.867  0.0054 -0.0739  0.0246
 2800DPPE   C2A55458  17.347  19.062   6.135 -0.1232  0.3468  0.1426
 2800DPPE   C3A55459  16.958  18.902   6.266  0.1240 -0.1202 -0.2721
 2800DPPE   C4A55460  16.757  18.607   6.132 -0.0474  0.0757  0.0089
 2800DPPE   C1B55461  17.684  18.754   6.351  0.0352  0.1929 -0.1175
 2800DPPE   C2B55462  17.314  18.974   6.649 -0.1405 -0.0939 -0.1230
 2800DPPE   C3B55463  16.880  19.280   6.727  0.0682 -0.3035 -0.0492
 2800DPPE   C4B55464  16.900  19.723   7.018 -0.2311  0.1643 -0.0442
 2801DPPE   NH355465  18.776  18.316   7.683  0.2517  0.1778 -0.2157
 2801DPPE   PO455466  18.538  18.412   8.088  0.0463  0.1802  0.0915
 2801DPPE   GL155467  18.191  18.405   8.320 -0.1831 -0.0725 -0.0533
 2801DPPE   GL255468  18.170  18.439   8.572 -0.1736  0.0721  0.0032
 2801DPPE   C1A55469  17.752  18.453   8.057 -0.2435 -0.0987 -0.1920
 2801DPPE   C2A55470  17.419  18.501   8.157 -0.0285 -0.2415  0.1131
 2801DPPE   C3A55471  17.018  18.725   8.206 -0.1945  0.2080  0.2501
 2801DPPE   C4A55472  16.960  19.081   7.972 -0.0433 -0.0733 -0.0860
 2801DPPE   C1B55473  17.740  18.503   8.530 -0.2299 -0.2167 -0.2056
 2801DPPE   C2B55474  17.524  18.904   8.459  0.1027 -0.1296  0.0784
 2801DPPE   C3B55475  17.726  19.337   8.566  0.3601  0.0169  0.9527
 2801DPPE   C4B55476  18.141  19.508   8.769 -0.1013  0.1490  0.0884
 2802DPPE   NH355477  37.630  30.170   9.189  0.0036  0.1084 -0.0785
 2802DPPE   PO455478  37.467  30.271   9.534  0.1061 -0.1158  0.0844
 2802DPPE   GL155479  37.897  30.212   9.699 -0.0391 -0.0249  0.0647
 2802DPPE   GL255480  38.069  30.158   9.426  0.1219  0.2674  0.1649
 2802DPPE   C1A55481  38.101  29.867   9.854  0.0914 -0.0385 -0.0069
 2802DPPE   C2A55482  37.997  29.433   9.740  0.0558  0.0139  0.2079
 2802DPPE   C3A55483  38.183  29.105   9.506 -0.0162 -0.1133  0.0086
 2802DPPE   C4A55484  38.231  28.641   9.231 -0.2588  0.1402 -0.2632
 2802DPPE   C1B55485  38.455  29.912   9.477 -0.0523 -0.1335 -0.2010
 2802DPPE   C2B55486  38.742  29.624   9.405 -0.1732 -0.1071 -0.0388
 2802DPPE   C3B55487  39.189  29.562   9.349  0.1500 -0.1590 -0.1578
 2802DPPE   C4B55488  39.644  29.549   9.388 -0.1347 -0.1558 -0.1470
 2803DPPE   NH355489  11.899  29.153   3.055  0.0782  0.2341 -0.0299
 2803DPPE   PO455490  11.433  28.955   2.825  0.1858 -0.4059 -0.1217
 2803DPPE   GL155491  11.207  28.651   3.052  0.0472 -0.3225  0.1447
 2803DPPE   GL255492  10.949  28.574   2.837  0.1416 -0.3003  0.0814
 2803DPPE   C1A55493  11.197  28.299   3.292 -0.0726  0.2192 -0.0541
 2803DPPE   C2A55494  10.888  28.004   3.544  0.1027  0.0977 -0.0827
 2803DPPE   C3A55495  10.562  27.985   3.818 -0.0355  0.1732 -0.0928
 2803DPPE   C4A55496  10.207  28.136   3.981  0.1611 -0.0711 -0.0763
 2803DPPE   C1B55497  10.822  28.178   2.933  0.1894 -0.0873  0.2794
 2803DPPE   C2B55498  10.424  27.905   2.968  0.0040 -0.0246 -0.5391
 2803DPPE   C3B55499  10.290  27.482   3.177 -0.1684 -0.1812  0.0517
 2803DPPE   C4B55500  10.320  27.080   3.185 -0.2196  0.1301  0.2103
 2804DPPE   NH355501  32.491  15.631  20.401  0.0131 -0.4191  0.1350
 2804DPPE   PO455502  32.778  15.355  20.387  0.1187  0.2561  0.2862
 2804DPPE   GL155503  33.105  15.368  20.013 -0.1447 -0.0377 -0.0217
 2804DPPE   GL255504  33.027  15.418  19.634  0.1301 -0.1450  0.1084
 2804DPPE   C1A55505  33.488  15.276  19.755  0.2668  0.0034  0.4639
 2804DPPE   C2A55506  33.713  15.008  19.332  0.1407  0.4134  0.0339
 2804DPPE   C3A55507  33.850  14.659  18.973 -0.1314 -0.1157  0.0527
 2804DPPE   C4A55508  33.752  14.155  18.930  0.0844 -0.1564  0.1175
 2804DPPE   C1B55509  33.347  15.293  19.174 -0.0948  0.0648 -0.5304
 2804DPPE   C2B55510  33.696  15.370  18.905  0.0599  0.2868 -0.0975
 2804DPPE   C3B55511  34.125  15.120  18.846 -0.0319 -0.1875  0.0387
 2804DPPE   C4B55512  34.566  14.890  18.915  0.1561  0.1902 -0.0816
 2805DPPE   NH355513  35.449  10.870   3.109 -0.1291 -0.0451 -0.2166
 2805DPPE   PO455514  35.419  10.657   3.496  0.3091 -0.1087  0.1644
 2805DPPE   GL155515  35.709  10.955   3.513 -0.1477  0.0838  0.0376
 2805DPPE   GL255516  35.976  10.796   3.413 -0.1626  0.0333  0.1293
 2805DPPE   C1A55517  35.821  11.313   3.542  0.2034 -0.1382  0.0061
 2805DPPE   C2A55518  36.072  11.653   3.754  0.0524  0.4190 -0.3217
 2805DPPE   C3A55519  36.265  12.054   3.716  0.1443  0.0726 -0.0040
 2805DPPE   C4A55520  36.523  12.419   3.799 -0.2035  0.0425  0.0083
 2805DPPE   C1B55521  36.222  10.994   3.588  0.0461 -0.1644  0.0722
 2805DPPE   C2B55522  36.384  11.226   3.883 -0.2555  0.2488 -0.0782
 2805DPPE   C3B55523  36.538  11.694   3.958  0.0311 -0.1675 -0.0315
 2805DPPE   C4B55524  36.475  12.125   4.184  0.0402  0.1110 -0.0829
 2806DPPE   NH355525  12.672  21.022  16.344 -0.3741 -0.1795  0.1061
 2806DPPE   PO455526  12.640  20.601  16.170  0.0821  0.2988 -0.1946
 2806DPPE   GL155527  12.945  20.297  16.040 -0.3465 -0.0761 -0.3711
 2806DPPE   GL255528  13.239  20.407  15.981  0.0150 -0.0834 -0.1918
 2806DPPE   C1A55529  13.156  19.993  16.406  0.2099 -0.0788 -0.3068
 2806DPPE   C2A55530  13.514  19.681  16.540 -0.4581  0.0210  0.1413
 2806DPPE   C3A55531  13.772  19.663  16.797  0.0620  0.0831  0.2272
 2806DPPE   C4A55532  14.016  19.691  17.183 -0.1132  0.3459 -0.0981
 2806DPPE   C1B55533  13.308  20.515  16.344  0.1468 -0.2253 -0.0229
 2806DPPE   C2B55534  13.528  20.679  16.658  0.1581 -0.2296 -0.1450
 2806DPPE   C3B55535  13.747  20.682  17.017  0.0562 -0.1196 -0.1361
 2806DPPE   C4B55536  14.128  20.640  17.205 -0.0348 -0.1483 -0.0915
 2807DPPE   NH355537  33.947  10.392   7.226  0.3989  0.0866 -0.1074
 2807DPPE   PO455538  33.768  10.750   7.424  0.2808  0.2931  0.2340
 2807DPPE   GL155539  34.063  11.047   7.665 -0.1972 -0.0138 -0.0269
 2807DPPE   GL255540  34.268  10.904   7.440  0.0287  0.3281  0.1174
 2807DPPE   C1A55541  34.384  11.476   7.533  0.0755 -0.0691  0.1163
 2807DPPE   C2A55542  34.600  11.748   7.622  0.1137  0.1666 -0.0686
 2807DPPE   C3A55543  34.700  12.094   7.804  0.1948 -0.2595 -0.2171
 2807DPPE   C4A55544  35.003  12.093   8.215  0.0036  0.1855  0.0659
 2807DPPE   C1B55545  34.653  11.021   7.364 -0.0590  0.0842  0.1125
 2807DPPE   C2B55546  34.819  11.373   7.214  0.0071  0.1167 -0.0677
 2807DPPE   C3B55547  34.824  11.799   7.166  0.0306 -0.0520  0.1938
 2807DPPE   C4B55548  34.532  12.175   7.252  0.0089  0.0441  0.0017
 2808DPPE   NH355549  36.667   8.390  15.859 -0.0382 -0.0872 -0.1140
 2808DPPE   PO455550  36.286   8.654  16.084 -0.0173  0.2981  0.1001
 2808DPPE   GL155551  36.452   8.943  15.849  0.1149 -0.0339 -0.3372
 2808DPPE   GL255552  36.536   8.795  15.566 -0.0338 -0.1208 -0.1961
 2808DPPE   C1A55553  36.698   9.256  15.785 -0.0227  0.2031 -0.0638
 2808DPPE   C2A55554  36.720   9.528  15.579  0.1209 -0.3272  0.3630
 2808DPPE   C3A55555  36.855   9.809  15.424  0.1045  0.1958 -0.2031
 2808DPPE   C4A55556  37.310   9.953  15.312  0.0489 -0.0709 -0.2392
 2808DPPE   C1B55557  36.545   9.168  15.320  0.1495  0.0210  0.1920
 2808DPPE   C2B55558  36.287   9.657  15.336  0.2803 -0.3321 -0.0561
 2808DPPE   C3B55559  36.336  10.074  15.550  0.1262  0.0479  0.2480
 2808DPPE   C4B55560  36.295  10.406  15.685  0.1138 -0.0037  0.1242
 2809DPPE   NH355561   7.312  33.135  11.566 -0.1071  0.3738  0.2323
 2809DPPE   PO455562   6.891  33.102  11.663 -0.1551  0.1452  0.0964
 2809DPPE   GL155563   6.533  33.001  11.588  0.0434 -0.0291 -0.1597
 2809DPPE   GL255564   6.605  32.738  11.339  0.1520  0.1955 -0.0935
 2809DPPE   C1A55565   6.281  32.650  11.645  0.1658 -0.1752 -0.0843
 2809DPPE   C2A55566   6.149  32.289  11.730 -0.1707  0.3131  0.1079
 2809DPPE   C3A55567   6.154  31.885  11.964 -0.0393  0.1300  0.2817
 2809DPPE   C4A55568   6.349  31.640  12.108  0.2317 -0.0489 -0.0404
 2809DPPE   C1B55569   6.829  32.293  11.242 -0.2586 -0.0483  0.2091
 2809DPPE   C2B55570   6.778  31.947  11.107 -0.1817 -0.1532  0.3979
 2809DPPE   C3B55571   6.791  31.596  11.210  0.2687  0.0390 -0.0566
 2809DPPE   C4B55572   6.452  31.453  11.295  0.2268  0.3514  0.1972
 2810DPPE   NH355573   5.513  26.408  21.660 -0.4629  0.2060 -0.0293
 2810DPPE   PO455574   5.386  26.832  21.561 -0.1712 -0.1206 -0.0890
 2810DPPE   GL155575   5.420  26.644  21.097 -0.0104 -0.2168  0.1320
 2810DPPE   GL255576   5.728  26.438  21.191  0.1697  0.1883 -0.1127
 2810DPPE   C1A55577   5.304  26.733  20.662 -0.0401  0.1619 -0.2510
 2810DPPE   C2A55578   5.414  26.645  20.290  0.2659  0.1148  0.2080
 2810DPPE   C3A55579   5.306  26.357  19.932  0.0684  0.1355 -0.0888
 2810DPPE   C4A55580   5.268  26.381  19.481  0.0631 -0.2750 -0.1182
 2810DPPE   C1B55581   5.915  26.509  20.794 -0.2137  0.0948  0.2629
 2810DPPE   C2B55582   5.976  26.546  20.384  0.0015 -0.2535  0.0292
 2810DPPE   C3B55583   6.040  26.341  20.008 -0.0478  0.2075  0.3038
 2810DPPE   C4B55584   6.200  26.184  19.598 -0.0715 -0.0516  0.2401
 2811DPPE   NH355585   7.787  26.944   0.245  0.1835 -0.1501 -0.2948
 2811DPPE   PO455586   7.651  26.707  -0.035 -0.3590  0.0996 -0.3116
 2811DPPE   GL155587   7.613  26.480   0.347 -0.1178 -0.0297 -0.3205
 2811DPPE   GL255588   7.319  26.171   0.400 -0.1854 -0.1914 -0.0030
 2811DPPE   C1A55589   7.814  26.202   0.699 -0.0883  0.0569  0.2361
 2811DPPE   C2A55590   7.741  25.900   1.084  0.0009 -0.1992  0.0252
 2811DPPE   C3A55591   7.745  25.516   1.367  0.3618  0.1290  0.4337
 2811DPPE   C4A55592   7.914  25.050   1.346  0.1473 -0.0438  0.2632
 2811DPPE   C1B55593   7.357  26.397   0.819 -0.1833 -0.0690 -0.0247
 2811DPPE   C2B55594   7.714  26.670   1.004  0.1981  0.0569 -0.2449
 2811DPPE   C3B55595   8.102  26.768   1.190 -0.0755 -0.0611 -0.1578
 2811DPPE   C4B55596   8.394  27.051   1.287  0.0103  0.0429  0.0430
 2812DPPE   NH355597   9.292  30.322  17.977 -0.0315 -0.3255  0.0317
 2812DPPE   PO455598   8.998  30.445  18.242 -0.0920  0.1586 -0.3110
 2812DPPE   GL155599   8.716  30.180  17.921  0.1755 -0.1161 -0.1173
 2812DPPE   GL255600   8.963  30.041  17.726  0.1973 -0.3893  0.0947
 2812DPPE   C1A55601   8.358  29.867  17.939  0.0222 -0.3354  0.0934
 2812DPPE   C2A55602   8.084  29.686  18.024 -0.1207  0.1921 -0.0499
 2812DPPE   C3A55603   7.787  29.469  18.021  0.2168 -0.1941 -0.0115
 2812DPPE   C4A55604   7.591  29.157  17.896 -0.1758  0.4622 -0.2879
 2812DPPE   C1B55605   9.008  29.644  17.705  0.0086 -0.1549  0.1385
 2812DPPE   C2B55606   8.987  29.119  17.606 -0.0524 -0.0790  0.2714
 2812DPPE   C3B55607   9.044  28.728  17.496  0.0753  0.0595  0.1630
 2812DPPE   C4B55608   9.249  28.481  17.220  0.1523  0.1083 -0.0676
 2813DPPE   NH355609   2.936  27.453  20.525 -0.2655 -0.1727  0.2084
 2813DPPE   PO455610   3.147  27.071  20.897 -0.3037 -0.0716 -0.3004
 2813DPPE   GL155611   3.285  26.708  20.594 -0.1580 -0.0791 -0.2463
 2813DPPE   GL255612   3.585  26.697  20.371  0.1797  0.1144  0.0699
 2813DPPE   C1A55613   3.027  26.653  20.236 -0.0732 -0.0537  0.0352
 2813DPPE   C2A55614   2.985  26.390  20.066  0.0341  0.2760 -0.1862
 2813DPPE   C3A55615   3.133  26.082  19.808  0.2648  0.2776  0.0125
 2813DPPE   C4A55616   2.866  25.799  19.732 -0.0980  0.0410  0.1640
 2813DPPE   C1B55617   4.008  26.568  20.269 -0.0367 -0.2315  0.0951
 2813DPPE   C2B55618   4.289  26.331  20.327  0.4500 -0.0488  0.0482
 2813DPPE   C3B55619   4.577  26.005  20.093  0.0626  0.0223 -0.0358
 2813DPPE   C4B55620   5.020  25.852  20.021  0.1586  0.0105  0.1635
 2814DPPE   NH355621   1.561  13.285   3.081  0.1564  0.2795 -0.1806
 2814DPPE   PO455622   1.463  12.840   3.105  0.2632  0.2672  0.1603
 2814DPPE   GL155623   1.618  12.467   2.884 -0.0787  0.0278  0.0671
 2814DPPE   GL255624   1.925  12.404   2.977 -0.5950  0.0255 -0.4580
 2814DPPE   C1A55625   1.335  12.247   2.578 -0.6261 -0.0479  0.2019
 2814DPPE   C2A55626   0.947  12.340   2.558  0.4299 -0.0775 -0.0795
 2814DPPE   C3A55627   0.426  12.197   2.484 -0.4907  0.1641 -0.1102
 2814DPPE   C4A55628   0.084  11.855   2.514  0.5141  0.0424  0.0477
 2814DPPE   C1B55629   2.254  12.126   2.935  0.1973 -0.3216  0.0809
 2814DPPE   C2B55630   2.652  11.966   2.950 -0.3687  0.2624  0.1020
 2814DPPE   C3B55631   3.086  11.853   3.197  0.0246  0.0692  0.3644
 2814DPPE   C4B55632   3.433  11.993   3.239  0.0556 -0.2653  0.1483
 2815DPPE   NH355633   0.653  13.086   6.793 -0.1140  0.0934 -0.0185
 2815DPPE   PO455634   1.040  12.858   6.775 -0.1647  0.1162 -0.3125
 2815DPPE   GL155635   1.216  13.178   7.020 -0.1159  0.1140 -0.0691
 2815DPPE   GL255636   1.593  13.037   7.119  0.0314 -0.0481  0.0435
 2815DPPE   C1A55637   1.363  13.385   7.350 -0.1406  0.2142  0.2506
 2815DPPE   C2A55638   1.540  13.741   7.698 -0.1782 -0.2467 -0.1684
 2815DPPE   C3A55639   1.561  13.807   8.065  0.1702 -0.0656  0.1521
 2815DPPE   C4A55640   1.695  14.245   8.226 -0.2484  0.2690  0.3145
 2815DPPE   C1B55641   1.861  13.433   7.198 -0.0705 -0.3195 -0.4384
 2815DPPE   C2B55642   2.190  13.575   7.370  0.2145 -0.1342  0.3413
 2815DPPE   C3B55643   2.523  13.903   7.333 -0.0819  0.1875 -0.2993
 2815DPPE   C4B55644   2.932  13.974   7.305  0.3134 -0.3640  0.0683
 2816DPPE   NH355645  36.313  15.293  17.489 -0.0375 -0.2365  0.3953
 2816DPPE   PO455646  36.176  15.738  17.626 -0.2697 -0.2634 -0.0464
 2816DPPE   GL155647  36.098  15.572  18.042  0.0681 -0.1780 -0.0958
 2816DPPE   GL255648  35.901  15.878  18.064  0.2937 -0.2056  0.0837
 2816DPPE   C1A55649  35.958  15.202  18.160 -0.0300  0.0332  0.2728
 2816DPPE   C2A55650  35.976  14.893  18.489  0.1145 -0.2072  0.2163
 2816DPPE   C3A55651  35.836  14.435  18.501  0.2556 -0.0348 -0.0750
 2816DPPE   C4A55652  35.539  14.273  18.276  0.0063 -0.4055 -0.0356
 2816DPPE   C1B55653  35.565  15.553  18.180  0.0928  0.0903 -0.0293
 2816DPPE   C2B55654  35.437  15.315  18.503  0.1806  0.3741  0.3484
 2816DPPE   C3B55655  35.496  15.257  18.953 -0.2957  0.0523 -0.2409
 2816DPPE   C4B55656  35.792  15.021  18.960  0.1390  0.0982 -0.1288
 2817DPPE   NH355657  35.396  16.885  13.260 -0.1543 -0.2071 -0.1673
 2817DPPE   PO455658  35.295  16.621  12.846 -0.0935  0.2274  0.0834
 2817DPPE   GL155659  35.764  16.563  12.886  0.1720 -0.2376 -0.1982
 2817DPPE   GL255660  35.930  16.474  12.697  0.2261  0.2027 -0.1047
 2817DPPE   C1A55661  35.924  16.938  12.785 -0.1593  0.2855  0.0511
 2817DPPE   C2A55662  36.113  17.233  12.983 -0.0666  0.2515 -0.4176
 2817DPPE   C3A55663  36.159  17.615  12.936 -0.3229 -0.0745  0.0065
 2817DPPE   C4A55664  36.566  17.901  12.929 -0.1046 -0.1555 -0.0410
 2817DPPE   C1B55665  36.441  16.511  12.691 -0.1188  0.1407 -0.1392
 2817DPPE   C2B55666  36.803  16.769  12.591 -0.0871 -0.1503  0.0451
 2817DPPE   C3B55667  37.067  17.118  12.748  0.2706 -0.1793 -0.3610
 2817DPPE   C4B55668  37.367  17.516  12.783  0.2712  0.0378 -0.0057
 2818DPPE   NH355669   0.976  14.787   3.185  0.2708  0.0036  0.0396
 2818DPPE   PO455670   1.018  15.115   3.010 -0.0836  0.0447  0.3833
 2818DPPE   GL155671   1.224  14.942   2.556 -0.2966  0.3769 -0.0867
 2818DPPE   GL255672   1.041  15.115   2.425 -0.1595  0.0743  0.0254
 2818DPPE   C1A55673   1.538  14.965   2.234  0.0369  0.2056 -0.2861
 2818DPPE   C2A55674   1.945  14.768   2.329  0.2817  0.1529 -0.0105
 2818DPPE   C3A55675   2.291  14.524   2.224  0.3014 -0.2509  0.0849
 2818DPPE   C4A55676   2.822  14.566   2.255  0.2677 -0.1789 -0.1025
 2818DPPE   C1B55677   0.998  15.291   2.027 -0.2548  0.1159  0.5287
 2818DPPE   C2B55678   0.756  15.230   1.766 -0.0726 -0.0013 -0.4101
 2818DPPE   C3B55679   0.358  15.276   1.512 -0.1347 -0.4950  0.3728
 2818DPPE   C4B55680   0.043  14.970   1.421  0.1067 -0.0739 -0.2134
 2819DPPE   NH355681   0.765  10.344  11.585  0.0311 -0.0912 -0.2919
 2819DPPE   PO455682   1.022  10.407  11.146 -0.1695 -0.0318  0.0279
 2819DPPE   GL155683   0.897  10.013  10.969 -0.2744  0.0607  0.1105
 2819DPPE   GL255684   0.743   9.883  11.194  0.1171  0.1279  0.2421
 2819DPPE   C1A55685   1.181   9.576  11.039 -0.1613 -0.0484 -0.2006
 2819DPPE   C2A55686   1.015   9.257  11.152  0.0152 -0.0735 -0.0101
 2819DPPE   C3A55687   1.086   8.796  11.179  0.1834 -0.0234 -0.1010
 2819DPPE   C4A55688   1.265   8.344  11.237  0.2599 -0.1758 -0.2280
 2819DPPE   C1B55689   0.578   9.487  11.034 -0.0711 -0.2409 -0.0950
 2819DPPE   C2B55690   0.611   9.011  10.916  0.0701 -0.4891  0.1961
 2819DPPE   C3B55691   0.713   8.608  10.700  0.1298 -0.2273 -0.1323
 2819DPPE   C4B55692   1.025   8.386  10.778  0.1208  0.4142  0.0764
 2820DPPE   NH355693  37.808  12.546  10.119  0.1888  0.1231 -0.0085
 2820DPPE   PO455694  38.050  12.767  10.490  0.0005 -0.2314 -0.0497
 2820DPPE   GL155695  38.143  13.079  10.628 -0.0368 -0.0476 -0.0406
 2820DPPE   GL255696  37.805  13.284  10.702 -0.1626 -0.2393  0.1707
 2820DPPE   C1A55697  38.334  13.504  10.624  0.0649 -0.1538 -0.2920
 2820DPPE   C2A55698  38.757  13.716  10.699  0.2355 -0.4124 -0.0230
 2820DPPE   C3A55699  39.018  14.089  10.776 -0.0520 -0.0826 -0.1906
 2820DPPE   C4A55700  39.449  14.170  10.798  0.0658  0.1808 -0.1172
 2820DPPE   C1B55701  37.882  13.683  10.676  0.0581 -0.1875  0.2006
 2820DPPE   C2B55702  37.864  13.983  10.324 -0.0155  0.0649  0.2091
 2820DPPE   C3B55703  38.105  14.274  10.025  0.3375 -0.2642  0.1859
 2820DPPE   C4B55704  38.556  14.492  10.080 -0.3791  0.2358 -0.0645
 2821DPPE   NH355705   1.050  12.928  13.067  0.2778  0.0609 -0.0346
 2821DPPE   PO455706   0.581  12.870  13.226  0.0325  0.2341  0.0477
 2821DPPE   GL155707   0.568  13.239  13.043  0.0053  0.0497 -0.3219
 2821DPPE   GL255708   0.842  13.273  12.716  0.2628  0.2224 -0.3356
 2821DPPE   C1A55709   0.616  13.725  12.880  0.1661 -0.2345  0.2237
 2821DPPE   C2A55710   0.681  14.163  12.767  0.0266  0.0777  0.0570
 2821DPPE   C3A55711   0.643  14.450  12.545  0.2467  0.0536  0.2615
 2821DPPE   C4A55712   0.831  14.803  12.388  0.0563 -0.2482  0.0168
 2821DPPE   C1B55713   0.898  13.659  12.473 -0.1730 -0.1155  0.2624
 2821DPPE   C2B55714   1.075  13.935  12.535 -0.0489  0.0278  0.2643
 2821DPPE   C3B55715   1.369  14.170  12.696  0.1454  0.0952  0.1170
 2821DPPE   C4B55716   1.521  14.489  12.689  0.1433  0.1420  0.1935
 2822DPPE   NH355717  33.029  20.300  11.673 -0.0566  0.0431 -0.3846
 2822DPPE   PO455718  32.834  20.215  11.351  0.1031  0.0701 -0.1358
 2822DPPE   GL155719  32.456  20.361  11.602 -0.1036 -0.1174 -0.0543
 2822DPPE   GL255720  32.281  20.201  11.308  0.2213 -0.0378 -0.1038
 2822DPPE   C1A55721  32.117  20.171  11.754  0.0840  0.0289 -0.2504
 2822DPPE   C2A55722  31.624  20.205  11.697 -0.0243  0.2919 -0.4528
 2822DPPE   C3A55723  31.230  20.305  11.864 -0.1862  0.0844  0.0649
 2822DPPE   C4A55724  30.885  20.225  11.684 -0.2656  0.0532 -0.1476
 2822DPPE   C1B55725  31.830  20.125  11.200  0.1526  0.0970 -0.1718
 2822DPPE   C2B55726  31.499  20.451  11.269 -0.1388 -0.1417 -0.2747
 2822DPPE   C3B55727  31.152  20.705  11.395  0.2156  0.3643 -0.1004
 2822DPPE   C4B55728  30.739  20.747  11.695 -0.1064 -0.2325 -0.1066
 2823DPPE   NH355729  37.644  12.162   8.517 -0.2290 -0.2852 -0.0849
 2823DPPE   PO455730  37.977  11.806   8.395 -0.2648 -0.2461 -0.0156
 2823DPPE   GL155731  37.887  11.398   8.277 -0.0405 -0.1428 -0.1244
 2823DPPE   GL255732  37.953  11.425   7.954 -0.0661 -0.3098  0.2132
 2823DPPE   C1A55733  37.534  11.104   8.390  0.0602  0.2566  0.1887
 2823DPPE   C2A55734  37.074  11.121   8.466  0.3674 -0.1006  0.2489
 2823DPPE   C3A55735  36.685  11.171   8.136  0.2321  0.0770 -0.2237
 2823DPPE   C4A55736  36.388  10.969   7.892  0.1536 -0.0262  0.1716
 2823DPPE   C1B55737  37.619  11.068   7.894  0.1940 -0.1644  0.1085
 2823DPPE   C2B55738  37.463  10.717   8.039  0.0124  0.1993  0.0192
 2823DPPE   C3B55739  37.139  10.616   8.427 -0.0397 -0.3746  0.2537
 2823DPPE   C4B55740  36.802  10.596   8.571 -0.2350 -0.0444  0.0586
 2824DPPE   NH355741  35.354  16.285  11.140  0.0712 -0.1763  0.0388
 2824DPPE   PO455742  35.428  16.078  10.734  0.1545  0.0675 -0.1223
 2824DPPE   GL155743  35.759  16.274  10.761  0.0898  0.3625  0.2661
 2824DPPE   GL255744  35.953  16.065  10.621  0.1579 -0.0048  0.0121
 2824DPPE   C1A55745  35.980  16.406  11.043 -0.1871 -0.1672  0.1007
 2824DPPE   C2A55746  36.443  16.473  11.177  0.0539  0.0796  0.1652
 2824DPPE   C3A55747  36.928  16.492  11.290 -0.2001 -0.0704 -0.3984
 2824DPPE   C4A55748  37.442  16.497  11.345 -0.2192  0.2146  0.2092
 2824DPPE   C1B55749  36.384  16.177  10.640  0.2176 -0.1304 -0.0100
 2824DPPE   C2B55750  36.663  16.481  10.607 -0.1141  0.1610  0.3835
 2824DPPE   C3B55751  36.994  16.690  10.844 -0.3869 -0.0443  0.2657
 2824DPPE   C4B55752  37.446  16.708  10.906  0.2063 -0.2269  0.1110
 2825DPPE   NH355753  37.560  16.727   4.753 -0.1268  0.1890  0.1817
 2825DPPE   PO455754  37.321  16.896   4.437 -0.1734 -0.0444  0.0607
 2825DPPE   GL155755  37.612  17.211   4.757 -0.0180 -0.0541 -0.4565
 2825DPPE   GL255756  37.764  17.263   4.951  0.0406 -0.1721  0.0027
 2825DPPE   C1A55757  38.024  17.550   4.624  0.2081  0.2187 -0.1505
 2825DPPE   C2A55758  38.184  17.870   4.710  0.1383  0.2236  0.2211
 2825DPPE   C3A55759  38.139  18.372   4.829  0.1171  0.1120 -0.2656
 2825DPPE   C4A55760  38.253  18.820   4.956 -0.2521 -0.1098 -0.2461
 2825DPPE   C1B55761  38.089  17.583   5.246 -0.0179 -0.2494  0.4018
 2825DPPE   C2B55762  38.223  17.846   5.578  0.1642 -0.1602  0.2676
 2825DPPE   C3B55763  38.367  18.272   5.722  0.4098 -0.0730 -0.0443
 2825DPPE   C4B55764  38.445  18.714   5.632  0.0262  0.2060  0.2126
 2826DPPE   NH355765  36.160  16.790  17.163 -0.2523 -0.0665 -0.0887
 2826DPPE   PO455766  35.859  16.584  17.376 -0.0326  0.4576  0.1719
 2826DPPE   GL155767  35.641  16.277  17.697  0.0393 -0.0063 -0.2341
 2826DPPE   GL255768  35.264  16.354  17.677  0.2743  0.0460  0.0541
 2826DPPE   C1A55769  35.437  16.173  18.064  0.0696  0.1168  0.1524
 2826DPPE   C2A55770  35.324  15.900  18.445  0.0009 -0.5739 -0.3701
 2826DPPE   C3A55771  35.707  15.758  18.690  0.3246  0.1171  0.0890
 2826DPPE   C4A55772  35.946  15.443  18.639 -0.1768 -0.0990 -0.0642
 2826DPPE   C1B55773  34.939  16.126  17.838  0.2201 -0.0952 -0.0750
 2826DPPE   C2B55774  34.628  15.947  18.191  0.0897  0.1428  0.0700
 2826DPPE   C3B55775  34.275  15.795  18.451 -0.0380 -0.0818  0.2068
 2826DPPE   C4B55776  33.976  15.505  18.364 -0.3180 -0.0210  0.0224
 2827DPPE   NH355777   1.915  10.502   7.796 -0.1833 -0.1572 -0.0457
 2827DPPE   PO455778   2.305  10.462   7.888 -0.0781  0.1016  0.0691
 2827DPPE   GL155779   2.128  10.049   7.811 -0.2232  0.1177 -0.0160
 2827DPPE   GL255780   1.784  10.056   7.679 -0.0185 -0.0177 -0.0834
 2827DPPE   C1A55781   2.190   9.678   8.137 -0.0861  0.2000  0.0761
 2827DPPE   C2A55782   1.967   9.431   8.339  0.1941 -0.0163 -0.4024
 2827DPPE   C3A55783   1.779   9.282   8.723  0.1339  0.1060 -0.4666
 2827DPPE   C4A55784   1.938   9.171   9.038  0.1917 -0.1895  0.0656
 2827DPPE   C1B55785   1.768   9.717   7.702  0.0017  0.3330  0.1414
 2827DPPE   C2B55786   1.923   9.323   7.837  0.3288 -0.1973  0.0876
 2827DPPE   C3B55787   2.075   9.006   8.127 -0.0791 -0.2225 -0.0195
 2827DPPE   C4B55788   2.266   9.055   8.510  0.0239  0.0394  0.0332
 2828DPPE   NH355789   0.338  15.995   3.746 -0.3071 -0.0681 -0.0324
 2828DPPE   PO455790  -0.076  16.140   3.917  0.1134  0.1255  0.0882
 2828DPPE   GL155791   0.053  16.435   4.229 -0.2859  0.0085 -0.1275
 2828DPPE   GL255792   0.304  16.249   4.265  0.2938  0.1701 -0.0777
 2828DPPE   C1A55793   0.199  16.847   4.355 -0.0395  0.0927  0.0507
 2828DPPE   C2A55794   0.430  17.015   4.592 -0.1152  0.0052  0.1908
 2828DPPE   C3A55795   0.485  17.267   4.899  0.0702  0.1940  0.0780
 2828DPPE   C4A55796   0.848  17.229   5.204  0.0876  0.0469 -0.0656
 2828DPPE   C1B55797   0.634  16.554   4.419  0.1199  0.0794 -0.0304
 2828DPPE   C2B55798   0.948  16.900   4.466 -0.0350 -0.0671  0.3066
 2828DPPE   C3B55799   1.112  17.266   4.250  0.0612  0.5325  0.0544
 2828DPPE   C4B55800   1.321  17.570   4.414 -0.1704 -0.1518  0.0100
 2829DPPE   NH355801  37.626  13.194  14.270 -0.3496 -0.0261 -0.4568
 2829DPPE   PO455802  37.164  13.079  14.259 -0.2385  0.1881 -0.3198
 2829DPPE   GL155803  37.020  12.722  14.277 -0.2395 -0.0626  0.0127
 2829DPPE   GL255804  36.693  12.659  14.304 -0.0084 -0.2263  0.2027
 2829DPPE   C1A55805  37.006  12.274  14.430  0.0723  0.1768 -0.2568
 2829DPPE   C2A55806  36.667  11.871  14.613  0.0028 -0.4058 -0.2066
 2829DPPE   C3A55807  36.295  11.749  14.632  0.1087  0.4548  0.1263
 2829DPPE   C4A55808  35.922  11.650  14.423  0.0378  0.2119  0.1860
 2829DPPE   C1B55809  36.514  12.335  14.555 -0.1269  0.1200 -0.1450
 2829DPPE   C2B55810  36.272  12.191  14.820 -0.0664 -0.3353  0.2120
 2829DPPE   C3B55811  36.091  11.854  14.998 -0.0881 -0.1086  0.1047
 2829DPPE   C4B55812  35.883  11.493  15.028  0.0277 -0.2761  0.0190
 2830DPPE   NH355813  36.017  20.044   3.424 -0.2501  0.0485  0.4117
 2830DPPE   PO455814  36.293  19.665   3.477 -0.5865  0.3545 -0.2823
 2830DPPE   GL155815  36.494  19.866   3.101  0.2771  0.1017  0.0787
 2830DPPE   GL255816  36.148  19.896   2.792 -0.0661 -0.0095 -0.1921
 2830DPPE   C1A55817  36.873  20.035   2.885  0.1740 -0.1460 -0.0129
 2830DPPE   C2A55818  37.024  20.542   2.805  0.2720 -0.1629  0.0666
 2830DPPE   C3A55819  37.468  20.794   2.819  0.1626  0.0154  0.1284
 2830DPPE   C4A55820  37.651  21.133   3.040  0.2037 -0.0548  0.0908
 2830DPPE   C1B55821  36.456  19.989   2.631  0.0939 -0.3739 -0.1314
 2830DPPE   C2B55822  36.552  20.472   2.626  0.0989  0.2253  0.1110
 2830DPPE   C3B55823  36.467  20.663   2.210 -0.2555 -0.2871  0.1975
 2830DPPE   C4B55824  36.427  20.793   1.762 -0.2928 -0.0989 -0.0435
 2831DPPE   NH355825  35.381  16.420   6.941 -0.1348 -0.0023 -0.0341
 2831DPPE   PO455826  35.185  16.735   7.042 -0.2250  0.2444  0.1245
 2831DPPE   GL155827  34.785  16.482   7.048 -0.0077  0.2353  0.1917
 2831DPPE   GL255828  34.770  16.176   6.763  0.0050 -0.2155  0.3259
 2831DPPE   C1A55829  34.388  16.261   7.074 -0.4372 -0.1368  0.1025
 2831DPPE   C2A55830  34.038  16.106   6.987  0.2981 -0.0141  0.0170
 2831DPPE   C3A55831  33.612  15.901   6.868  0.1753  0.2149 -0.3259
 2831DPPE   C4A55832  33.287  15.955   6.589 -0.0605 -0.0730  0.1886
 2831DPPE   C1B55833  34.386  16.111   6.473 -0.0873 -0.4060  0.0425
 2831DPPE   C2B55834  34.200  15.710   6.221 -0.1300  0.1779  0.2649
 2831DPPE   C3B55835  34.058  15.282   6.119 -0.0290 -0.0819 -0.2590
 2831DPPE   C4B55836  33.916  15.059   5.769  0.0078  0.0495 -0.3260
 2832DPPE   NH355837   0.456  11.267   7.742 -0.0160 -0.3242 -0.0172
 2832DPPE   PO455838   0.758  10.855   7.960 -0.0494  0.0581 -0.4877
 2832DPPE   GL155839   0.528  10.686   7.661  0.2375 -0.2848 -0.0529
 2832DPPE   GL255840   0.456  10.933   7.277  0.0701 -0.0937 -0.0793
 2832DPPE   C1A55841   0.395  10.320   7.268 -0.2753  0.1061 -0.3722
 2832DPPE   C2A55842   0.215   9.927   7.141  0.1109  0.0930 -0.0267
 2832DPPE   C3A55843   0.125   9.503   7.336  0.2022  0.0048  0.1043
 2832DPPE   C4A55844   0.118   9.066   7.403 -0.1169 -0.2715  0.1809
 2832DPPE   C1B55845   0.059  10.675   7.311  0.0745 -0.0601  0.0977
 2832DPPE   C2B55846  -0.188  10.349   7.247 -0.1541 -0.3418 -0.1289
 2832DPPE   C3B55847  -0.640  10.138   7.355 -0.0769  0.0894 -0.1111
 2832DPPE   C4B55848  -0.838   9.759   7.285 -0.1602  0.1558  0.1189
 2833DPPE   NH355849   2.913  11.316  13.494 -0.1701 -0.1095  0.0703
 2833DPPE   PO455850   2.590  11.100  13.288 -0.0875  0.1389 -0.0478
 2833DPPE   GL155851   3.021  10.893  13.390  0.1328  0.3463  0.1340
 2833DPPE   GL255852   3.345  10.958  13.287  0.2077  0.3508 -0.4007
 2833DPPE   C1A55853   3.322  10.585  13.705 -0.1798 -0.0063 -0.1487
 2833DPPE   C2A55854   3.605  10.359  13.985 -0.1693 -0.2399  0.1704
 2833DPPE   C3A55855   4.006  10.310  14.269  0.0299 -0.1720  0.1264
 2833DPPE   C4A55856   4.303  10.583  14.364  0.0328 -0.1875 -0.1643
 2833DPPE   C1B55857   3.747  10.867  13.402  0.1527 -0.0261  0.0491
 2833DPPE   C2B55858   3.977  10.943  13.771  0.1810  0.0324 -0.1842
 2833DPPE   C3B55859   3.857  10.799  14.231 -0.3875 -0.0528  0.2028
 2833DPPE   C4B55860   3.688  10.703  14.596 -0.1293  0.1943 -0.0947
 2834DPPE   NH355861  10.708  30.637   4.002 -0.1518  0.0736 -0.0009
 2834DPPE   PO455862  10.394  30.747   4.313  0.2305 -0.1072  0.4315
 2834DPPE   GL155863  10.178  30.402   4.485 -0.3666 -0.0921 -0.2477
 2834DPPE   GL255864   9.872  30.441   4.376 -0.1691  0.2004 -0.2645
 2834DPPE   C1A55865  10.329  29.927   4.511  0.1880 -0.0134 -0.0951
 2834DPPE   C2A55866  10.581  29.538   4.575  0.0550  0.2097 -0.1773
 2834DPPE   C3A55867  10.495  29.070   4.687  0.3404  0.0234  0.0355
 2834DPPE   C4A55868  10.195  28.829   4.606  0.0639 -0.1105 -0.2788
 2834DPPE   C1B55869   9.828  30.152   4.751  0.2777  0.1920  0.0033
 2834DPPE   C2B55870   9.890  30.119   5.165  0.0578  0.1241 -0.1040
 2834DPPE   C3B55871   9.931  29.691   5.260  0.4226  0.1854 -0.2307
 2834DPPE   C4B55872   9.687  29.329   5.261  0.1892  0.0011  0.3773
 2835DPPE   NH355873  13.081  22.466  25.748  0.2918 -0.0771 -0.0428
 2835DPPE   PO455874  13.210  22.681  26.171  0.2471 -0.4624 -0.1226
 2835DPPE   GL155875  13.206  22.699  26.637 -0.6575  0.0786 -0.2271
 2835DPPE   GL255876  13.364  22.876  26.969 -0.0305 -0.1385  0.0006
 2835DPPE   C1A55877  12.769  22.613  26.783 -0.0910  0.0848 -0.0900
 2835DPPE   C2A55878  12.400  22.459  27.007  0.1636 -0.2510  0.1684
 2835DPPE   C3A55879  12.336  22.062  27.165 -0.2986 -0.0210  0.2581
 2835DPPE   C4A55880  12.098  21.708  27.141 -0.1192 -0.1581 -0.0188
 2835DPPE   C1B55881  12.881  23.060  26.860 -0.1400 -0.2248 -0.0558
 2835DPPE   C2B55882  12.546  22.941  27.089  0.1187 -0.1874 -0.0783
 2835DPPE   C3B55883  12.136  23.265  27.316 -0.0992  0.0588 -0.1632
 2835DPPE   C4B55884  11.690  23.475  27.560  0.0742  0.1417  0.4304
 2836DPPE   NH355885   4.990  18.966  22.456 -0.0189  0.0142  0.2181
 2836DPPE   PO455886   5.346  19.187  22.277  0.2079  0.0686 -0.3825
 2836DPPE   GL155887   5.583  19.274  21.959  0.0770 -0.3255  0.1600
 2836DPPE   GL255888   5.596  19.590  21.943  0.1014  0.0084  0.3520
 2836DPPE   C1A55889   5.695  19.205  21.526  0.0221  0.1341  0.1443
 2836DPPE   C2A55890   5.918  19.467  21.151 -0.3993  0.0831  0.2312
 2836DPPE   C3A55891   5.899  19.686  20.744  0.0941 -0.1031 -0.1005
 2836DPPE   C4A55892   5.912  19.739  20.285 -0.1448  0.1894 -0.0569
 2836DPPE   C1B55893   5.667  19.746  21.495  0.2258  0.1288 -0.3206
 2836DPPE   C2B55894   5.563  19.807  21.084 -0.3666 -0.1242 -0.4863
 2836DPPE   C3B55895   5.341  20.136  20.877  0.0555 -0.3918 -0.0248
 2836DPPE   C4B55896   4.917  20.259  21.002  0.0503  0.1984  0.0384
 2837DPPE   NH355897   1.164  10.979  19.610 -0.1637  0.1114 -0.0938
 2837DPPE   PO455898   1.289  10.695  19.348 -0.0707 -0.1849  0.3638
 2837DPPE   GL155899   1.147  10.872  18.955 -0.1456  0.0294 -0.2609
 2837DPPE   GL255900   0.907  11.036  19.188  0.2905  0.2430 -0.0999
 2837DPPE   C1A55901   0.983  11.060  18.524  0.3267 -0.1411  0.2560
 2837DPPE   C2A55902   0.993  11.046  18.080  0.4912 -0.1026  0.1655
 2837DPPE   C3A55903   0.747  11.093  17.663 -0.0679  0.1288  0.3892
 2837DPPE   C4A55904   0.707  10.928  17.233 -0.1389  0.0149  0.0719
 2837DPPE   C1B55905   0.747  11.380  18.854 -0.2371 -0.2600  0.0641
 2837DPPE   C2B55906   0.852  11.561  18.501  0.1025 -0.3215 -0.0135
 2837DPPE   C3B55907   1.124  11.534  18.152  0.1289 -0.1815  0.0749
 2837DPPE   C4B55908   1.383  11.749  17.862  0.3656 -0.0647  0.2173
 2838DPPE   NH355909   8.881  18.662  22.118 -0.1823 -0.2271  0.0583
 2838DPPE   PO455910   9.143  18.835  22.019 -0.0576  0.1184  0.1364
 2838DPPE   GL155911   9.132  18.779  21.620  0.0928 -0.4300 -0.1125
 2838DPPE   GL255912   8.841  18.715  21.618 -0.0519 -0.2411 -0.2039
 2838DPPE   C1A55913   9.031  18.962  21.193  0.2299  0.0142  0.0255
 2838DPPE   C2A55914   9.004  19.213  20.820 -0.0483  0.1515 -0.1545
 2838DPPE   C3A55915   9.074  18.971  20.493 -0.0466 -0.0618  0.1458
 2838DPPE   C4A55916   9.113  18.931  20.073 -0.0851 -0.1652  0.0396
 2838DPPE   C1B55917   8.610  18.658  21.179  0.1579 -0.1015 -0.1435
 2838DPPE   C2B55918   8.682  18.653  20.707  0.3247  0.0473 -0.3971
 2838DPPE   C3B55919   8.593  18.856  20.265 -0.2408  0.4120  0.1225
 2838DPPE   C4B55920   8.588  19.030  19.819 -0.1641  0.0704  0.0211
 2839DPPE   NH355921   4.234  27.027   0.271  0.1268 -0.2009  0.0006
 2839DPPE   PO455922   3.839  26.918   0.052  0.0430  0.0644 -0.0638
 2839DPPE   GL155923   3.946  26.614   0.388  0.0982 -0.0985  0.2264
 2839DPPE   GL255924   4.174  26.688   0.682  0.1190  0.0861 -0.2727
 2839DPPE   C1A55925   3.847  26.354   0.740  0.1998 -0.0115  0.0607
 2839DPPE   C2A55926   4.028  26.002   1.027 -0.1817 -0.1776 -0.1307
 2839DPPE   C3A55927   4.006  25.671   1.315  0.0073 -0.0305  0.1822
 2839DPPE   C4A55928   4.290  25.438   1.599  0.2446  0.1240  0.3530
 2839DPPE   C1B55929   4.518  26.747   1.040 -0.3193 -0.1768 -0.3774
 2839DPPE   C2B55930   4.897  26.747   1.295 -0.0736  0.3301 -0.1734
 2839DPPE   C3B55931   4.955  26.679   1.770 -0.0808 -0.0155  0.2801
 2839DPPE   C4B55932   4.945  26.411   2.136  0.0285 -0.3525  0.2064
 2840DPPE   NH355933   2.547  17.989   7.714 -0.2414  0.0458 -0.0554
 2840DPPE   PO455934   2.343  18.279   8.005 -0.2725  0.1408  0.0434
 2840DPPE   GL155935   1.981  18.116   7.881 -0.3085  0.3934 -0.0238
 2840DPPE   GL255936   1.661  18.099   8.087  0.0902  0.0578  0.2593
 2840DPPE   C1A55937   1.681  17.840   7.546  0.2289  0.0262 -0.0223
 2840DPPE   C2A55938   1.386  17.574   7.293  0.0244 -0.0545  0.2297
 2840DPPE   C3A55939   1.033  17.479   7.133  0.4077  0.2645  0.0831
 2840DPPE   C4A55940   0.771  17.230   7.034 -0.2021 -0.1005  0.1205
 2840DPPE   C1B55941   1.348  17.853   8.003 -0.0328  0.1905  0.1846
 2840DPPE   C2B55942   0.978  17.596   7.798 -0.2076  0.1129  0.0445
 2840DPPE   C3B55943   0.720  17.423   7.642  0.2376 -0.0917  0.0390
 2840DPPE   C4B55944   0.336  17.396   7.265  0.0275  0.4740 -0.2131
 2841DPPE   NH355945  12.047  26.928   8.444 -0.0123 -0.1241  0.0592
 2841DPPE   PO455946  11.731  27.182   8.644  0.2635 -0.3637 -0.2250
 2841DPPE   GL155947  12.013  27.491   8.769  0.1490 -0.2193 -0.4207
 2841DPPE   GL255948  12.270  27.367   8.516 -0.2859  0.0089  0.3628
 2841DPPE   C1A55949  12.290  27.830   8.691 -0.2358  0.0893 -0.0977
 2841DPPE   C2A55950  12.754  28.075   8.662 -0.0441  0.0530 -0.0249
 2841DPPE   C3A55951  12.839  28.424   8.376  0.1910  0.0357 -0.2055
 2841DPPE   C4A55952  13.139  28.581   8.066 -0.2348 -0.0950  0.1280
 2841DPPE   C1B55953  12.562  27.624   8.201  0.0485 -0.1282 -0.0551
 2841DPPE   C2B55954  12.540  28.051   8.153  0.1735 -0.0863 -0.3065
 2841DPPE   C3B55955  12.182  28.287   7.879 -0.3454  0.2146  0.1846
 2841DPPE   C4B55956  12.285  28.538   7.653 -0.0168  0.1487 -0.1223
 2842DPPE   NH355957  13.238  26.472   1.778  0.0357  0.1784 -0.1913
 2842DPPE   PO455958  13.570  26.151   1.891 -0.2979 -0.1878  0.1165
 2842DPPE   GL155959  13.387  25.798   2.169 -0.1707 -0.2506 -0.2677
 2842DPPE   GL255960  13.384  25.822   2.539  0.0908 -0.1698 -0.1183
 2842DPPE   C1A55961  13.212  25.358   2.291 -0.2117  0.1785  0.0180
 2842DPPE   C2A55962  12.976  25.032   2.348  0.2132  0.2549 -0.2826
 2842DPPE   C3A55963  12.647  24.878   2.237  0.0535  0.2427 -0.1144
 2842DPPE   C4A55964  12.403  24.909   1.933  0.2107 -0.1162  0.3427
 2842DPPE   C1B55965  13.762  25.511   2.521  0.1746 -0.1403  0.0920
 2842DPPE   C2B55966  13.843  25.051   2.323  0.2105  0.1462  0.2603
 2842DPPE   C3B55967  14.049  24.635   2.262 -0.0334  0.1556 -0.2999
 2842DPPE   C4B55968  14.401  24.554   2.171 -0.0368  0.1345 -0.0201
 2843DPPE   NH355969  35.183   8.830  12.121  0.1335 -0.4528  0.0910
 2843DPPE   PO455970  35.292   8.474  12.403  0.1792 -0.1081 -0.4259
 2843DPPE   GL155971  35.734   8.582  12.703  0.0338 -0.3008  0.1605
 2843DPPE   GL255972  35.953   8.418  12.625 -0.3096  0.0668  0.3663
 2843DPPE   C1A55973  35.950   8.838  12.972  0.0631 -0.1456 -0.1891
 2843DPPE   C2A55974  36.085   9.167  12.931 -0.0068 -0.0165  0.2112
 2843DPPE   C3A55975  36.192   9.559  12.685  0.0391  0.0830  0.1677
 2843DPPE   C4A55976  36.051   9.458  12.238 -0.1537  0.2141 -0.1486
 2843DPPE   C1B55977  36.301   8.551  12.422 -0.0021  0.1073  0.0442
 2843DPPE   C2B55978  36.604   8.635  12.080 -0.2325 -0.2921  0.0443
 2843DPPE   C3B55979  36.713   8.806  11.670  0.5912  0.2558  0.1402
 2843DPPE   C4B55980  36.913   8.770  11.237  0.0412  0.1173 -0.0413
 2844DPPE   NH355981   0.562  21.974   0.241  0.0504 -0.1980 -0.3263
 2844DPPE   PO455982   0.409  21.542   0.103  0.2531 -0.4013  0.2365
 2844DPPE   GL155983   0.440  21.474   0.473 -0.0644 -0.0113  0.2260
 2844DPPE   GL255984   0.567  21.764   0.680  0.0275 -0.1504  0.0957
 2844DPPE   C1A55985   0.806  21.331   0.642  0.2091 -0.0829 -0.0146
 2844DPPE   C2A55986   1.117  21.340   0.975  0.1092  0.0094 -0.2842
 2844DPPE   C3A55987   1.289  21.575   1.280 -0.1504 -0.0288 -0.1116
 2844DPPE   C4A55988   1.639  21.936   1.321  0.3445  0.0355 -0.3951
 2844DPPE   C1B55989   0.618  21.560   1.025  0.0826 -0.1098 -0.0295
 2844DPPE   C2B55990   0.488  21.509   1.455  0.3056 -0.1788  0.1279
 2844DPPE   C3B55991   0.619  21.436   1.871 -0.1759  0.2855 -0.2342
 2844DPPE   C4B55992   0.832  21.094   1.866  0.1614  0.1734 -0.0210
 2845DPPE   NH355993  19.082  24.125   7.918 -0.0370  0.2885  0.0227
 2845DPPE   PO455994  18.782  23.705   7.935 -0.2980  0.3078 -0.1239
 2845DPPE   GL155995  18.385  23.503   7.882 -0.0651  0.0964  0.1579
 2845DPPE   GL255996  18.532  23.278   8.104 -0.0648  0.0119  0.2168
 2845DPPE   C1A55997  17.935  23.353   7.780  0.0487  0.0343  0.1931
 2845DPPE   C2A55998  17.524  23.086   7.656  0.0783 -0.2769  0.0728
 2845DPPE   C3A55999  17.242  22.731   7.716  0.3118  0.1529 -0.1690
 2845DPPE   C4A56000  16.873  22.450   7.749 -0.1788  0.0552  0.2074
 2845DPPE   C1B56001  18.163  23.122   8.195  0.0596  0.2007 -0.0049
 2845DPPE   C2B56002  17.785  23.008   8.137  0.0289 -0.1844 -0.1439
 2845DPPE   C3B56003  17.491  22.827   8.175 -0.0001  0.0723 -0.0840
 2845DPPE   C4B56004  17.283  22.462   8.135 -0.2979  0.1683 -0.0514
 2846DPPE   NH356005   3.341  18.196   5.000  0.0008  0.0208  0.3142
 2846DPPE   PO456006   3.079  17.963   4.825  0.1245 -0.0461  0.1718
 2846DPPE   GL156007   2.836  17.670   4.680  0.2337  0.1366  0.1017
 2846DPPE   GL256008   2.576  17.815   4.713  0.1328  0.2162  0.1951
 2846DPPE   C1A56009   2.621  17.362   4.531  0.0132 -0.1019 -0.2153
 2846DPPE   C2A56010   2.551  16.901   4.413 -0.0693 -0.2431 -0.0118
 2846DPPE   C3A56011   2.652  16.576   4.114 -0.1241  0.3217 -0.1437
 2846DPPE   C4A56012   2.837  16.405   3.765 -0.0581  0.0464 -0.1073
 2846DPPE   C1B56013   2.291  17.875   4.507 -0.0878  0.3033  0.2897
 2846DPPE   C2B56014   1.903  17.737   4.291  0.3796 -0.0588 -0.0803
 2846DPPE   C3B56015   1.536  17.636   3.986 -0.1282  0.0662  0.0908
 2846DPPE   C4B56016   1.328  17.314   3.805 -0.2751  0.0214 -0.2155
 2847DPPE   NH356017   4.899  23.031  24.940  0.0287 -0.1145  0.0972
 2847DPPE   PO456018   5.344  22.991  24.603 -0.0044 -0.0537 -0.0426
 2847DPPE   GL156019   5.412  22.993  25.072 -0.5407  0.4148 -0.0156
 2847DPPE   GL256020   5.307  23.198  25.244 -0.0947 -0.1744  0.2506
 2847DPPE   C1A56021   5.271  22.645  25.311  0.0482  0.3536  0.3355
 2847DPPE   C2A56022   5.170  22.321  25.538  0.0392 -0.0617  0.3761
 2847DPPE   C3A56023   5.106  22.128  25.974  0.0070 -0.2309 -0.2530
 2847DPPE   C4A56024   5.108  22.093  26.340 -0.0153 -0.2303 -0.0426
 2847DPPE   C1B56025   5.489  23.022  25.623  0.0672  0.1226 -0.0777
 2847DPPE   C2B56026   5.501  22.932  26.058  0.0964  0.2777  0.0858
 2847DPPE   C3B56027   5.711  22.820  26.546  0.0098 -0.1068  0.1002
 2847DPPE   C4B56028   5.306  22.604  26.873  0.0193 -0.2397 -0.0629
 2848DPPE   NH356029  31.491  15.265  17.827  0.0146 -0.0614  0.0385
 2848DPPE   PO456030  31.331  15.408  17.377  0.1572 -0.0699  0.0138
 2848DPPE   GL156031  31.689  15.623  17.384 -0.0570  0.4182 -0.0376
 2848DPPE   GL256032  31.910  15.495  17.638  0.0683 -0.1645  0.2786
 2848DPPE   C1A56033  32.018  15.556  17.149 -0.2006 -0.1559 -0.0237
 2848DPPE   C2A56034  31.985  15.669  16.697  0.1205  0.0238  0.0067
 2848DPPE   C3A56035  32.303  15.625  16.277 -0.1188 -0.1147 -0.1604
 2848DPPE   C4A56036  32.173  15.481  15.853 -0.2592 -0.0399 -0.0622
 2848DPPE   C1B56037  32.259  15.581  17.619  0.3515 -0.3938  0.0150
 2848DPPE   C2B56038  32.577  15.721  17.327  0.1872 -0.4581  0.1446
 2848DPPE   C3B56039  32.907  15.873  17.149 -0.2285  0.2341  0.0817
 2848DPPE   C4B56040  33.278  15.983  17.122 -0.1792  0.0317  0.0599
 2849DPPE   NH356041   6.160  31.835  16.447 -0.0763  0.3237  0.2734
 2849DPPE   PO456042   6.286  31.697  16.830 -0.0134  0.0543  0.1790
 2849DPPE   GL156043   6.301  31.333  16.593  0.0357 -0.0867 -0.3342
 2849DPPE   GL256044   6.002  31.194  16.614  0.0248  0.2874 -0.2478
 2849DPPE   C1A56045   6.361  30.923  16.788  0.0645 -0.1770 -0.0772
 2849DPPE   C2A56046   6.175  30.564  17.058  0.2878 -0.1584  0.1276
 2849DPPE   C3A56047   6.055  30.308  17.232 -0.0582  0.0005  0.0351
 2849DPPE   C4A56048   5.843  29.958  17.110 -0.0008 -0.0203 -0.1027
 2849DPPE   C1B56049   6.208  31.065  16.246  0.1290 -0.0772  0.2161
 2849DPPE   C2B56050   5.877  30.698  16.050  0.1307 -0.0163 -0.0299
 2849DPPE   C3B56051   5.759  30.406  15.660  0.0744 -0.1936 -0.1707
 2849DPPE   C4B56052   5.672  30.356  15.226 -0.1794  0.0476  0.1028
 2850DPPE   NH356053   0.333  22.125   8.245 -0.1195  0.0649  0.0378
 2850DPPE   PO456054   0.419  21.914   7.797  0.0536  0.1998  0.0807
 2850DPPE   GL156055   0.064  21.663   7.810  0.1481 -0.0855 -0.0524
 2850DPPE   GL256056  -0.049  22.076   7.947  0.4050  0.2826 -0.1198
 2850DPPE   C1A56057  -0.278  21.351   7.804 -0.1689 -0.0308  0.0258
 2850DPPE   C2A56058  -0.740  21.361   7.788  0.1259  0.0553  0.4047
 2850DPPE   C3A56059  -1.016  21.477   7.669  0.1767  0.2821  0.0752
 2850DPPE   C4A56060  -1.349  21.325   7.573  0.0058  0.2053 -0.2628
 2850DPPE   C1B56061  -0.358  22.320   7.923 -0.2838 -0.1436 -0.0731
 2850DPPE   C2B56062  -0.674  22.393   7.693  0.2382 -0.0321  0.0997
 2850DPPE   C3B56063  -1.069  22.479   7.858  0.0282  0.1607  0.2506
 2850DPPE   C4B56064  -1.469  22.568   7.936 -0.0194 -0.0610  0.1496
 2851DPPE   NH356065  35.540  10.857   2.531  0.3055 -0.2710 -0.0622
 2851DPPE   PO456066  35.980  11.063   2.693  0.0788  0.0538 -0.1199
 2851DPPE   GL156067  35.820  11.231   3.027  0.2324 -0.0011 -0.2797
 2851DPPE   GL256068  36.198  11.196   3.140  0.2358 -0.0575  0.3447
 2851DPPE   C1A56069  35.927  11.750   3.236  0.2597  0.3462 -0.0445
 2851DPPE   C2A56070  36.018  12.182   3.242  0.0197 -0.1920 -0.0238
 2851DPPE   C3A56071  36.018  12.486   3.503 -0.0943 -0.0396  0.1672
 2851DPPE   C4A56072  36.277  12.773   3.556  0.1336 -0.0660 -0.2356
 2851DPPE   C1B56073  36.368  11.485   3.322 -0.0826 -0.2236  0.0302
 2851DPPE   C2B56074  36.491  11.982   3.282  0.1335 -0.0660 -0.2832
 2851DPPE   C3B56075  36.555  12.378   3.326 -0.1133  0.1342  0.0950
 2851DPPE   C4B56076  36.930  12.317   3.145  0.0181  0.0526 -0.0518
 2852DPPE   NH356077   0.108  17.826  21.305 -0.1245  0.2911 -0.2283
 2852DPPE   PO456078   0.176  18.142  21.219  0.3450  0.2434  0.0471
 2852DPPE   GL156079  -0.055  18.025  20.853 -0.0070  0.0883 -0.1273
 2852DPPE   GL256080   0.029  18.415  20.796  0.0587 -0.0516 -0.0267
 2852DPPE   C1A56081  -0.229  17.979  20.458 -0.1355  0.1992 -0.2591
 2852DPPE   C2A56082  -0.166  18.112  20.087 -0.0121 -0.0797  0.4780
 2852DPPE   C3A56083  -0.088  18.217  19.699  0.0354 -0.3363  0.0564
 2852DPPE   C4A56084  -0.095  18.613  19.519 -0.0136  0.1790  0.2614
 2852DPPE   C1B56085   0.196  18.245  20.364  0.0920  0.0974  0.1999
 2852DPPE   C2B56086   0.383  18.236  19.899 -0.2195  0.1875 -0.0251
 2852DPPE   C3B56087   0.379  18.411  19.511 -0.3012  0.2018  0.2867
 2852DPPE   C4B56088   0.516  18.404  19.070 -0.1025  0.2207  0.0459
 2853DPPE   NH356089  17.953  21.637  15.209 -0.2456  0.0212  0.0898
 2853DPPE   PO456090  17.992  21.725  14.780  0.1030 -0.1223  0.1245
 2853DPPE   GL156091  17.664  22.019  14.732 -0.0653  0.1356  0.0867
 2853DPPE   GL256092  17.550  22.289  14.820 -0.2695  0.0918  0.0394
 2853DPPE   C1A56093  17.229  21.934  14.958 -0.0486  0.0058  0.2412
 2853DPPE   C2A56094  16.991  22.115  15.145 -0.0192  0.0168 -0.1408
 2853DPPE   C3A56095  16.976  22.321  15.441 -0.0837 -0.1324  0.2432
 2853DPPE   C4A56096  16.985  22.639  15.816 -0.0660  0.0610  0.0623
 2853DPPE   C1B56097  17.229  22.462  14.784 -0.2956  0.0229 -0.3976
 2853DPPE   C2B56098  16.917  22.761  14.874 -0.2696 -0.0415  0.1239
 2853DPPE   C3B56099  16.879  23.122  15.077  0.1996  0.1989  0.0831
 2853DPPE   C4B56100  16.543  23.371  15.067  0.0974 -0.0816 -0.0595
 2854DPPE   NH356101  30.394  15.134  12.462  0.0970  0.3774  0.0126
 2854DPPE   PO456102  30.097  15.087  12.806 -0.2915 -0.0335 -0.1450
 2854DPPE   GL156103  30.186  15.445  13.031 -0.3175  0.0256  0.0338
 2854DPPE   GL256104  30.464  15.426  13.314 -0.1556  0.0289 -0.0430
 2854DPPE   C1A56105  30.345  15.849  13.252 -0.0554  0.0332  0.2260
 2854DPPE   C2A56106  30.228  15.974  13.683  0.1314 -0.0276 -0.2858
 2854DPPE   C3A56107  30.333  16.055  14.169 -0.1195 -0.0193 -0.0790
 2854DPPE   C4A56108  30.639  15.941  14.359  0.1212 -0.2684 -0.0024
 2854DPPE   C1B56109  30.691  15.551  12.825 -0.0175  0.0152  0.0508
 2854DPPE   C2B56110  30.813  15.818  12.471  0.0890 -0.1286 -0.0439
 2854DPPE   C3B56111  31.301  15.756  12.435  0.1003 -0.1140 -0.2855
 2854DPPE   C4B56112  31.600  15.585  12.596 -0.1674 -0.3873  0.1172
 2855DPPE   NH356113  34.275  21.100  19.437 -0.0590  0.1736  0.2861
 2855DPPE   PO456114  34.160  20.673  19.357  0.0376 -0.2388 -0.2085
 2855DPPE   GL156115  34.361  20.355  19.163  0.3989  0.0525  0.1488
 2855DPPE   GL256116  34.587  20.198  19.380  0.1272  0.0400 -0.2216
 2855DPPE   C1A56117  34.709  20.279  18.875  0.0498  0.1177  0.1838
 2855DPPE   C2A56118  34.705  20.038  18.583 -0.0022  0.0333 -0.0307
 2855DPPE   C3A56119  35.083  19.933  18.428 -0.0052 -0.0152 -0.0027
 2855DPPE   C4A56120  35.395  19.613  18.748 -0.2589  0.0115  0.1060
 2855DPPE   C1B56121  34.905  19.906  19.228 -0.2313  0.5651 -0.0094
 2855DPPE   C2B56122  35.171  20.049  18.931 -0.3248  0.1999 -0.0359
 2855DPPE   C3B56123  35.579  20.057  18.806 -0.1560  0.1583  0.1914
 2855DPPE   C4B56124  35.552  20.232  18.397  0.1112  0.0537 -0.1745
 2856DPPE   NH356125   0.732  17.060  21.605  0.4176  0.3705  0.1014
 2856DPPE   PO456126   1.119  17.216  21.612  0.0108  0.1287 -0.1799
 2856DPPE   GL156127   1.065  17.098  21.204  0.1482 -0.1889 -0.0115
 2856DPPE   GL256128   1.022  17.506  21.088  0.3199 -0.0875 -0.1033
 2856DPPE   C1A56129   1.039  16.821  20.786  0.0360 -0.5095  0.1410
 2856DPPE   C2A56130   1.092  16.667  20.291 -0.0040 -0.1291 -0.2847
 2856DPPE   C3A56131   1.128  16.630  19.844  0.0312  0.1065 -0.2554
 2856DPPE   C4A56132   1.332  16.242  19.660  0.1960 -0.2419  0.0215
 2856DPPE   C1B56133   0.965  17.409  20.566  0.0371  0.1912  0.2054
 2856DPPE   C2B56134   0.610  17.426  20.225 -0.0011 -0.0186 -0.1282
 2856DPPE   C3B56135   0.463  17.360  19.849 -0.1392 -0.1715  0.1278
 2856DPPE   C4B56136   0.342  17.302  19.427 -0.0350  0.2412  0.2176
 2857DPPE   NH356137   4.978  13.510   8.742  0.0758 -0.1155  0.1709
 2857DPPE   PO456138   4.768  13.721   9.142  0.1686 -0.0135 -0.0784
 2857DPPE   GL156139   4.592  13.360   9.235 -0.1305  0.0036  0.0785
 2857DPPE   GL256140   4.453  12.980   9.175  0.2455 -0.0967 -0.1467
 2857DPPE   C1A56141   4.454  13.177   9.637 -0.2416 -0.0924  0.1840
 2857DPPE   C2A56142   4.490  12.772   9.887 -0.1238  0.3262  0.1397
 2857DPPE   C3A56143   4.376  12.404   9.808 -0.1820 -0.0626 -0.0487
 2857DPPE   C4A56144   4.598  12.010   9.677 -0.1491 -0.1531 -0.1901
 2857DPPE   C1B56145   4.103  13.316   9.098  0.1868  0.2196  0.0405
 2857DPPE   C2B56146   3.653  13.514   9.165 -0.1480  0.0310 -0.1163
 2857DPPE   C3B56147   3.304  13.476   9.091  0.0965  0.5345  0.1550
 2857DPPE   C4B56148   2.923  13.292   9.308 -0.0558  0.0862  0.0100
 2858DPPE   NH356149  11.568  20.710  16.907  0.3753  0.0079 -0.2504
 2858DPPE   PO456150  11.551  21.173  17.010 -0.1760 -0.0628 -0.0461
 2858DPPE   GL156151  11.959  21.158  17.287 -0.0678 -0.3504  0.0750
 2858DPPE   GL256152  12.341  21.156  17.151 -0.0579 -0.2555 -0.1276
 2858DPPE   C1A56153  12.202  21.069  17.634  0.3050 -0.1194 -0.1667
 2858DPPE   C2A56154  12.520  20.933  17.989 -0.1084 -0.0000  0.2483
 2858DPPE   C3A56155  12.560  21.081  18.372 -0.0032  0.2233 -0.2075
 2858DPPE   C4A56156  12.569  20.966  18.794 -0.1086  0.5425  0.0303
 2858DPPE   C1B56157  12.622  20.961  17.237 -0.1530  0.1803  0.2571
 2858DPPE   C2B56158  12.903  20.885  17.537  0.4115 -0.0911  0.0192
 2858DPPE   C3B56159  12.980  20.709  17.996  0.1076 -0.0774  0.0288
 2858DPPE   C4B56160  13.145  20.366  18.275 -0.1357  0.0037  0.1315
 2859DPPE   NH356161   5.637  18.320  22.631 -0.0401  0.0388 -0.2361
 2859DPPE   PO456162   5.898  18.492  22.276  0.4314 -0.0089 -0.1880
 2859DPPE   GL156163   6.249  18.632  22.036 -0.0364 -0.3461 -0.0204
 2859DPPE   GL256164   6.278  19.020  21.846 -0.1449 -0.1163 -0.0555
 2859DPPE   C1A56165   6.368  18.467  21.660  0.1886  0.0846  0.0973
 2859DPPE   C2A56166   6.645  18.246  21.344  0.3465  0.1249  0.0027
 2859DPPE   C3A56167   6.898  18.279  20.916  0.0197 -0.1859 -0.2119
 2859DPPE   C4A56168   6.965  18.286  20.534 -0.1359  0.2756 -0.3324
 2859DPPE   C1B56169   6.216  19.026  21.405  0.0285  0.0622  0.0713
 2859DPPE   C2B56170   6.333  19.254  21.016  0.0451 -0.0053  0.1689
 2859DPPE   C3B56171   6.437  19.577  20.864 -0.1288 -0.0891 -0.0036
 2859DPPE   C4B56172   6.368  19.910  20.534 -0.3111  0.2052  0.0063
 2860DPPE   NH356173   4.598  10.520   3.014 -0.0544  0.2458 -0.0128
 2860DPPE   PO456174   4.227  10.544   2.686  0.0089  0.1954  0.0916
 2860DPPE   GL156175   3.996  10.769   2.989 -0.1504  0.0114  0.1752
 2860DPPE   GL256176   3.857  10.952   2.749 -0.0317 -0.1428 -0.4623
 2860DPPE   C1A56177   4.139  11.203   3.105  0.3039  0.2233  0.1708
 2860DPPE   C2A56178   4.291  11.559   3.276 -0.0717 -0.2202  0.0652
 2860DPPE   C3A56179   4.271  12.031   3.411  0.3135 -0.2750 -0.0792
 2860DPPE   C4A56180   4.166  12.295   3.754  0.4354  0.1627 -0.1413
 2860DPPE   C1B56181   3.655  11.089   3.183 -0.3257 -0.1122 -0.3268
 2860DPPE   C2B56182   3.465  11.001   3.611  0.0911 -0.1839  0.2751
 2860DPPE   C3B56183   3.049  10.976   3.721  0.2131 -0.0612  0.1897
 2860DPPE   C4B56184   2.882  10.700   3.880 -0.1148  0.1699 -0.0101
 2861DPPE   NH356185   0.784  29.632  16.790  0.3602  0.1199 -0.0203
 2861DPPE   PO456186   0.824  29.397  17.225 -0.1446 -0.0279  0.2254
 2861DPPE   GL156187   1.186  29.284  16.878 -0.1969  0.0129 -0.0943
 2861DPPE   GL256188   1.378  29.236  17.060 -0.0589  0.0822 -0.1171
 2861DPPE   C1A56189   1.258  28.740  16.612 -0.1980 -0.0815  0.2322
 2861DPPE   C2A56190   1.240  28.460  16.295 -0.0490 -0.0485 -0.1832
 2861DPPE   C3A56191   1.339  28.007  16.179 -0.0107 -0.3298  0.3655
 2861DPPE   C4A56192   1.469  27.949  15.874 -0.2070  0.1556 -0.0240
 2861DPPE   C1B56193   1.722  28.810  17.240  0.0535 -0.0113 -0.0791
 2861DPPE   C2B56194   2.107  28.620  17.105 -0.1812 -0.0432  0.0971
 2861DPPE   C3B56195   2.273  28.513  16.707  0.0858  0.1201  0.2690
 2861DPPE   C4B56196   2.747  28.389  16.611  0.0341  0.0439  0.2017
 2862DPPE   NH356197   1.830  18.956   5.637  0.0367  0.1040 -0.1428
 2862DPPE   PO456198   1.387  19.049   5.790  0.4092  0.1939  0.0398
 2862DPPE   GL156199   1.268  18.630   5.555  0.0753 -0.0523  0.1553
 2862DPPE   GL256200   1.536  18.611   5.417 -0.2728 -0.0013  0.1353
 2862DPPE   C1A56201   1.023  18.435   5.463  0.0846  0.2921  0.0284
 2862DPPE   C2A56202   0.961  18.037   5.696  0.0227  0.0618 -0.0113
 2862DPPE   C3A56203   0.912  17.730   6.087 -0.0538  0.0889 -0.3124
 2862DPPE   C4A56204   0.909  17.322   6.296 -0.0554 -0.1980 -0.2956
 2862DPPE   C1B56205   1.262  18.635   5.085  0.1753 -0.2855  0.1813
 2862DPPE   C2B56206   0.727  18.776   5.030 -0.1201  0.4628 -0.2001
 2862DPPE   C3B56207   0.369  18.944   5.279  0.2199  0.1922 -0.1725
 2862DPPE   C4B56208  -0.103  19.283   5.321 -0.3425  0.2822 -0.0695
 2863DPPE   NH356209   3.369  15.808  13.965  0.3305 -0.1547 -0.4612
 2863DPPE   PO456210   3.157  16.128  13.792  0.2168  0.2073  0.1430
 2863DPPE   GL156211   2.849  16.020  14.188  0.1240 -0.2415  0.3398
 2863DPPE   GL256212   2.788  16.010  14.489 -0.3856 -0.3423 -0.0028
 2863DPPE   C1A56213   2.681  15.657  13.978 -0.1310  0.5057 -0.2636
 2863DPPE   C2A56214   2.500  15.511  13.664 -0.1564 -0.3737  0.0355
 2863DPPE   C3A56215   2.208  15.269  13.360  0.1460 -0.0084 -0.0064
 2863DPPE   C4A56216   1.795  15.161  13.365 -0.0406 -0.0447 -0.0884
 2863DPPE   C1B56217   2.656  15.522  14.557 -0.5177 -0.2610  0.0318
 2863DPPE   C2B56218   2.743  15.184  14.275 -0.2609 -0.1063  0.1188
 2863DPPE   C3B56219   2.814  14.728  14.165  0.0819 -0.1324 -0.2056
 2863DPPE   C4B56220   2.989  14.309  14.162  0.2286 -0.0602 -0.0485
 2864DPPE   NH356221   4.484  15.646  16.141  0.2072  0.2156 -0.0829
 2864DPPE   PO456222   4.262  16.045  16.343  0.2835  0.2698 -0.3116
 2864DPPE   GL156223   4.009  15.693  16.478 -0.0209 -0.0710  0.0542
 2864DPPE   GL256224   4.035  15.874  16.752 -0.0693 -0.0039 -0.0047
 2864DPPE   C1A56225   4.037  15.289  16.498 -0.1297  0.0511 -0.0973
 2864DPPE   C2A56226   3.994  15.073  16.846 -0.0432 -0.1743  0.0432
 2864DPPE   C3A56227   3.945  14.686  17.109  0.0752  0.0406 -0.2352
 2864DPPE   C4A56228   3.980  14.520  17.543  0.1263  0.0204 -0.2451
 2864DPPE   C1B56229   4.169  15.561  17.067  0.0042  0.1660 -0.1886
 2864DPPE   C2B56230   4.267  15.527  17.526 -0.2549 -0.3521 -0.2998
 2864DPPE   C3B56231   4.099  15.697  17.796 -0.0746  0.2577  0.1004
 2864DPPE   C4B56232   4.075  15.314  18.004  0.1682  0.2545  0.0283
 2865DPPE   NH356233  29.136  19.170  13.663  0.2761  0.0931 -0.0315
 2865DPPE   PO456234  29.138  19.648  13.513 -0.0707 -0.2694  0.1330
 2865DPPE   GL156235  29.529  19.561  13.545  0.1753  0.1515  0.4474
 2865DPPE   GL256236  29.562  19.408  13.840  0.2060  0.0229 -0.1506
 2865DPPE   C1A56237  29.921  19.169  13.635  0.2487 -0.0304  0.0004
 2865DPPE   C2A56238  30.385  18.987  13.607  0.0552 -0.4580  0.0464
 2865DPPE   C3A56239  30.868  19.128  13.498  0.1806 -0.2737  0.0494
 2865DPPE   C4A56240  31.247  19.016  13.523  0.1714 -0.3062 -0.1065
 2865DPPE   C1B56241  29.812  19.168  14.115 -0.0908 -0.1935 -0.3443
 2865DPPE   C2B56242  30.112  18.790  14.414  0.1347 -0.0119  0.1202
 2865DPPE   C3B56243  30.455  18.864  14.481  0.0318 -0.3285 -0.0524
 2865DPPE   C4B56244  30.670  19.103  14.400 -0.0324  0.0907  0.3178
 2866DPPE   NH356245   1.861  16.536  10.623 -0.1358 -0.0928  0.0577
 2866DPPE   PO456246   2.080  16.635  10.961  0.0416 -0.4045  0.5182
 2866DPPE   GL156247   1.968  16.296  11.150 -0.2250  0.2479  0.0224
 2866DPPE   GL256248   1.985  15.983  11.065  0.3645 -0.1610  0.1944
 2866DPPE   C1A56249   1.574  15.956  11.268 -0.0349  0.2152  0.2248
 2866DPPE   C2A56250   1.387  15.780  11.028  0.0034 -0.1609 -0.1122
 2866DPPE   C3A56251   1.109  15.430  10.926 -0.2171 -0.2523 -0.2818
 2866DPPE   C4A56252   1.079  15.137  11.209  0.3614 -0.0148 -0.1468
 2866DPPE   C1B56253   1.956  15.539  11.053 -0.0700  0.0848  0.5388
 2866DPPE   C2B56254   1.603  15.305  11.123 -0.1500  0.1018  0.0520
 2866DPPE   C3B56255   1.601  14.849  11.216  0.0685  0.0142  0.0804
 2866DPPE   C4B56256   1.524  14.384  11.042 -0.0945 -0.1280  0.1037
 2867DPPE   NH356257   6.993  28.663   1.243 -0.3599  0.0022  0.0140
 2867DPPE   PO456258   7.411  28.474   1.364 -0.4316  0.2245 -0.4044
 2867DPPE   GL156259   7.152  28.425   1.744  0.2700  0.1209  0.0872
 2867DPPE   GL256260   6.996  28.630   1.951 -0.2182  0.3206  0.0644
 2867DPPE   C1A56261   7.241  28.206   2.182 -0.0376 -0.2290  0.4143
 2867DPPE   C2A56262   7.077  28.196   2.515 -0.1517 -0.0666  0.0938
 2867DPPE   C3A56263   7.006  27.723   2.696 -0.0473 -0.3511 -0.1118
 2867DPPE   C4A56264   7.182  27.417   2.926 -0.0923  0.0505 -0.1317
 2867DPPE   C1B56265   6.788  28.293   2.061 -0.1839  0.1687 -0.0925
 2867DPPE   C2B56266   6.581  28.006   2.402  0.0076 -0.1282 -0.1212
 2867DPPE   C3B56267   6.460  27.660   2.640 -0.0899 -0.2331 -0.3963
 2867DPPE   C4B56268   6.128  27.281   2.789  0.3946 -0.0091 -0.0405
 2868DPPE   NH356269  14.298  23.242   0.422  0.0367 -0.1162 -0.1183
 2868DPPE   PO456270  13.869  22.935   0.370 -0.1302 -0.3638  0.0121
 2868DPPE   GL156271  13.848  22.545   0.533  0.2019 -0.0188  0.0638
 2868DPPE   GL256272  13.524  22.359   0.400  0.0047  0.0332 -0.0768
 2868DPPE   C1A56273  13.817  22.177   0.760  0.5996  0.3175  0.1399
 2868DPPE   C2A56274  13.873  21.996   1.299 -0.0757 -0.1515 -0.2327
 2868DPPE   C3A56275  13.670  21.998   1.686 -0.1808 -0.5203  0.1309
 2868DPPE   C4A56276  13.404  22.374   1.830 -0.1674  0.0181 -0.6474
 2868DPPE   C1B56277  13.499  21.846   0.448  0.3465  0.0478 -0.0386
 2868DPPE   C2B56278  13.552  21.427   0.630 -0.0724 -0.0250 -0.2001
 2868DPPE   C3B56279  13.674  21.041   0.489  0.1782  0.2737 -0.1022
 2868DPPE   C4B56280  13.565  20.931   0.120  0.0555 -0.1458  0.1592
 2869DPPE   NH356281   4.116  26.182   5.055  0.1294 -0.0344  0.0043
 2869DPPE   PO456282   4.348  25.907   4.795 -0.5955 -0.2382 -0.0775
 2869DPPE   GL156283   4.157  26.107   4.550 -0.1772 -0.0622  0.3525
 2869DPPE   GL256284   4.318  26.435   4.531  0.1406 -0.1052 -0.1243
 2869DPPE   C1A56285   3.902  26.284   4.271 -0.6157  0.2194 -0.2450
 2869DPPE   C2A56286   3.852  26.445   3.813  0.1400  0.0397  0.1650
 2869DPPE   C3A56287   3.873  26.547   3.400  0.1567  0.2419 -0.0573
 2869DPPE   C4A56288   3.860  26.837   3.067  0.1705  0.0845 -0.0399
 2869DPPE   C1B56289   4.469  26.634   4.170 -0.1955 -0.2399  0.2490
 2869DPPE   C2B56290   4.175  26.867   3.905  0.2985  0.5175 -0.0360
 2869DPPE   C3B56291   3.803  26.955   3.682 -0.2080 -0.1146  0.1536
 2869DPPE   C4B56292   3.496  27.049   3.455  0.1861  0.0768  0.1168
 2870DPPE   NH356293   1.030  30.341   5.677 -0.2071  0.3198  0.0551
 2870DPPE   PO456294   0.685  30.211   5.912  0.2052 -0.0473  0.2002
 2870DPPE   GL156295   0.796  29.826   6.063  0.2183  0.4596 -0.1916
 2870DPPE   GL256296   1.139  29.734   5.870 -0.0635 -0.2731 -0.1134
 2870DPPE   C1A56297   0.914  29.446   6.105  0.0240 -0.3547 -0.2387
 2870DPPE   C2A56298   1.124  29.018   6.133  0.0480  0.1975  0.1482
 2870DPPE   C3A56299   1.332  28.674   6.220 -0.1293  0.0939 -0.3260
 2870DPPE   C4A56300   1.776  28.382   6.223 -0.2486  0.2694  0.1135
 2870DPPE   C1B56301   1.433  29.537   6.049  0.3004 -0.2099 -0.1592
 2870DPPE   C2B56302   1.665  29.147   6.059 -0.0668 -0.0841  0.1735
 2870DPPE   C3B56303   1.924  28.833   5.932 -0.2940  0.0399  0.1965
 2870DPPE   C4B56304   2.163  28.410   5.878  0.0922  0.0437 -0.3360
 2871DPPE   NH356305  16.215  23.034  17.788  0.0177 -0.1195 -0.2175
 2871DPPE   PO456306  16.251  23.235  18.160  0.4934 -0.1644  0.2213
 2871DPPE   GL156307  15.767  23.320  17.916 -0.2891 -0.2169 -0.2341
 2871DPPE   GL256308  15.673  22.922  17.906  0.0669  0.0428  0.1802
 2871DPPE   C1A56309  15.669  23.401  17.454 -0.4339 -0.0636 -0.0642
 2871DPPE   C2A56310  15.855  23.385  16.984 -0.1391 -0.0548  0.0839
 2871DPPE   C3A56311  15.772  23.196  16.494 -0.0079  0.1113  0.1477
 2871DPPE   C4A56312  15.551  22.860  16.417 -0.2427  0.3272  0.0086
 2871DPPE   C1B56313  15.243  22.850  17.815  0.1780  0.1434  0.2474
 2871DPPE   C2B56314  14.738  23.086  17.836 -0.4620 -0.1187 -0.1973
 2871DPPE   C3B56315  14.606  23.033  18.123 -0.2411  0.1404 -0.0818
 2871DPPE   C4B56316  14.330  23.065  18.359 -0.1935 -0.2861  0.1004
 2872DPPE   NH356317  10.966  25.288  16.685 -0.1901  0.1983  0.1736
 2872DPPE   PO456318  10.732  25.607  16.755 -0.2717 -0.1093 -0.0724
 2872DPPE   GL156319  10.897  25.769  17.027  0.1676 -0.0307  0.1081
 2872DPPE   GL256320  11.058  26.021  16.834 -0.1109  0.2021  0.2369
 2872DPPE   C1A56321  10.975  25.952  17.455  0.3457  0.0694  0.0388
 2872DPPE   C2A56322  11.127  26.027  17.970  0.1139 -0.0705 -0.3424
 2872DPPE   C3A56323  11.334  25.870  18.291  0.1102 -0.0248 -0.0136
 2872DPPE   C4A56324  11.258  25.570  18.600 -0.2413  0.2763  0.1164
 2872DPPE   C1B56325  11.402  26.024  17.071 -0.1821 -0.2555 -0.2310
 2872DPPE   C2B56326  11.470  25.966  17.518  0.0784 -0.0612  0.1533
 2872DPPE   C3B56327  11.639  25.758  17.921 -0.1507 -0.1968 -0.0550
 2872DPPE   C4B56328  12.034  25.819  18.085 -0.3373  0.1085 -0.2144
 2873DPPE   NH356329  15.853  27.256   5.207 -0.1002  0.2299 -0.1732
 2873DPPE   PO456330  15.793  27.576   5.461 -0.0757 -0.1864  0.2670
 2873DPPE   GL156331  15.570  27.296   5.666 -0.3574 -0.2734  0.0345
 2873DPPE   GL256332  15.401  27.156   5.513 -0.4175 -0.2029 -0.4903
 2873DPPE   C1A56333  15.179  27.265   5.936 -0.2675 -0.0203  0.0548
 2873DPPE   C2A56334  14.778  27.142   5.853 -0.1243  0.0357  0.0693
 2873DPPE   C3A56335  14.382  27.041   6.101  0.0750  0.1426 -0.2284
 2873DPPE   C4A56336  14.217  26.765   6.504  0.0477  0.5061  0.0316
 2873DPPE   C1B56337  15.069  26.844   5.543 -0.1877  0.1778 -0.0784
 2873DPPE   C2B56338  14.852  26.561   5.870 -0.1073 -0.2013  0.0987
 2873DPPE   C3B56339  14.643  26.138   5.932  0.2339 -0.1427 -0.1930
 2873DPPE   C4B56340  14.537  25.671   6.113  0.0367 -0.1031  0.2406
 2874DPPE   NH356341  30.855  17.223   5.071 -0.0351  0.2442 -0.0956
 2874DPPE   PO456342  31.061  16.788   5.146  0.0945 -0.3215 -0.0576
 2874DPPE   GL156343  31.475  16.740   5.177  0.0110 -0.2493  0.0232
 2874DPPE   GL256344  31.604  16.513   5.285  0.3404  0.0234 -0.1279
 2874DPPE   C1A56345  31.821  16.921   4.833 -0.1070  0.0789  0.2627
 2874DPPE   C2A56346  32.164  17.096   4.791 -0.1298 -0.0963 -0.0709
 2874DPPE   C3A56347  32.625  17.088   4.655  0.0782 -0.1425  0.0300
 2874DPPE   C4A56348  32.721  16.835   4.334  0.0987 -0.0442 -0.2338
 2874DPPE   C1B56349  32.102  16.387   5.356 -0.2845 -0.2261 -0.0160
 2874DPPE   C2B56350  32.243  16.024   5.586  0.0094 -0.2033 -0.1199
 2874DPPE   C3B56351  32.421  15.939   6.053 -0.0184 -0.2572  0.3439
 2874DPPE   C4B56352  32.170  16.004   6.343 -0.1856 -0.1148  0.2764
 2875DPPE   NH356353   0.198  23.406   0.229  0.2137 -0.1469 -0.1099
 2875DPPE   PO456354   0.325  22.957   0.287  0.3081 -0.2907  0.1305
 2875DPPE   GL156355   0.292  22.992   0.777  0.0356 -0.3040  0.4787
 2875DPPE   GL256356   0.554  22.842   0.739 -0.1271  0.0085  0.3894
 2875DPPE   C1A56357   0.249  22.927   1.225  0.0984  0.0733  0.2573
 2875DPPE   C2A56358   0.320  23.054   1.588  0.4447 -0.0200 -0.1308
 2875DPPE   C3A56359   0.053  23.289   1.680  0.3740  0.1173 -0.2078
 2875DPPE   C4A56360  -0.324  23.555   1.806  0.1026  0.2228 -0.1688
 2875DPPE   C1B56361   0.640  22.628   1.183 -0.0860 -0.2050 -0.2332
 2875DPPE   C2B56362   0.964  22.353   1.420 -0.0107 -0.2444  0.2325
 2875DPPE   C3B56363   1.259  22.079   1.673 -0.2191  0.2924 -0.2796
 2875DPPE   C4B56364   1.300  22.021   2.093 -0.0508  0.1375 -0.0526
 2876DPPE   NH356365  33.503  25.908  14.681 -0.0947  0.0055 -0.3621
 2876DPPE   PO456366  33.568  25.541  14.688  0.0696  0.3343 -0.0858
 2876DPPE   GL156367  34.067  25.563  14.533 -0.1110 -0.0247  0.1482
 2876DPPE   GL256368  34.218  25.440  14.755  0.2364  0.1308 -0.2547
 2876DPPE   C1A56369  34.203  25.234  14.210  0.0184  0.0116 -0.1384
 2876DPPE   C2A56370  34.292  24.728  14.210  0.0131  0.4549  0.0368
 2876DPPE   C3A56371  34.643  24.564  14.183  0.3605  0.0038  0.3710
 2876DPPE   C4A56372  35.047  24.308  14.288 -0.0217 -0.0488  0.0260
 2876DPPE   C1B56373  34.089  25.092  14.711  0.0899 -0.1086  0.2539
 2876DPPE   C2B56374  33.905  24.842  14.445 -0.2659  0.1438  0.1061
 2876DPPE   C3B56375  33.921  24.400  14.432 -0.1149 -0.0274  0.0890
 2876DPPE   C4B56376  33.804  23.958  14.430 -0.3411  0.0993 -0.0985
 2877DPPE   NH356377   3.343  32.140   5.917 -0.1259 -0.0124 -0.2811
 2877DPPE   PO456378   3.387  32.213   6.339 -0.1521  0.1145  0.2378
 2877DPPE   GL156379   3.582  31.711   6.435  0.2204  0.0528  0.0321
 2877DPPE   GL256380   3.665  31.562   6.137 -0.1560  0.3078 -0.1756
 2877DPPE   C1A56381   3.613  31.244   6.556  0.0468 -0.0095  0.1107
 2877DPPE   C2A56382   3.815  30.935   6.847 -0.1964 -0.1830  0.4580
 2877DPPE   C3A56383   3.823  30.606   7.058  0.2798  0.1248  0.0639
 2877DPPE   C4A56384   3.861  30.383   7.463 -0.2696  0.0901 -0.2115
 2877DPPE   C1B56385   4.009  31.262   6.260 -0.0814 -0.1815  0.4376
 2877DPPE   C2B56386   4.045  30.840   6.384 -0.0140  0.0074  0.1607
 2877DPPE   C3B56387   4.238  30.601   6.273 -0.2932 -0.0389  0.2039
 2877DPPE   C4B56388   4.490  30.239   6.005 -0.0700 -0.1475  0.3127
 2878DPPE   NH356389   4.793  11.292   2.475 -0.4494  0.0473 -0.0667
 2878DPPE   PO456390   4.835  10.785   2.635  0.2815  0.0812 -0.4107
 2878DPPE   GL156391   4.655  11.073   2.976 -0.2260 -0.0359 -0.1701
 2878DPPE   GL256392   4.644  11.358   2.910 -0.1952  0.1936 -0.1713
 2878DPPE   C1A56393   4.521  11.158   3.436 -0.2724 -0.0907  0.5269
 2878DPPE   C2A56394   4.725  11.397   3.793  0.0514  0.1091  0.2129
 2878DPPE   C3A56395   4.884  11.330   4.149  0.0949  0.1755 -0.0079
 2878DPPE   C4A56396   4.898  11.661   4.478  0.0587  0.0089  0.0954
 2878DPPE   C1B56397   4.773  11.701   3.253 -0.0173  0.0785 -0.1077
 2878DPPE   C2B56398   4.683  11.883   3.626 -0.0273  0.1661  0.2119
 2878DPPE   C3B56399   4.529  11.962   3.948 -0.1604  0.1548  0.0647
 2878DPPE   C4B56400   4.195  12.030   4.221  0.1435 -0.0156 -0.6163
 2879DPPE   NH356401  33.195  11.093   9.249 -0.3251  0.0885  0.0812
 2879DPPE   PO456402  32.966  11.240   8.959  0.1587 -0.4388 -0.1488
 2879DPPE   GL156403  33.174  11.622   8.952  0.2069  0.0801  0.0191
 2879DPPE   GL256404  33.193  11.942   8.595 -0.0755  0.2042 -0.1480
 2879DPPE   C1A56405  33.410  12.002   9.030  0.3039 -0.3101 -0.0562
 2879DPPE   C2A56406  33.807  12.016   9.008 -0.3658 -0.3314  0.2489
 2879DPPE   C3A56407  34.002  12.468   9.019 -0.0261  0.0339  0.2207
 2879DPPE   C4A56408  34.070  12.878   8.922  0.5156  0.0053  0.0985
 2879DPPE   C1B56409  33.278  12.318   8.729  0.0236 -0.4520 -0.1882
 2879DPPE   C2B56410  33.575  12.694   8.740  0.1876  0.3423  0.2608
 2879DPPE   C3B56411  33.810  12.823   8.463  0.1682 -0.1055  0.2422
 2879DPPE   C4B56412  34.181  12.634   8.316 -0.0495  0.2488  0.0556
 2880DPPE   NH356413  10.660  29.766  19.513 -0.0295 -0.3970 -0.0374
 2880DPPE   PO456414  10.218  29.479  19.543  0.0127 -0.1734  0.0349
 2880DPPE   GL156415   9.907  29.119  19.446 -0.0621 -0.3707  0.1882
 2880DPPE   GL256416   9.732  28.825  19.572 -0.0446 -0.0568  0.2456
 2880DPPE   C1A56417   9.673  28.982  19.011  0.2273 -0.1461  0.3946
 2880DPPE   C2A56418   9.536  28.706  18.704  0.3454 -0.0478  0.1639
 2880DPPE   C3A56419   9.171  28.672  18.416 -0.0911 -0.3974  0.2337
 2880DPPE   C4A56420   8.944  28.404  18.021  0.3369  0.0139  0.3710
 2880DPPE   C1B56421   9.390  28.754  19.374 -0.2432 -0.2695 -0.0025
 2880DPPE   C2B56422   9.187  28.575  19.030  0.2130 -0.0276  0.0165
 2880DPPE   C3B56423   9.290  28.216  18.679  0.1228 -0.3448 -0.2531
 2880DPPE   C4B56424   9.404  27.881  18.562  0.0026  0.2057  0.1794
 2881DPPE   NH356425  12.973  21.568  20.926  0.0793 -0.0589 -0.3526
 2881DPPE   PO456426  12.972  21.110  20.967 -0.3691  0.1742 -0.0206
 2881DPPE   GL156427  12.872  20.870  20.579 -0.1708  0.1397  0.0553
 2881DPPE   GL256428  13.015  20.607  20.355  0.1453 -0.2395  0.3739
 2881DPPE   C1A56429  12.592  20.894  20.164 -0.2049  0.2666 -0.0075
 2881DPPE   C2A56430  12.553  20.837  19.743 -0.1565  0.2705 -0.0873
 2881DPPE   C3A56431  12.363  20.899  19.251 -0.1203  0.1111  0.2777
 2881DPPE   C4A56432  12.239  21.247  19.069 -0.2177 -0.2005  0.2165
 2881DPPE   C1B56433  12.856  20.528  19.931 -0.0314  0.0231 -0.0190
 2881DPPE   C2B56434  12.868  20.144  19.740 -0.1643  0.1610  0.3469
 2881DPPE   C3B56435  12.754  19.988  19.357  0.1875  0.1422 -0.1557
 2881DPPE   C4B56436  12.560  19.889  19.016 -0.1448  0.2769 -0.1132
 2882DPPE   NH356437   8.270  28.259   1.158 -0.0359  0.1597  0.0329
 2882DPPE   PO456438   8.503  27.891   0.921 -0.0289  0.1514  0.0058
 2882DPPE   GL156439   8.491  27.665   1.379 -0.3137  0.0577  0.2145
 2882DPPE   GL256440   8.424  27.908   1.585 -0.1375 -0.1191  0.0641
 2882DPPE   C1A56441   8.366  27.479   1.731  0.3589  0.4670 -0.0500
 2882DPPE   C2A56442   8.146  27.551   2.085 -0.0348 -0.2479  0.0253
 2882DPPE   C3A56443   7.926  27.773   2.255  0.0138  0.1408 -0.2663
 2882DPPE   C4A56444   7.947  27.828   2.756  0.1389  0.1548  0.1151
 2882DPPE   C1B56445   8.135  28.194   1.836 -0.3323  0.0582  0.1303
 2882DPPE   C2B56446   7.775  28.268   2.250  0.2083  0.1286  0.2676
 2882DPPE   C3B56447   7.548  28.039   2.618  0.3237 -0.0737 -0.1956
 2882DPPE   C4B56448   7.380  27.876   2.962  0.2171  0.0813 -0.0511
 2883DPPE   NH356449  11.116  10.620  13.023 -0.0233 -0.0191 -0.0301
 2883DPPE   PO456450  11.510  10.595  12.801 -0.0827  0.1180 -0.0521
 2883DPPE   GL156451  11.204  10.879  12.531 -0.2109 -0.0186  0.0827
 2883DPPE   GL256452  11.168  11.141  12.584 -0.1290  0.0457  0.2696
 2883DPPE   C1A56453  11.070  10.967  12.128 -0.1473 -0.0639  0.2042
 2883DPPE   C2A56454  11.138  11.244  11.777 -0.1729  0.0898  0.0849
 2883DPPE   C3A56455  10.744  11.567  11.804 -0.0362  0.1939 -0.2675
 2883DPPE   C4A56456  10.469  11.951  11.863  0.4097 -0.3103 -0.0106
 2883DPPE   C1B56457  11.119  11.497  12.449 -0.0553 -0.0300 -0.1372
 2883DPPE   C2B56458  11.159  11.642  12.077  0.2250 -0.0940 -0.1415
 2883DPPE   C3B56459  10.962  12.037  12.030  0.0816  0.1241 -0.1273
 2883DPPE   C4B56460  10.701  12.414  11.983  0.0145  0.0927  0.1562
 2884DPPE   NH356461  31.228  13.114  13.248 -0.6887 -0.2322  0.0662
 2884DPPE   PO456462  31.328  13.386  13.433 -0.0389 -0.1330 -0.3076
 2884DPPE   GL156463  31.665  13.686  13.434  0.0858 -0.2213  0.0310
 2884DPPE   GL256464  31.720  13.855  13.653  0.0002  0.1710  0.1182
 2884DPPE   C1A56465  31.977  13.738  13.147  0.1288  0.0481  0.1917
 2884DPPE   C2A56466  32.170  14.134  12.987  0.0851  0.0300  0.2122
 2884DPPE   C3A56467  32.315  14.408  12.858  0.0930  0.0952  0.0624
 2884DPPE   C4A56468  32.444  14.765  12.874  0.0034  0.0281 -0.1490
 2884DPPE   C1B56469  31.847  14.087  13.976  0.2001 -0.0681 -0.1187
 2884DPPE   C2B56470  31.965  14.451  14.184  0.2461  0.2731  0.1101
 2884DPPE   C3B56471  32.144  14.806  14.087  0.2254  0.0816 -0.2181
 2884DPPE   C4B56472  32.431  15.081  13.893  0.1172 -0.1916  0.1503
 2885DPPE   NH356473   1.071  19.970   5.135 -0.0628 -0.2439  0.0325
 2885DPPE   PO456474   1.250  20.045   4.899 -0.0109 -0.1643  0.1319
 2885DPPE   GL156475   0.978  20.137   4.597 -0.0413  0.1980 -0.1602
 2885DPPE   GL256476   0.828  20.265   4.425 -0.2742 -0.1247 -0.3692
 2885DPPE   C1A56477   0.714  19.837   4.294  0.2232  0.0428  0.0724
 2885DPPE   C2A56478   0.217  19.688   4.278  0.1089 -0.2026  0.1481
 2885DPPE   C3A56479  -0.141  19.524   4.209  0.0752 -0.0981  0.0090
 2885DPPE   C4A56480  -0.533  19.337   4.514 -0.1313  0.0949 -0.1093
 2885DPPE   C1B56481   0.463  20.236   4.099 -0.3428  0.0050 -0.1515
 2885DPPE   C2B56482   0.209  20.453   3.793 -0.3282  0.0534 -0.0645
 2885DPPE   C3B56483   0.239  20.345   3.437 -0.1457  0.0428  0.1565
 2885DPPE   C4B56484  -0.042  20.207   3.126  0.1477 -0.1261  0.2442
 2886DPPE   NH356485   3.688   7.300   7.641 -0.1182 -0.0821 -0.0528
 2886DPPE   PO456486   3.722   7.584   7.218 -0.0492  0.1292  0.2507
 2886DPPE   GL156487   3.776   8.014   7.119  0.3574 -0.2258  0.1160
 2886DPPE   GL256488   3.511   8.097   7.267 -0.0030 -0.1953 -0.0899
 2886DPPE   C1A56489   3.853   8.445   7.117 -0.4119  0.0574 -0.1434
 2886DPPE   C2A56490   3.700   8.868   7.274  0.0543  0.2114  0.1012
 2886DPPE   C3A56491   3.587   9.278   7.464 -0.0383  0.0974 -0.2979
 2886DPPE   C4A56492   3.425   9.580   7.704 -0.3077 -0.0255  0.3157
 2886DPPE   C1B56493   3.298   8.489   7.142 -0.3522 -0.1804  0.1153
 2886DPPE   C2B56494   2.949   8.768   7.273 -0.2620 -0.1065  0.0962
 2886DPPE   C3B56495   2.470   8.883   7.222  0.2862 -0.1750  0.2946
 2886DPPE   C4B56496   2.202   8.891   6.818  0.0303 -0.1362  0.3203
 2887DPPE   NH356497  18.997  23.328   7.195 -0.0897  0.0070 -0.0450
 2887DPPE   PO456498  19.079  23.568   6.828 -0.1555 -0.0387  0.1268
 2887DPPE   GL156499  18.574  23.552   6.987  0.1091  0.2405  0.0787
 2887DPPE   GL256500  18.685  23.654   7.389 -0.2476  0.4405  0.0421
 2887DPPE   C1A56501  18.123  23.669   6.993  0.1761 -0.1354  0.0882
 2887DPPE   C2A56502  17.786  23.753   7.318 -0.1118  0.3437  0.0167
 2887DPPE   C3A56503  17.476  23.638   7.675  0.0435 -0.2098  0.3155
 2887DPPE   C4A56504  17.281  23.818   8.054  0.2350 -0.2432  0.3019
 2887DPPE   C1B56505  18.292  23.406   7.398  0.1455 -0.1983  0.0509
 2887DPPE   C2B56506  17.869  23.223   7.263 -0.1677 -0.0141 -0.0297
 2887DPPE   C3B56507  17.483  23.396   7.256 -0.0373  0.0303  0.2774
 2887DPPE   C4B56508  17.029  23.370   7.432  0.0765 -0.0138  0.1230
 2888DPPE   NH356509  30.354  20.602   5.177 -0.0978  0.2964  0.0151
 2888DPPE   PO456510  30.511  20.197   5.128 -0.1917  0.0292 -0.1018
 2888DPPE   GL156511  30.840  20.464   4.836 -0.1099 -0.1350  0.0831
 2888DPPE   GL256512  30.850  20.422   4.540 -0.0036 -0.0245  0.1669
 2888DPPE   C1A56513  31.311  20.284   4.927 -0.0629 -0.0735  0.0804
 2888DPPE   C2A56514  31.793  20.424   4.892  0.0580 -0.1298  0.0622
 2888DPPE   C3A56515  32.185  20.566   5.139  0.1883  0.1118 -0.0010
 2888DPPE   C4A56516  32.466  20.400   5.452  0.1525 -0.0215 -0.3837
 2888DPPE   C1B56517  31.112  20.012   4.563  0.0154  0.2508 -0.2949
 2888DPPE   C2B56518  31.246  19.708   4.314 -0.0666  0.1420  0.2168
 2888DPPE   C3B56519  31.422  19.310   4.245 -0.0055  0.1773  0.1307
 2888DPPE   C4B56520  31.574  18.854   4.178 -0.0728 -0.1451 -0.0219
 2889DPPE   NH356521   5.711   8.627  11.546 -0.1543  0.0454  0.0227
 2889DPPE   PO456522   5.391   8.195  11.430 -0.1877  0.1699  0.0644
 2889DPPE   GL156523   5.092   8.395  11.367 -0.0170  0.1012 -0.1027
 2889DPPE   GL256524   5.272   8.778  11.388  0.1159 -0.0319 -0.0303
 2889DPPE   C1A56525   4.711   8.641  11.233  0.1479  0.1854  0.0357
 2889DPPE   C2A56526   4.524   8.900  11.008 -0.1178  0.0137 -0.2509
 2889DPPE   C3A56527   4.241   9.129  10.644 -0.1156  0.0536  0.4103
 2889DPPE   C4A56528   3.997   9.394  10.816 -0.0755 -0.0983 -0.0158
 2889DPPE   C1B56529   4.983   8.925  11.649  0.1634 -0.3810  0.1563
 2889DPPE   C2B56530   4.602   9.151  11.557  0.0505  0.1876 -0.0053
 2889DPPE   C3B56531   4.363   9.530  11.706 -0.0632  0.2104  0.3699
 2889DPPE   C4B56532   4.083   9.896  11.605 -0.0650  0.3404 -0.1186
 2890DPPE   NH356533   4.183  14.448   7.690  0.1318  0.1190 -0.2319
 2890DPPE   PO456534   4.257  14.047   7.581 -0.0583 -0.0639 -0.0008
 2890DPPE   GL156535   3.797  14.057   7.697 -0.0371 -0.1917  0.0959
 2890DPPE   GL256536   3.689  14.351   7.612 -0.1555 -0.1395 -0.1015
 2890DPPE   C1A56537   3.549  13.890   7.369  0.4933 -0.0361  0.3124
 2890DPPE   C2A56538   3.290  13.563   7.140  0.0227 -0.1278 -0.0713
 2890DPPE   C3A56539   3.189  13.437   6.632  0.1193 -0.0741  0.0703
 2890DPPE   C4A56540   3.087  13.002   6.311 -0.0653  0.0230  0.2282
 2890DPPE   C1B56541   3.366  14.311   7.295 -0.2574 -0.1051  0.0810
 2890DPPE   C2B56542   3.297  14.128   6.898 -0.0710  0.2537 -0.1504
 2890DPPE   C3B56543   3.044  14.073   6.636  0.0339 -0.1822  0.3689
 2890DPPE   C4B56544   2.737  13.866   6.481  0.1001  0.0041 -0.1497
 2891DPPE   NH356545  37.484  11.157  19.950 -0.0577  0.0938  0.1429
 2891DPPE   PO456546  37.796  11.490  19.875 -0.0228  0.1646  0.0665
 2891DPPE   GL156547  37.943  11.569  19.462 -0.3044 -0.4137 -0.0509
 2891DPPE   GL256548  38.324  11.509  19.457 -0.0434 -0.2302  0.0394
 2891DPPE   C1A56549  37.984  11.988  19.414  0.0510  0.0829  0.0329
 2891DPPE   C2A56550  37.852  12.119  19.047  0.1842 -0.1859 -0.2707
 2891DPPE   C3A56551  37.598  12.389  18.837 -0.0248  0.0163  0.0842
 2891DPPE   C4A56552  37.322  12.637  18.507 -0.2306  0.2332  0.0581
 2891DPPE   C1B56553  38.642  11.850  19.448 -0.0313  0.4071 -0.3080
 2891DPPE   C2B56554  38.868  12.112  19.122  0.1032 -0.0496  0.0878
 2891DPPE   C3B56555  39.090  12.461  19.177  0.0657 -0.3294 -0.0302
 2891DPPE   C4B56556  39.383  12.662  19.528 -0.0844 -0.2205  0.1019
 2892DPPE   NH356557   7.945  18.505   2.320 -0.1238 -0.3420 -0.1345
 2892DPPE   PO456558   7.968  18.146   2.504 -0.1928  0.0851 -0.2127
 2892DPPE   GL156559   7.748  17.768   2.287  0.1271  0.1813  0.0006
 2892DPPE   GL256560   7.923  17.632   2.166  0.2628 -0.2210  0.0994
 2892DPPE   C1A56561   7.675  17.652   1.759  0.0243  0.0422 -0.3423
 2892DPPE   C2A56562   7.817  17.606   1.365 -0.2023 -0.0806  0.0190
 2892DPPE   C3A56563   7.908  17.475   0.912  0.2127  0.3485  0.0897
 2892DPPE   C4A56564   8.066  17.352   0.544  0.0415  0.0921 -0.1448
 2892DPPE   C1B56565   8.151  17.731   1.758 -0.0783 -0.1920 -0.1214
 2892DPPE   C2B56566   8.412  17.745   1.326  0.0745  0.2425 -0.0332
 2892DPPE   C3B56567   8.687  17.555   0.976  0.0717  0.1312  0.3497
 2892DPPE   C4B56568   8.512  17.177   0.720 -0.0328 -0.0428 -0.2343
 2893DPPE   NH356569  35.054   8.876  12.614  0.3035  0.0300  0.2675
 2893DPPE   PO456570  34.817   9.065  12.241 -0.0954  0.1855  0.3961
 2893DPPE   GL156571  35.208   9.335  12.039 -0.0743  0.0720  0.0896
 2893DPPE   GL256572  35.364   9.215  12.368 -0.1312  0.0369  0.3468
 2893DPPE   C1A56573  35.580   9.624  12.093  0.0852  0.1432 -0.3865
 2893DPPE   C2A56574  35.876   9.934  12.318 -0.2296  0.2988 -0.0767
 2893DPPE   C3A56575  36.137  10.246  12.309 -0.0241  0.0684 -0.0017
 2893DPPE   C4A56576  36.232  10.367  11.982 -0.2223 -0.3879 -0.0258
 2893DPPE   C1B56577  35.803   9.045  12.495 -0.0442  0.2572  0.0977
 2893DPPE   C2B56578  36.288   9.038  12.445  0.0054  0.0737 -0.0648
 2893DPPE   C3B56579  36.480   8.922  12.733  0.2672  0.4800 -0.1391
 2893DPPE   C4B56580  36.541   9.069  13.095  0.2484 -0.1661 -0.1329
 2894DPPE   NH356581  31.469  14.902   5.820  0.2339  0.1358 -0.2315
 2894DPPE   PO456582  31.308  15.258   5.705  0.1029 -0.3016  0.0561
 2894DPPE   GL156583  31.577  15.319   6.087  0.2167 -0.2003 -0.0149
 2894DPPE   GL256584  31.462  15.518   6.313  0.0923  0.0314 -0.1856
 2894DPPE   C1A56585  31.966  15.109   6.288 -0.0538 -0.3942 -0.3141
 2894DPPE   C2A56586  32.344  15.008   6.294  0.4488  0.3474  0.1617
 2894DPPE   C3A56587  32.874  15.102   6.238  0.4463 -0.4826 -0.2089
 2894DPPE   C4A56588  33.123  15.319   5.932  0.0835  0.0819  0.0938
 2894DPPE   C1B56589  31.808  15.533   6.458 -0.0130  0.1619 -0.0542
 2894DPPE   C2B56590  32.235  15.544   6.410 -0.2115 -0.0649  0.0858
 2894DPPE   C3B56591  32.560  15.453   6.547  0.3153  0.1892  0.2768
 2894DPPE   C4B56592  32.713  15.422   7.001  0.1502  0.0694  0.2212
 2895DPPE   NH356593  35.448   8.747  14.177 -0.2830 -0.0423  0.0690
 2895DPPE   PO456594  35.534   8.642  13.802 -0.4918 -0.0273 -0.1314
 2895DPPE   GL156595  35.802   8.852  13.573  0.2328  0.2911 -0.2056
 2895DPPE   GL256596  35.652   9.165  13.797  0.0996 -0.0206 -0.0232
 2895DPPE   C1A56597  36.098   9.144  13.450  0.1057  0.1130 -0.2529
 2895DPPE   C2A56598  36.001   9.519  13.176 -0.0356 -0.2459 -0.0385
 2895DPPE   C3A56599  36.184   9.917  13.162  0.1943  0.0929 -0.0713
 2895DPPE   C4A56600  36.301  10.102  12.779  0.0628 -0.0890  0.0842
 2895DPPE   C1B56601  35.898   9.517  13.756 -0.1345  0.1155 -0.1686
 2895DPPE   C2B56602  36.328   9.803  13.672 -0.2252 -0.0185 -0.0716
 2895DPPE   C3B56603  36.641   9.822  13.891 -0.2618  0.1736  0.4498
 2895DPPE   C4B56604  36.651  10.230  14.276  0.1929  0.0022 -0.2320
 2896DPPE   NH356605  35.192   9.434  15.414 -0.1128  0.2491  0.2245
 2896DPPE   PO456606  35.619   9.429  15.591  0.0972  0.1304  0.1974
 2896DPPE   GL156607  35.863   9.815  15.651  0.0022  0.0480 -0.1613
 2896DPPE   GL256608  35.765  10.052  15.449  0.0920  0.1500 -0.0584
 2896DPPE   C1A56609  35.922  10.143  15.931  0.1742 -0.0846  0.1644
 2896DPPE   C2A56610  35.873  10.340  16.293 -0.1849 -0.4413  0.2080
 2896DPPE   C3A56611  35.821  10.832  16.283 -0.1577  0.0949 -0.2537
 2896DPPE   C4A56612  35.809  11.232  16.438 -0.3485 -0.1818  0.1636
 2896DPPE   C1B56613  36.072  10.253  15.196  0.1389 -0.1799 -0.0458
 2896DPPE   C2B56614  36.062  10.495  14.801 -0.0887  0.3345  0.1722
 2896DPPE   C3B56615  36.129  10.405  14.329 -0.0059 -0.1253  0.1827
 2896DPPE   C4B56616  36.267  10.177  13.997 -0.1906  0.2280 -0.0858
 2897DPPE   NH356617  36.670  18.167  25.844  0.2752  0.0635 -0.0922
 2897DPPE   PO456618  37.074  18.354  25.755  0.1892 -0.2179 -0.0474
 2897DPPE   GL156619  37.023  18.453  26.197  0.0498 -0.3026  0.1621
 2897DPPE   GL256620  37.057  18.080  26.162  0.2712  0.3648  0.2763
 2897DPPE   C1A56621  36.840  18.728  26.485  0.0276  0.0989  0.0130
 2897DPPE   C2A56622  37.088  19.116  26.648  0.1764 -0.2155  0.0580
 2897DPPE   C3A56623  37.133  19.574  26.940 -0.0297 -0.1724  0.1705
 2897DPPE   C4A56624  36.916  19.849  27.292 -0.1455 -0.2803 -0.3132
 2897DPPE   C1B56625  36.879  18.155  26.523 -0.3021  0.0039 -0.0457
 2897DPPE   C2B56626  36.869  17.811  26.811  0.0072 -0.0993  0.3980
 2897DPPE   C3B56627  36.746  17.884  27.133  0.0298  0.2698 -0.1449
 2897DPPE   C4B56628  36.721  18.005  27.564 -0.3514  0.0299 -0.0336
 2898DPPE   NH356629  29.336  23.584  10.613 -0.1273 -0.0958  0.3457
 2898DPPE   PO456630  29.129  23.091  10.463  0.1759 -0.0834 -0.1075
 2898DPPE   GL156631  29.470  22.995  10.636 -0.0250 -0.1093  0.0494
 2898DPPE   GL256632  29.698  23.306  10.565 -0.0248 -0.2281  0.2309
 2898DPPE   C1A56633  29.725  23.000  10.967 -0.1835  0.1424 -0.1340
 2898DPPE   C2A56634  29.938  22.599  11.147  0.2758 -0.1161 -0.1474
 2898DPPE   C3A56635  29.967  22.370  11.405  0.0716  0.1745  0.0788
 2898DPPE   C4A56636  30.137  21.946  11.442 -0.0795  0.1395  0.2058
 2898DPPE   C1B56637  30.042  23.007  10.296 -0.1735 -0.2451 -0.4710
 2898DPPE   C2B56638  30.352  22.759  10.267  0.0780  0.0224 -0.0287
 2898DPPE   C3B56639  30.394  22.396  10.530  0.0373 -0.1101 -0.0017
 2898DPPE   C4B56640  30.113  22.184  10.959 -0.0358 -0.2840 -0.2048
 2899DPPE   NH356641  38.125  22.006  11.758 -0.0298  0.0043  0.0139
 2899DPPE   PO456642  38.025  21.798  12.151 -0.4031 -0.2688 -0.2673
 2899DPPE   GL156643  37.560  21.664  12.181  0.2599  0.1556  0.4867
 2899DPPE   GL256644  37.426  21.432  12.440 -0.0440  0.1019 -0.0068
 2899DPPE   C1A56645  37.299  21.493  11.821  0.2300 -0.0941  0.2488
 2899DPPE   C2A56646  36.873  21.398  11.782 -0.0126  0.1588 -0.3777
 2899DPPE   C3A56647  36.484  21.699  11.699 -0.0348 -0.0153  0.4979
 2899DPPE   C4A56648  36.461  21.899  11.291 -0.2426  0.0366 -0.1581
 2899DPPE   C1B56649  37.088  21.203  12.254 -0.1248  0.0229 -0.3049
 2899DPPE   C2B56650  36.661  21.176  12.311 -0.1650 -0.0557 -0.0910
 2899DPPE   C3B56651  36.252  20.877  12.168 -0.1381 -0.0435  0.1270
 2899DPPE   C4B56652  36.007  20.541  12.388  0.2341 -0.1028  0.0791
 2900DPPE   NH356653   8.351  16.591  24.868  0.3291 -0.3109  0.1645
 2900DPPE   PO456654   8.040  16.978  24.925 -0.2834 -0.0805 -0.1064
 2900DPPE   GL156655   7.826  17.058  25.230 -0.2772 -0.2367 -0.0787
 2900DPPE   GL256656   7.593  17.397  25.081  0.0372  0.0110  0.1857
 2900DPPE   C1A56657   7.837  17.193  25.660  0.0498 -0.1754  0.0495
 2900DPPE   C2A56658   7.587  17.395  25.934 -0.1175 -0.0422  0.0375
 2900DPPE   C3A56659   7.563  17.711  26.283  0.2111  0.1877  0.1612
 2900DPPE   C4A56660   7.374  18.083  26.488 -0.2645  0.1507  0.0593
 2900DPPE   C1B56661   7.403  17.203  25.435  0.1234 -0.1379  0.0074
 2900DPPE   C2B56662   7.506  16.790  25.597 -0.0138 -0.3488 -0.1404
 2900DPPE   C3B56663   7.624  16.383  25.705  0.4450 -0.2953  0.0331
 2900DPPE   C4B56664   7.257  16.218  25.895 -0.3932 -0.0708 -0.0874
 2901DPPE   NH356665  10.449   9.700   7.539 -0.2140 -0.2523  0.2008
 2901DPPE   PO456666  10.796   9.973   7.757 -0.1995 -0.1951  0.0661
 2901DPPE   GL156667  10.366  10.067   7.886 -0.1197  0.1636  0.1063
 2901DPPE   GL256668  10.171  10.191   7.679 -0.1303 -0.2588 -0.5068
 2901DPPE   C1A56669  10.140  10.266   8.193 -0.1661 -0.5274  0.2234
 2901DPPE   C2A56670   9.882  10.556   8.360  0.0001 -0.1596  0.2913
 2901DPPE   C3A56671   9.935  11.024   8.351  0.0301  0.0001  0.1082
 2901DPPE   C4A56672   9.733  11.334   8.548 -0.1224 -0.0501  0.3437
 2901DPPE   C1B56673  10.380  10.592   7.792  0.0743  0.2809 -0.0329
 2901DPPE   C2B56674  10.136  10.975   7.904 -0.1091 -0.1241  0.2296
 2901DPPE   C3B56675   9.741  11.258   7.959 -0.1678  0.3119 -0.0582
 2901DPPE   C4B56676   9.315  11.329   8.259  0.4762 -0.2380  0.0773
 2902DPPE   NH356677   5.471  28.164   6.646 -0.1381  0.0026  0.0729
 2902DPPE   PO456678   5.670  28.410   7.046  0.3135 -0.0123  0.0850
 2902DPPE   GL156679   5.716  28.731   6.992 -0.1405  0.1861  0.1162
 2902DPPE   GL256680   5.631  28.961   7.257 -0.1562  0.2024 -0.1895
 2902DPPE   C1A56681   5.938  29.147   6.865  0.2253 -0.2742 -0.1987
 2902DPPE   C2A56682   5.817  29.412   6.505 -0.0924  0.2054  0.3683
 2902DPPE   C3A56683   5.707  29.515   6.210 -0.0901  0.1984 -0.3114
 2902DPPE   C4A56684   5.488  29.953   6.164 -0.1632  0.0303 -0.1249
 2902DPPE   C1B56685   5.542  29.386   6.965 -0.0148  0.1619  0.2494
 2902DPPE   C2B56686   5.342  29.737   6.742 -0.2219 -0.0425 -0.1178
 2902DPPE   C3B56687   5.267  30.098   6.739  0.2680 -0.2688 -0.0147
 2902DPPE   C4B56688   5.322  30.374   7.090  0.0215  0.0731  0.2156
 2903DPPE   NH356689   1.108  27.404  19.392  0.1733 -0.2562  0.3061
 2903DPPE   PO456690   1.330  27.298  19.686  0.5087  0.3072  0.1514
 2903DPPE   GL156691   1.532  27.100  19.379  0.1264 -0.1432  0.0297
 2903DPPE   GL256692   1.770  26.971  19.571 -0.1090 -0.5517  0.0290
 2903DPPE   C1A56693   1.339  26.759  19.151  0.0007  0.2633  0.0675
 2903DPPE   C2A56694   1.239  26.254  19.217  0.1278 -0.0713  0.3039
 2903DPPE   C3A56695   1.245  25.847  18.976  0.1691 -0.1556 -0.0490
 2903DPPE   C4A56696   1.462  25.442  18.922 -0.0290  0.0608 -0.0872
 2903DPPE   C1B56697   2.029  26.699  19.374 -0.3275  0.0811 -0.0821
 2903DPPE   C2B56698   2.254  26.479  19.103  0.1127 -0.1161  0.1291
 2903DPPE   C3B56699   2.117  26.095  18.840  0.0620 -0.1626  0.2028
 2903DPPE   C4B56700   2.273  25.845  18.477 -0.2082  0.2205 -0.0654
 2904DPPE   NH356701   0.924  25.883   0.848 -0.2203 -0.0144 -0.0194
 2904DPPE   PO456702   1.052  25.872   0.484  0.4270  0.1172 -0.1920
 2904DPPE   GL156703   1.302  25.608   0.633 -0.0892  0.1533 -0.1644
 2904DPPE   GL256704   1.628  25.710   0.758  0.1092  0.1463 -0.1954
 2904DPPE   C1A56705   1.380  25.343   0.987  0.0120  0.1065 -0.1312
 2904DPPE   C2A56706   1.559  25.248   1.372 -0.0989 -0.2414  0.1617
 2904DPPE   C3A56707   1.710  24.963   1.617  0.2548 -0.1321 -0.4205
 2904DPPE   C4A56708   1.816  24.708   1.973 -0.1231 -0.1537 -0.0558
 2904DPPE   C1B56709   1.785  25.683   1.104  0.1816  0.0300  0.0243
 2904DPPE   C2B56710   2.077  25.366   1.398  0.1655  0.0280 -0.0286
 2904DPPE   C3B56711   2.255  25.107   1.623 -0.0541  0.0485 -0.0384
 2904DPPE   C4B56712   2.268  24.838   1.882 -0.5239  0.1505 -0.1455
 2905DPPE   NH356713  33.521  10.313  12.524 -0.0903  0.2402 -0.1870
 2905DPPE   PO456714  33.793  10.045  12.712 -0.0590 -0.0890 -0.3133
 2905DPPE   GL156715  33.933  10.509  12.863  0.1534 -0.2126 -0.0988
 2905DPPE   GL256716  33.788  10.786  12.613  0.1727 -0.0649 -0.0895
 2905DPPE   C1A56717  34.357  10.653  12.843  0.2091  0.1581  0.0965
 2905DPPE   C2A56718  34.796  10.636  12.706 -0.0980 -0.0449  0.0321
 2905DPPE   C3A56719  35.052  10.656  12.400  0.0282  0.0196  0.0996
 2905DPPE   C4A56720  35.193  10.529  12.010  0.0559 -0.0719  0.0614
 2905DPPE   C1B56721  34.096  11.011  12.553  0.0223  0.1174 -0.1927
 2905DPPE   C2B56722  34.439  11.076  12.590 -0.2719 -0.1139 -0.0558
 2905DPPE   C3B56723  34.764  11.107  12.497 -0.0476  0.1600  0.2591
 2905DPPE   C4B56724  35.033  11.188  12.159  0.4223 -0.1587  0.1222
 2906DPPE   NH356725  36.143   8.955   4.980 -0.4790 -0.0245 -0.1202
 2906DPPE   PO456726  36.405   9.039   4.759  0.0407  0.0003  0.0277
 2906DPPE   GL156727  36.480   9.430   4.997 -0.1076 -0.0107 -0.0702
 2906DPPE   GL256728  36.283   9.591   4.963  0.1728  0.3204  0.2908
 2906DPPE   C1A56729  36.820   9.646   5.083  0.2277 -0.0776 -0.2011
 2906DPPE   C2A56730  37.026   9.846   5.390  0.1437  0.0017  0.1023
 2906DPPE   C3A56731  37.173  10.199   5.481  0.1345  0.3332 -0.0919
 2906DPPE   C4A56732  37.412  10.573   5.569 -0.2404  0.1530 -0.1350
 2906DPPE   C1B56733  36.572   9.852   4.703 -0.0021 -0.0200  0.0291
 2906DPPE   C2B56734  36.839  10.262   4.426  0.1165 -0.2794  0.1404
 2906DPPE   C3B56735  37.078  10.592   4.189 -0.1152 -0.2063  0.0327
 2906DPPE   C4B56736  37.306  11.053   4.311  0.2607 -0.0663  0.0036
 2907DPPE   NH356737  30.655  14.807   7.994  0.1219 -0.0374 -0.1037
 2907DPPE   PO456738  30.479  14.919   8.406  0.0974  0.0857 -0.1786
 2907DPPE   GL156739  30.897  15.112   8.272  0.0987  0.0953 -0.1631
 2907DPPE   GL256740  31.101  14.850   8.296  0.1775 -0.1059 -0.2850
 2907DPPE   C1A56741  31.088  15.544   8.150  0.3306  0.0183  0.2995
 2907DPPE   C2A56742  31.483  15.711   8.429 -0.0654 -0.0818  0.4271
 2907DPPE   C3A56743  31.675  16.004   8.504  0.0138 -0.1264  0.0966
 2907DPPE   C4A56744  31.970  16.190   8.218  0.1377  0.3271  0.0492
 2907DPPE   C1B56745  31.417  15.097   8.097 -0.0038  0.1808  0.0581
 2907DPPE   C2B56746  31.504  15.532   7.955  0.2882 -0.2974  0.1641
 2907DPPE   C3B56747  31.433  15.923   7.701 -0.2186  0.0437 -0.0712
 2907DPPE   C4B56748  31.209  16.327   7.682  0.1210  0.2740 -0.1031
 2908DPPE   NH356749  14.911  23.994  19.287  0.3115  0.4758 -0.1448
 2908DPPE   PO456750  14.512  23.852  19.548  0.0400  0.0188  0.0863
 2908DPPE   GL156751  14.169  23.761  19.368 -0.1257 -0.0314 -0.1305
 2908DPPE   GL256752  13.851  24.016  19.288 -0.1518  0.0431  0.1700
 2908DPPE   C1A56753  13.843  23.550  19.131  0.2888 -0.0998  0.3456
 2908DPPE   C2A56754  13.598  23.392  18.919 -0.0084 -0.0248  0.0575
 2908DPPE   C3A56755  13.454  23.364  18.452 -0.2793  0.1126  0.6021
 2908DPPE   C4A56756  13.375  23.457  17.987  0.0507 -0.0711 -0.2628
 2908DPPE   C1B56757  13.952  23.943  18.858 -0.0967 -0.1570 -0.0134
 2908DPPE   C2B56758  13.843  23.715  18.515 -0.2227  0.2046 -0.0626
 2908DPPE   C3B56759  13.835  23.533  18.115  0.1927 -0.0039  0.0812
 2908DPPE   C4B56760  13.773  23.526  17.668 -0.0940 -0.0348 -0.2648
 2909DPPE   NH356761  18.770  19.156   8.542 -0.1515  0.2092 -0.0623
 2909DPPE   PO456762  18.639  18.663   8.517  0.1008  0.1730  0.1831
 2909DPPE   GL156763  18.361  18.896   8.812  0.0267 -0.1580 -0.1561
 2909DPPE   GL256764  18.175  19.054   8.550  0.3068 -0.0253  0.0407
 2909DPPE   C1A56765  17.997  18.852   8.976  0.1155  0.1438 -0.0606
 2909DPPE   C2A56766  17.749  19.070   9.264  0.2347 -0.1338  0.2541
 2909DPPE   C3A56767  17.552  19.395   9.528  0.2975  0.2680  0.0452
 2909DPPE   C4A56768  17.094  19.419   9.572  0.0579 -0.0049 -0.3258
 2909DPPE   C1B56769  17.975  18.925   8.205  0.2621  0.2025 -0.3285
 2909DPPE   C2B56770  17.575  18.970   7.813 -0.0880  0.0056 -0.0921
 2909DPPE   C3B56771  17.391  18.976   7.603 -0.3034  0.2743  0.0077
 2909DPPE   C4B56772  17.361  18.749   7.267 -0.2916  0.1110  0.1691
 2910DPPE   NH356773  38.298  20.781  20.671 -0.1800 -0.0718  0.3390
 2910DPPE   PO456774  38.160  21.132  20.500  0.1894  0.0003 -0.2726
 2910DPPE   GL156775  38.092  21.169  20.084 -0.4492  0.0116  0.0622
 2910DPPE   GL256776  38.297  21.001  19.932 -0.0085  0.3825  0.1134
 2910DPPE   C1A56777  38.012  21.045  19.515  0.0249  0.0036  0.0658
 2910DPPE   C2A56778  38.073  20.879  19.051 -0.0773 -0.0109 -0.1272
 2910DPPE   C3A56779  38.355  20.677  18.827  0.3487 -0.0383 -0.0656
 2910DPPE   C4A56780  38.649  20.784  18.521 -0.4051  0.1659  0.1618
 2910DPPE   C1B56781  38.439  20.820  19.520  0.2348  0.0081  0.5707
 2910DPPE   C2B56782  38.612  20.500  19.187 -0.0709  0.3098 -0.1474
 2910DPPE   C3B56783  38.765  20.322  18.800  0.1250 -0.1127 -0.1404
 2910DPPE   C4B56784  38.934  20.109  18.500 -0.1393 -0.3707  0.1672
 2911DPPE   NH356785  34.757   9.328   9.670 -0.0318 -0.3194  0.0761
 2911DPPE   PO456786  34.439   9.516   9.565 -0.1745  0.0742 -0.1961
 2911DPPE   GL156787  34.656   9.878   9.557 -0.2477 -0.1409  0.1705
 2911DPPE   GL256788  34.945   9.913   9.376  0.2274  0.0232  0.0481
 2911DPPE   C1A56789  35.039   9.897   9.934  0.0723 -0.4676 -0.0534
 2911DPPE   C2A56790  35.133  10.006  10.382 -0.0096 -0.0687 -0.1234
 2911DPPE   C3A56791  35.072   9.899  10.841  0.2707 -0.0956 -0.0049
 2911DPPE   C4A56792  35.284   9.945  11.152  0.0340  0.1069 -0.0517
 2911DPPE   C1B56793  35.407   9.929   9.426 -0.1253 -0.3435  0.0683
 2911DPPE   C2B56794  35.795  10.170   9.700  0.1268  0.0669  0.0376
 2911DPPE   C3B56795  36.038  10.219   9.981  0.1729 -0.1101  0.0564
 2911DPPE   C4B56796  36.336   9.972   9.967  0.1175  0.0138 -0.1966
 2912DPPE   NH356797   6.707  13.396  19.291 -0.0588 -0.0124 -0.0032
 2912DPPE   PO456798   6.431  13.304  19.003 -0.2127 -0.1433 -0.1130
 2912DPPE   GL156799   6.562  13.711  18.969  0.2030 -0.0344  0.0573
 2912DPPE   GL256800   6.704  13.972  19.281  0.4549  0.1036 -0.0908
 2912DPPE   C1A56801   6.477  14.133  18.801  0.1375 -0.0794  0.1897
 2912DPPE   C2A56802   6.219  14.445  18.777 -0.0225  0.2233  0.4220
 2912DPPE   C3A56803   6.053  14.843  18.729  0.1911  0.1131 -0.1495
 2912DPPE   C4A56804   5.813  15.134  18.470 -0.1005  0.0387  0.2107
 2912DPPE   C1B56805   6.778  14.342  19.105  0.2216 -0.1286  0.0466
 2912DPPE   C2B56806   6.582  14.690  19.253  0.1471 -0.1526  0.5711
 2912DPPE   C3B56807   6.251  14.955  19.465  0.2335  0.0346 -0.1706
 2912DPPE   C4B56808   5.867  15.053  19.194  0.0560  0.0127 -0.4802
 2913DPPE   NH356809   8.822  13.830   0.279  0.0707 -0.0567 -0.0437
 2913DPPE   PO456810   8.601  13.617   0.694 -0.2651 -0.3265  0.0763
 2913DPPE   GL156811   8.538  14.099   0.771  0.1426  0.0301 -0.1556
 2913DPPE   GL256812   8.804  14.191   0.660  0.0622 -0.0918 -0.0360
 2913DPPE   C1A56813   8.322  14.523   0.748  0.2440 -0.0023 -0.1410
 2913DPPE   C2A56814   8.330  14.912   1.012  0.0277  0.1136 -0.0801
 2913DPPE   C3A56815   8.576  15.307   1.059  0.6417  0.4541 -0.0494
 2913DPPE   C4A56816   8.359  15.646   0.944  0.2332  0.0154 -0.1040
 2913DPPE   C1B56817   8.707  14.494   1.025  0.0506 -0.2227  0.2184
 2913DPPE   C2B56818   8.682  14.755   1.414  0.3698 -0.1576 -0.1418
 2913DPPE   C3B56819   8.411  14.999   1.596 -0.0369  0.1501  0.0879
 2913DPPE   C4B56820   8.019  15.031   1.953  0.1740 -0.1174  0.1511
 2914DPPE   NH356821  34.309  10.016   5.751  0.1832  0.0902  0.1140
 2914DPPE   PO456822  34.689  10.144   5.879  0.0488  0.0060  0.0054
 2914DPPE   GL156823  34.960  10.485   5.587 -0.1229 -0.0477  0.0222
 2914DPPE   GL256824  35.298  10.564   5.422 -0.0253  0.2824 -0.1683
 2914DPPE   C1A56825  35.039  10.911   5.675 -0.2350  0.2195 -0.2122
 2914DPPE   C2A56826  35.343  10.960   5.976 -0.0982 -0.0883 -0.1137
 2914DPPE   C3A56827  35.780  10.934   6.048  0.4635  0.1068 -0.0583
 2914DPPE   C4A56828  36.052  10.688   6.198 -0.0968 -0.2713 -0.2267
 2914DPPE   C1B56829  35.532  10.942   5.540  0.1119 -0.2118  0.0908
 2914DPPE   C2B56830  35.650  11.351   5.723  0.1543  0.0629 -0.1025
 2914DPPE   C3B56831  35.765  11.422   6.147 -0.1714 -0.0397  0.1091
 2914DPPE   C4B56832  36.089  11.639   6.384  0.1319  0.0824  0.0650
 2915DPPE   NH356833  29.459  21.098  11.625  0.2200  0.1074 -0.1843
 2915DPPE   PO456834  29.190  21.525  11.758  0.1307  0.2202  0.1744
 2915DPPE   GL156835  29.398  21.707  11.494 -0.0025  0.0239 -0.2402
 2915DPPE   GL256836  29.618  21.593  11.531  0.0939 -0.0068  0.1700
 2915DPPE   C1A56837  29.612  21.996  11.204 -0.3014 -0.1875  0.1244
 2915DPPE   C2A56838  29.694  21.984  10.744 -0.2685  0.3587  0.0973
 2915DPPE   C3A56839  29.973  22.077  10.420 -0.0608  0.2249 -0.1640
 2915DPPE   C4A56840  30.171  21.785  10.162  0.1452 -0.1581  0.1270
 2915DPPE   C1B56841  30.101  21.398  11.653  0.2231  0.0996 -0.1072
 2915DPPE   C2B56842  30.052  21.042  11.834  0.0817 -0.1268  0.0469
 2915DPPE   C3B56843  30.155  20.642  11.765  0.0080  0.1366  0.1049
 2915DPPE   C4B56844  30.391  20.373  11.542 -0.5082 -0.1363  0.2681
 2916DPPE   NH356845   3.267  13.894   0.467  0.0794  0.1411  0.0320
 2916DPPE   PO456846   3.541  13.686   0.642  0.1946 -0.0710 -0.2266
 2916DPPE   GL156847   3.529  13.965   0.886  0.1555  0.2169 -0.1156
 2916DPPE   GL256848   3.185  14.182   0.966  0.0715  0.0312 -0.0898
 2916DPPE   C1A56849   3.810  14.199   1.021  0.1813  0.0021 -0.1713
 2916DPPE   C2A56850   4.168  14.343   1.265 -0.2198 -0.0842 -0.4176
 2916DPPE   C3A56851   4.175  14.499   1.743 -0.0396 -0.6335  0.0698
 2916DPPE   C4A56852   4.204  14.289   2.095 -0.0201  0.0507 -0.0571
 2916DPPE   C1B56853   3.084  14.383   1.356  0.0456  0.2695  0.1837
 2916DPPE   C2B56854   3.174  14.574   1.784  0.2541  0.1706 -0.1477
 2916DPPE   C3B56855   3.409  14.603   2.102 -0.0496  0.0035  0.0917
 2916DPPE   C4B56856   3.871  14.722   2.129 -0.1308 -0.1051 -0.1139
 2917DPPE   NH356857   0.689  19.834  14.768 -0.0064 -0.2344  0.0569
 2917DPPE   PO456858   0.476  20.172  14.788  0.1003  0.1809  0.1417
 2917DPPE   GL156859   0.128  19.852  14.770 -0.2790  0.1076  0.1513
 2917DPPE   GL256860   0.244  19.545  14.660  0.0702  0.1154 -0.0751
 2917DPPE   C1A56861  -0.294  19.726  14.615  0.1671 -0.3033  0.0860
 2917DPPE   C2A56862  -0.669  19.628  14.518  0.3426  0.0774 -0.0088
 2917DPPE   C3A56863  -1.098  19.787  14.240 -0.0598 -0.1156  0.2634
 2917DPPE   C4A56864  -1.303  19.842  13.821  0.0817  0.1746 -0.0793
 2917DPPE   C1B56865  -0.080  19.233  14.729 -0.1571  0.1168 -0.1006
 2917DPPE   C2B56866  -0.340  19.078  15.050 -0.0102 -0.0396  0.0180
 2917DPPE   C3B56867  -0.634  18.765  15.212  0.0867  0.1385 -0.2047
 2917DPPE   C4B56868  -1.077  18.671  15.348 -0.1754 -0.1858  0.0650
 2918DPPE   NH356869   3.084  18.147   3.599 -0.3166  0.2352 -0.0047
 2918DPPE   PO456870   3.292  17.665   3.836 -0.2932 -0.0636 -0.1323
 2918DPPE   GL156871   3.013  17.460   3.562 -0.2502  0.1090  0.0984
 2918DPPE   GL256872   2.739  17.341   3.714  0.3019 -0.0731 -0.1222
 2918DPPE   C1A56873   2.841  17.180   3.236  0.1280  0.0954 -0.2461
 2918DPPE   C2A56874   2.673  16.858   2.872  0.0964 -0.0416  0.0142
 2918DPPE   C3A56875   2.480  16.492   2.964 -0.0674  0.0490  0.1932
 2918DPPE   C4A56876   2.375  16.046   2.851 -0.1270 -0.2094 -0.2729
 2918DPPE   C1B56877   2.485  17.123   3.976  0.1281 -0.6436  0.0436
 2918DPPE   C2B56878   2.205  17.279   4.211 -0.2913  0.2931 -0.2300
 2918DPPE   C3B56879   1.933  17.252   4.573  0.0374 -0.1203 -0.0827
 2918DPPE   C4B56880   1.823  17.131   4.978 -0.0190 -0.0684 -0.0018
 2919DPPE   NH356881  32.726  12.711   5.388 -0.0169  0.0492  0.3955
 2919DPPE   PO456882  33.224  12.519   5.392 -0.0439  0.1815  0.0043
 2919DPPE   GL156883  33.677  12.523   5.309  0.1045  0.1005 -0.2368
 2919DPPE   GL256884  33.850  12.228   5.513 -0.0515 -0.1881 -0.0261
 2919DPPE   C1A56885  34.003  12.554   5.061 -0.0578 -0.3633  0.1593
 2919DPPE   C2A56886  34.344  12.791   4.981 -0.2331 -0.0376  0.0841
 2919DPPE   C3A56887  34.642  13.145   5.016  0.1338 -0.0990 -0.3294
 2919DPPE   C4A56888  35.077  13.078   5.019  0.0167 -0.2149 -0.0152
 2919DPPE   C1B56889  34.202  12.534   5.514  0.0709 -0.0648  0.4072
 2919DPPE   C2B56890  34.653  12.503   5.719 -0.3843 -0.3828 -0.2105
 2919DPPE   C3B56891  35.074  12.568   5.941  0.3787  0.0205 -0.0375
 2919DPPE   C4B56892  35.176  12.187   6.241 -0.3515 -0.3367 -0.0939
 2920DPPE   NH356893   0.288   8.747   2.837  0.2321 -0.0016  0.0083
 2920DPPE   PO456894  -0.076   8.950   2.971 -0.2179 -0.3318  0.2004
 2920DPPE   GL156895   0.019   9.190   3.267  0.0111  0.2201 -0.0426
 2920DPPE   GL256896  -0.178   9.419   3.402 -0.1249  0.0612  0.0072
 2920DPPE   C1A56897   0.258   9.611   3.309 -0.2267 -0.0318  0.3214
 2920DPPE   C2A56898   0.588   9.933   3.135  0.1419  0.0258 -0.0647
 2920DPPE   C3A56899   0.767  10.218   2.927 -0.1127 -0.1807  0.0456
 2920DPPE   C4A56900   1.050  10.447   2.563  0.1778 -0.4848  0.4003
 2920DPPE   C1B56901  -0.053   9.796   3.609  0.2280  0.0538 -0.1445
 2920DPPE   C2B56902   0.315  10.050   3.613 -0.0645 -0.0845  0.1105
 2920DPPE   C3B56903   0.602  10.131   3.982  0.0951  0.0170  0.0298
 2920DPPE   C4B56904   0.757  10.231   4.346  0.5663 -0.1904 -0.2571
 2921DPPE   NH356905   5.996  19.871  18.506  0.3429  0.2512 -0.1958
 2921DPPE   PO456906   5.940  19.415  18.573  0.0949 -0.1021  0.2535
 2921DPPE   GL156907   5.727  19.265  18.916  0.0366 -0.0542 -0.0742
 2921DPPE   GL256908   5.470  19.264  19.030  0.0273  0.2571  0.0306
 2921DPPE   C1A56909   5.825  19.198  19.410  0.0251  0.0556  0.0649
 2921DPPE   C2A56910   5.869  18.963  19.683 -0.6356 -0.4469 -0.0115
 2921DPPE   C3A56911   5.864  18.730  20.050  0.0967 -0.0861 -0.0298
 2921DPPE   C4A56912   5.990  18.684  20.599  0.1888  0.2726 -0.0915
 2921DPPE   C1B56913   5.525  18.882  19.181  0.4179  0.3296 -0.1250
 2921DPPE   C2B56914   5.326  18.743  19.609  0.0613  0.2193 -0.2038
 2921DPPE   C3B56915   5.368  18.538  19.972 -0.1894 -0.0947 -0.0374
 2921DPPE   C4B56916   5.221  18.463  20.428  0.0300 -0.2361  0.0076
 2922DPPE   NH356917  13.695  27.882  17.848  0.0992  0.3070 -0.1544
 2922DPPE   PO456918  13.887  28.246  17.695 -0.0250 -0.0730  0.0278
 2922DPPE   GL156919  13.647  28.139  17.330 -0.1757 -0.2476  0.0635
 2922DPPE   GL256920  13.652  27.798  17.310 -0.0452  0.0718 -0.1236
 2922DPPE   C1A56921  13.295  28.016  16.939  0.3672 -0.0771 -0.2807
 2922DPPE   C2A56922  13.005  27.773  16.707  0.0790 -0.0572 -0.2624
 2922DPPE   C3A56923  12.650  27.471  16.654 -0.0966 -0.0349 -0.0180
 2922DPPE   C4A56924  12.321  27.213  16.475 -0.1854 -0.0419  0.2683
 2922DPPE   C1B56925  13.504  27.416  17.193  0.2282  0.1361 -0.1311
 2922DPPE   C2B56926  13.170  27.183  17.423  0.1597  0.0108  0.2141
 2922DPPE   C3B56927  12.847  27.076  17.262 -0.0180 -0.0709  0.1191
 2922DPPE   C4B56928  12.494  26.804  17.307 -0.0044 -0.0399  0.3218
 2923DPPE   NH356929   6.003  32.929   8.119 -0.1664 -0.0097  0.2493
 2923DPPE   PO456930   5.616  32.910   8.432 -0.0995  0.0995  0.0240
 2923DPPE   GL156931   5.757  32.436   8.534 -0.2466 -0.0693 -0.0608
 2923DPPE   GL256932   5.554  32.160   8.346 -0.2481 -0.1450  0.0615
 2923DPPE   C1A56933   5.909  32.104   8.803  0.0783  0.0105  0.2354
 2923DPPE   C2A56934   5.681  31.797   8.943  0.0243 -0.0844  0.1687
 2923DPPE   C3A56935   5.443  31.574   9.217  0.2797  0.1903  0.1456
 2923DPPE   C4A56936   5.124  31.279   9.141 -0.1166  0.2297 -0.0546
 2923DPPE   C1B56937   5.762  31.796   8.423  0.1022 -0.0222 -0.1267
 2923DPPE   C2B56938   6.179  31.609   8.416 -0.2425 -0.0071 -0.0070
 2923DPPE   C3B56939   6.592  31.484   8.594 -0.0336 -0.1148 -0.6189
 2923DPPE   C4B56940   7.007  31.537   8.599  0.0142  0.0087 -0.2243
 2924DPPE   NH356941   3.095  30.019  18.461  0.3075 -0.3491 -0.1966
 2924DPPE   PO456942   2.844  29.883  18.078 -0.0537  0.3168  0.3712
 2924DPPE   GL156943   3.078  29.535  18.075  0.1590 -0.0042  0.1798
 2924DPPE   GL256944   3.459  29.534  18.159  0.0861  0.0540 -0.3742
 2924DPPE   C1A56945   3.289  29.263  17.752 -0.0757  0.1042 -0.1741
 2924DPPE   C2A56946   3.504  28.897  17.607  0.2401 -0.0442  0.0073
 2924DPPE   C3A56947   3.520  28.514  17.477  0.1240  0.1860 -0.0918
 2924DPPE   C4A56948   3.664  28.058  17.328  0.1853  0.0599 -0.1039
 2924DPPE   C1B56949   3.658  29.143  18.093 -0.1035  0.2522 -0.0222
 2924DPPE   C2B56950   3.916  28.786  18.268 -0.2130 -0.0625 -0.1283
 2924DPPE   C3B56951   4.196  28.436  18.225  0.0270 -0.0679 -0.2978
 2924DPPE   C4B56952   4.480  28.212  17.868 -0.1414 -0.2262  0.1846
 2925DPPE   NH356953   9.386  21.435  24.572 -0.0778 -0.1105 -0.2385
 2925DPPE   PO456954   9.639  21.287  24.805 -0.2182 -0.1241 -0.0345
 2925DPPE   GL156955   9.350  21.536  25.040 -0.2260  0.1382 -0.0361
 2925DPPE   GL256956   9.188  21.236  25.088 -0.0891  0.4046 -0.0192
 2925DPPE   C1A56957   9.073  21.597  25.400  0.0507  0.0105 -0.1671
 2925DPPE   C2A56958   8.904  21.379  25.824  0.0047  0.3430 -0.2551
 2925DPPE   C3A56959   8.716  21.285  26.127  0.0222 -0.3941  0.0474
 2925DPPE   C4A56960   8.532  21.024  26.256 -0.1813 -0.2256 -0.1424
 2925DPPE   C1B56961   9.492  21.040  25.424  0.4417 -0.1841 -0.1310
 2925DPPE   C2B56962   9.477  20.697  25.730  0.2076 -0.0581  0.1761
 2925DPPE   C3B56963   9.365  20.529  26.137  0.1747 -0.1562 -0.2676
 2925DPPE   C4B56964   9.349  20.580  26.697 -0.0774 -0.3972  0.2799
 2926DPPE   NH356965   7.490  23.994   3.140  0.4370 -0.3410 -0.2851
 2926DPPE   PO456966   7.212  23.682   3.123  0.0786  0.0240  0.1421
 2926DPPE   GL156967   7.297  23.920   2.693 -0.1774  0.1191  0.0010
 2926DPPE   GL256968   7.123  23.870   2.381  0.0702  0.1499  0.0622
 2926DPPE   C1A56969   7.450  24.183   2.374 -0.0673  0.1986 -0.1111
 2926DPPE   C2A56970   7.327  24.433   1.956 -0.2506 -0.1229 -0.1123
 2926DPPE   C3A56971   7.033  24.803   1.756  0.0532  0.0269 -0.0122
 2926DPPE   C4A56972   6.979  25.144   1.443 -0.6660 -0.0758  0.1201
 2926DPPE   C1B56973   6.974  24.299   2.281 -0.1133  0.1088  0.0784
 2926DPPE   C2B56974   6.978  24.737   2.292  0.2015 -0.1399  0.0136
 2926DPPE   C3B56975   7.112  25.142   2.122 -0.1522 -0.0852 -0.1355
 2926DPPE   C4B56976   7.077  25.630   2.265 -0.0267  0.0872 -0.1348
 2927DPPE   NH356977  12.802  30.621  14.182  0.0739  0.2071 -0.0100
 2927DPPE   PO456978  13.145  30.309  14.319  0.0277  0.0354 -0.3605
 2927DPPE   GL156979  13.180  29.934  14.495  0.1001 -0.1586  0.0203
 2927DPPE   GL256980  13.319  29.773  14.417 -0.1286 -0.4697 -0.0380
 2927DPPE   C1A56981  12.889  29.677  14.879 -0.0267 -0.0487  0.1234
 2927DPPE   C2A56982  12.736  29.353  15.046  0.2843 -0.0343  0.1890
 2927DPPE   C3A56983  12.441  29.034  15.058 -0.1235 -0.4078  0.3058
 2927DPPE   C4A56984  12.358  28.664  14.977 -0.3047  0.0525  0.2574
 2927DPPE   C1B56985  13.444  29.695  14.053 -0.1065 -0.0120 -0.2199
 2927DPPE   C2B56986  13.654  29.220  13.850  0.1249 -0.2581 -0.0545
 2927DPPE   C3B56987  13.872  28.730  13.832 -0.0843  0.2378 -0.0022
 2927DPPE   C4B56988  13.572  28.400  13.781 -0.0101  0.1452  0.1213
 2928DPPE   NH356989  17.934  25.871  11.091  0.1395 -0.0225  0.0042
 2928DPPE   PO456990  17.851  26.121  10.654 -0.1244  0.2681 -0.1809
 2928DPPE   GL156991  17.493  25.901  10.607 -0.0731  0.1049 -0.0118
 2928DPPE   GL256992  17.115  26.100  10.645  0.3858  0.0135 -0.1305
 2928DPPE   C1A56993  17.300  25.656  10.937 -0.0984 -0.2441  0.3438
 2928DPPE   C2A56994  17.012  25.456  11.054  0.1299  0.3264 -0.4021
 2928DPPE   C3A56995  16.811  24.964  10.953  0.1141  0.0440 -0.0105
 2928DPPE   C4A56996  16.716  24.514  10.824 -0.2424 -0.0705  0.1521
 2928DPPE   C1B56997  16.646  26.004  10.675 -0.1305  0.0426  0.2441
 2928DPPE   C2B56998  16.204  26.103  10.799  0.0717 -0.0650 -0.2442
 2928DPPE   C3B56999  16.024  25.940  11.147 -0.1589  0.1428  0.0603
 2928DPPE   C4B57000  15.711  25.824  11.490  0.1500 -0.0366  0.0359
 2929DPPE   NH357001   0.689  22.089   4.696  0.2018 -0.0928 -0.0762
 2929DPPE   PO457002   0.884  22.395   4.458 -0.1138 -0.2299 -0.0346
 2929DPPE   GL157003   0.761  22.310   4.044  0.1165 -0.4899  0.0464
 2929DPPE   GL257004   0.615  22.080   4.131 -0.1683  0.2231  0.0707
 2929DPPE   C1A57005   0.440  22.276   3.584 -0.0433 -0.1836 -0.0825
 2929DPPE   C2A57006   0.015  22.387   3.500  0.2842  0.1503 -0.1703
 2929DPPE   C3A57007  -0.213  22.591   3.320  0.0084  0.1567 -0.4334
 2929DPPE   C4A57008  -0.499  22.682   2.982  0.1759  0.3394 -0.1699
 2929DPPE   C1B57009   0.206  22.192   4.033 -0.1088 -0.0900  0.1310
 2929DPPE   C2B57010  -0.150  21.958   3.790  0.0700 -0.1712 -0.4012
 2929DPPE   C3B57011  -0.457  21.991   3.469 -0.1069 -0.1461 -0.0646
 2929DPPE   C4B57012  -0.629  22.360   3.470 -0.0071  0.2981 -0.0887
 2930DPPE   NH357013  35.998  19.513  20.989 -0.0600  0.2391  0.2736
 2930DPPE   PO457014  36.305  19.521  20.709  0.1874 -0.0179  0.1800
 2930DPPE   GL157015  36.406  19.413  20.238  0.0021 -0.1226  0.0083
 2930DPPE   GL257016  36.733  19.322  19.994  0.1252 -0.1603  0.3805
 2930DPPE   C1A57017  36.258  19.450  19.947  0.0309  0.1614 -0.0013
 2930DPPE   C2A57018  36.308  19.382  19.617  0.0286 -0.0274  0.0774
 2930DPPE   C3A57019  36.069  19.280  19.343  0.1473  0.1635 -0.1093
 2930DPPE   C4A57020  35.745  18.956  19.308 -0.4105 -0.0337 -0.0183
 2930DPPE   C1B57021  36.514  18.995  19.973 -0.0252  0.0412 -0.1571
 2930DPPE   C2B57022  36.374  18.820  19.557 -0.0172  0.1180 -0.1619
 2930DPPE   C3B57023  36.201  18.775  19.110  0.0417  0.3970  0.0942
 2930DPPE   C4B57024  36.145  18.386  18.701 -0.1347 -0.0668  0.3161
 2931DPPE   NH357025   1.077  17.714  21.554  0.3071  0.2526 -0.4361
 2931DPPE   PO457026   0.664  17.542  21.462 -0.1536  0.2079 -0.0917
 2931DPPE   GL157027   0.499  17.601  21.013 -0.1416  0.1554 -0.1880
 2931DPPE   GL257028   0.435  17.821  20.793  0.0917 -0.1467 -0.4048
 2931DPPE   C1A57029   0.391  17.270  20.626 -0.0303  0.0096 -0.4835
 2931DPPE   C2A57030   0.321  16.925  20.287 -0.1440 -0.1193 -0.1450
 2931DPPE   C3A57031   0.274  16.914  19.857 -0.2318 -0.0362 -0.2670
 2931DPPE   C4A57032   0.153  16.783  19.449  0.0966 -0.2893  0.0127
 2931DPPE   C1B57033   0.187  17.674  20.460 -0.0613 -0.0436  0.2427
 2931DPPE   C2B57034   0.164  17.690  20.018  0.0870  0.0805 -0.0690
 2931DPPE   C3B57035   0.278  17.785  19.641  0.0501  0.2163 -0.0055
 2931DPPE   C4B57036   0.417  17.789  19.219  0.1863 -0.0339  0.2233
 2932DPPE   NH357037  14.061  30.454   9.718 -0.1636  0.0080 -0.0416
 2932DPPE   PO457038  14.146  30.364   9.230  0.2189 -0.1454 -0.0160
 2932DPPE   GL157039  13.808  30.249   9.001  0.0458  0.1885 -0.2174
 2932DPPE   GL257040  13.913  29.967   8.804  0.1603 -0.2649  0.2307
 2932DPPE   C1A57041  13.432  30.179   9.158 -0.0242  0.1042 -0.1210
 2932DPPE   C2A57042  13.143  29.833   9.420 -0.1394 -0.0712  0.2099
 2932DPPE   C3A57043  12.706  29.694   9.594 -0.1254 -0.3906  0.2355
 2932DPPE   C4A57044  12.319  29.489   9.481  0.0670 -0.2849  0.0489
 2932DPPE   C1B57045  13.497  29.845   8.725  0.0950 -0.1222  0.2964
 2932DPPE   C2B57046  13.080  29.744   8.900 -0.0874  0.0546 -0.2258
 2932DPPE   C3B57047  12.744  29.464   9.136 -0.2653 -0.0795 -0.2065
 2932DPPE   C4B57048  12.360  29.253   9.019 -0.1245  0.0971 -0.2434
 2933DPPE   NH357049  38.074  22.461  12.807  0.4079 -0.2574  0.4728
 2933DPPE   PO457050  37.935  22.093  12.940 -0.1846 -0.2740 -0.0439
 2933DPPE   GL157051  37.482  21.901  13.137 -0.2253  0.2712 -0.0254
 2933DPPE   GL257052  37.282  21.808  12.831  0.0308  0.2587 -0.0549
 2933DPPE   C1A57053  37.122  22.055  13.395  0.1541  0.3026 -0.0844
 2933DPPE   C2A57054  36.797  22.289  13.510  0.6976  0.0743  0.0810
 2933DPPE   C3A57055  36.348  22.396  13.750  0.1015  0.0020 -0.0562
 2933DPPE   C4A57056  35.929  22.525  13.676 -0.0693 -0.1943  0.3884
 2933DPPE   C1B57057  36.934  21.746  13.016  0.0725 -0.0602 -0.2864
 2933DPPE   C2B57058  36.638  21.953  13.154  0.2755  0.2565 -0.1515
 2933DPPE   C3B57059  36.323  22.264  13.261  0.2583  0.0843 -0.3496
 2933DPPE   C4B57060  36.365  22.711  13.390  0.2024  0.1744 -0.0736
 2934DPPE   NH357061  10.370  27.766  20.858  0.2495  0.0121  0.2880
 2934DPPE   PO457062  10.551  27.750  20.597 -0.0700 -0.1673 -0.1538
 2934DPPE   GL157063  10.223  27.465  20.343  0.0294  0.2662 -0.1432
 2934DPPE   GL257064   9.953  27.486  20.475 -0.1207  0.0080  0.0175
 2934DPPE   C1A57065  10.213  27.506  19.914  0.0342 -0.0937 -0.1802
 2934DPPE   C2A57066  10.237  27.549  19.469 -0.3649 -0.0070 -0.3021
 2934DPPE   C3A57067  10.029  27.297  19.123 -0.0183  0.0173 -0.0808
 2934DPPE   C4A57068   9.844  27.009  18.786 -0.0486 -0.0270  0.0586
 2934DPPE   C1B57069   9.913  27.083  20.212  0.3898 -0.0776 -0.0752
 2934DPPE   C2B57070   9.846  26.799  19.909 -0.3454  0.1292 -0.1259
 2934DPPE   C3B57071   9.813  26.391  19.629  0.1712 -0.3831  0.1236
 2934DPPE   C4B57072   9.514  26.160  19.311 -0.1782 -0.1254 -0.1148
 2935DPPE   NH357073  31.210  14.078  15.040 -0.1062 -0.2530  0.2438
 2935DPPE   PO457074  30.948  14.469  14.816 -0.0336  0.3534 -0.2525
 2935DPPE   GL157075  31.241  14.698  15.060 -0.1090  0.0028  0.0968
 2935DPPE   GL257076  31.426  14.480  15.190 -0.1984  0.3036  0.2584
 2935DPPE   C1A57077  31.497  14.982  14.882  0.2586 -0.0372 -0.2478
 2935DPPE   C2A57078  31.916  15.216  14.687 -0.1165  0.0124 -0.1378
 2935DPPE   C3A57079  32.163  15.627  14.556 -0.2638  0.1505  0.1643
 2935DPPE   C4A57080  32.382  15.960  14.326 -0.4285 -0.0334  0.0608
 2935DPPE   C1B57081  31.784  14.754  15.245 -0.0729  0.4706 -0.1705
 2935DPPE   C2B57082  32.164  14.916  15.043 -0.0464  0.2304  0.1232
 2935DPPE   C3B57083  32.679  14.909  14.969  0.1221 -0.0408 -0.3018
 2935DPPE   C4B57084  32.994  14.845  15.086  0.0448  0.2193  0.1569
 2936DPPE   NH357085  34.833  26.044   4.531  0.0639 -0.1782  0.0408
 2936DPPE   PO457086  35.213  26.077   4.314  0.0403 -0.1394 -0.0672
 2936DPPE   GL157087  35.610  25.909   4.382  0.0659 -0.1253  0.1184
 2936DPPE   GL257088  35.935  25.937   4.317 -0.0403 -0.3816 -0.1835
 2936DPPE   C1A57089  35.714  25.559   4.676 -0.0924  0.1777 -0.1318
 2936DPPE   C2A57090  35.844  25.239   4.935 -0.2160  0.2695 -0.0784
 2936DPPE   C3A57091  36.212  25.210   5.210 -0.0308 -0.0378 -0.2841
 2936DPPE   C4A57092  36.434  24.957   5.429 -0.0617 -0.1802  0.1249
 2936DPPE   C1B57093  36.279  25.644   4.068  0.0487 -0.1722 -0.3448
 2936DPPE   C2B57094  36.411  25.148   4.127 -0.0916 -0.2254 -0.1742
 2936DPPE   C3B57095  36.797  24.959   4.216  0.1009 -0.2123 -0.0733
 2936DPPE   C4B57096  36.957  24.792   4.636 -0.0803  0.0561  0.1287
 2937DPPE   NH357097  37.071  18.836  21.107 -0.1221  0.1863  0.0824
 2937DPPE   PO457098  36.525  18.777  21.253 -0.2634 -0.1623  0.1915
 2937DPPE   GL157099  36.474  18.629  20.820 -0.1725 -0.0935 -0.0816
 2937DPPE   GL257100  36.553  18.268  20.706 -0.3705  0.0531  0.0398
 2937DPPE   C1A57101  36.414  18.525  20.340 -0.0957  0.0018  0.1975
 2937DPPE   C2A57102  36.433  18.453  19.929 -0.0525  0.0709  0.4407
 2937DPPE   C3A57103  36.823  18.291  19.608  0.2900 -0.1253 -0.0563
 2937DPPE   C4A57104  36.935  18.185  19.120 -0.1137  0.2246  0.2229
 2937DPPE   C1B57105  36.898  18.447  20.440 -0.1404 -0.0540 -0.1378
 2937DPPE   C2B57106  36.928  18.427  20.080 -0.0034 -0.1692 -0.1320
 2937DPPE   C3B57107  37.219  18.582  19.664  0.0174 -0.1324 -0.0274
 2937DPPE   C4B57108  37.467  18.530  19.240 -0.1372  0.1193  0.1636
 2938DPPE   NH357109  16.055  23.231   0.883  0.1721  0.2055 -0.3321
 2938DPPE   PO457110  15.667  23.298   1.129  0.2201 -0.0554  0.3547
 2938DPPE   GL157111  15.601  23.493   1.515  0.1223  0.1427 -0.1182
 2938DPPE   GL257112  15.795  23.622   1.796  0.1788  0.0482 -0.1216
 2938DPPE   C1A57113  15.163  23.621   1.866 -0.1416  0.1778  0.0674
 2938DPPE   C2A57114  14.767  23.626   1.942  0.2176  0.0714 -0.3996
 2938DPPE   C3A57115  14.390  23.510   2.239 -0.2646  0.0410  0.1715
 2938DPPE   C4A57116  13.953  23.387   2.136  0.4015  0.1692 -0.1459
 2938DPPE   C1B57117  15.573  23.324   2.111 -0.0515  0.2850  0.1142
 2938DPPE   C2B57118  15.193  23.237   2.253 -0.1613 -0.2280  0.2916
 2938DPPE   C3B57119  14.812  23.060   2.079 -0.1248  0.3463  0.2792
 2938DPPE   C4B57120  14.545  22.758   1.861  0.0631  0.0714 -0.2180
 2939DPPE   NH357121   0.353  19.360  10.112 -0.1725  0.0940  0.0055
 2939DPPE   PO457122   0.417  19.230   9.648  0.1295  0.2293 -0.4286
 2939DPPE   GL157123   0.044  18.987   9.666 -0.1864 -0.3942 -0.1732
 2939DPPE   GL257124   0.096  18.915   9.351 -0.1169  0.2594 -0.4565
 2939DPPE   C1A57125  -0.274  18.659   9.709 -0.1041  0.2382  0.1458
 2939DPPE   C2A57126  -0.695  18.411   9.715  0.1440 -0.2421  0.1998
 2939DPPE   C3A57127  -0.892  18.156   9.908 -0.1112  0.1740 -0.1042
 2939DPPE   C4A57128  -1.187  18.007  10.258 -0.0646 -0.4345 -0.1663
 2939DPPE   C1B57129  -0.402  19.084   9.392  0.0296  0.1834 -0.1303
 2939DPPE   C2B57130  -0.820  18.921   9.614  0.1915  0.3009  0.0770
 2939DPPE   C3B57131  -1.302  19.018   9.571  0.1385 -0.3434  0.1263
 2939DPPE   C4B57132  -1.694  19.276   9.726  0.0167  0.1583 -0.0346
 2940DPPE   NH357133   1.834  29.068   2.993  0.3429 -0.0282  0.0845
 2940DPPE   PO457134   1.928  28.698   2.762 -0.1169  0.0650  0.1311
 2940DPPE   GL157135   1.846  28.331   2.904  0.0360 -0.4534  0.2912
 2940DPPE   GL257136   2.159  28.154   2.914 -0.1876 -0.0673  0.1248
 2940DPPE   C1A57137   1.775  27.872   2.916 -0.2123  0.0248 -0.3043
 2940DPPE   C2A57138   1.829  27.464   3.043  0.0068 -0.0486 -0.0793
 2940DPPE   C3A57139   2.208  27.563   3.273 -0.0011 -0.0571 -0.1632
 2940DPPE   C4A57140   2.370  27.642   3.645  0.4116 -0.2981  0.0385
 2940DPPE   C1B57141   2.467  27.995   3.246  0.1931  0.0450 -0.2645
 2940DPPE   C2B57142   2.862  27.875   3.491 -0.0354 -0.0849  0.0490
 2940DPPE   C3B57143   3.102  27.873   3.887 -0.2535  0.1498  0.1690
 2940DPPE   C4B57144   2.947  28.065   4.169  0.0325  0.1324 -0.1527
 2941DPPE   NH357145  29.345  19.132   7.575 -0.1565 -0.0876  0.0661
 2941DPPE   PO457146  29.496  18.797   7.330 -0.1266  0.0582 -0.1148
 2941DPPE   GL157147  29.926  18.841   7.458  0.0601 -0.1818 -0.1087
 2941DPPE   GL257148  30.092  18.845   7.283  0.1603  0.3517  0.2287
 2941DPPE   C1A57149  30.138  19.135   7.703  0.0343 -0.0941  0.1461
 2941DPPE   C2A57150  30.514  19.130   7.776 -0.2603 -0.3252  0.0290
 2941DPPE   C3A57151  30.905  19.190   7.558 -0.0619  0.1751  0.0698
 2941DPPE   C4A57152  31.251  18.864   7.600 -0.2542  0.1134 -0.0455
 2941DPPE   C1B57153  30.449  18.697   7.360 -0.0743  0.0343 -0.2078
 2941DPPE   C2B57154  30.884  18.504   7.350  0.1156  0.4109 -0.1783
 2941DPPE   C3B57155  31.270  18.480   7.247  0.0168 -0.2553 -0.2180
 2941DPPE   C4B57156  31.641  18.700   7.036 -0.3611  0.1952  0.1133
 2942DPPE   NH357157   6.351   9.377  10.098  0.0124 -0.3022 -0.0750
 2942DPPE   PO457158   6.677   9.322  10.466 -0.4774 -0.1936  0.0109
 2942DPPE   GL157159   6.339   9.594  10.694  0.3973 -0.0107  0.2150
 2942DPPE   GL257160   6.057   9.709  10.393 -0.2032  0.0128 -0.0558
 2942DPPE   C1A57161   6.165   9.864  10.913 -0.0217  0.0770  0.1821
 2942DPPE   C2A57162   5.931  10.157  10.823  0.0833  0.2607 -0.0589
 2942DPPE   C3A57163   6.180  10.376  10.578 -0.1271 -0.0112  0.2039
 2942DPPE   C4A57164   6.558  10.244  10.412 -0.3471  0.2527  0.1592
 2942DPPE   C1B57165   6.047  10.082  10.108 -0.0733  0.1126 -0.2221
 2942DPPE   C2B57166   6.248  10.475  10.021 -0.1295  0.4087  0.0586
 2942DPPE   C3B57167   6.416  10.777  10.211  0.0027 -0.1217  0.0764
 2942DPPE   C4B57168   6.505  11.280  10.451  0.2332 -0.3399 -0.0055
 2943DPPE   NH357169   2.448  23.283  25.650 -0.0715 -0.0094  0.0396
 2943DPPE   PO457170   2.048  23.488  25.682 -0.2175  0.1198  0.0046
 2943DPPE   GL157171   2.156  23.493  26.115  0.0590  0.1953  0.1463
 2943DPPE   GL257172   2.381  23.282  26.180  0.0079  0.5532 -0.3014
 2943DPPE   C1A57173   2.191  23.706  26.466  0.5391  0.0861 -0.2216
 2943DPPE   C2A57174   2.348  23.966  26.846 -0.2251 -0.0175  0.0265
 2943DPPE   C3A57175   2.472  23.704  27.122  0.2347 -0.0732  0.0427
 2943DPPE   C4A57176   2.812  23.536  27.372  0.1495  0.1000  0.3952
 2943DPPE   C1B57177   2.450  23.292  26.581  0.0598  0.1758 -0.0265
 2943DPPE   C2B57178   2.424  23.193  26.906  0.0447  0.3694  0.1415
 2943DPPE   C3B57179   2.369  23.292  27.434 -0.0260 -0.1188  0.0897
 2943DPPE   C4B57180   1.989  23.161  27.807  0.3327  0.3430 -0.2038
 2944DPPE   NH357181   4.444  14.437  14.226  0.2087  0.0001  0.2602
 2944DPPE   PO457182   4.260  14.713  13.937  0.2626  0.0805  0.0731
 2944DPPE   GL157183   4.043  14.395  13.888 -0.2545 -0.0915 -0.3432
 2944DPPE   GL257184   3.808  14.428  13.700 -0.0305  0.0319 -0.1375
 2944DPPE   C1A57185   3.881  13.928  13.923 -0.1682  0.1209 -0.1890
 2944DPPE   C2A57186   3.864  13.767  14.265  0.0398 -0.3864 -0.5238
 2944DPPE   C3A57187   4.144  13.812  14.519 -0.0815 -0.1998 -0.1676
 2944DPPE   C4A57188   4.264  13.880  14.921  0.2355 -0.1293 -0.1767
 2944DPPE   C1B57189   3.720  14.085  13.434  0.2871  0.3374  0.1911
 2944DPPE   C2B57190   3.443  13.986  13.134  0.0956  0.3108 -0.4000
 2944DPPE   C3B57191   3.235  14.139  12.695  0.0924 -0.0502  0.2149
 2944DPPE   C4B57192   3.276  14.040  12.307  0.0635  0.1971  0.1094
 2945DPPE   NH357193  18.330  18.827   4.600 -0.1087 -0.1912 -0.1356
 2945DPPE   PO457194  18.208  18.686   4.149  0.0284  0.1448  0.0952
 2945DPPE   GL157195  17.711  18.540   4.219 -0.1798 -0.0472 -0.1414
 2945DPPE   GL257196  17.526  18.389   3.952  0.2046  0.6203  0.0057
 2945DPPE   C1A57197  17.332  18.830   4.356  0.1442 -0.1043 -0.1453
 2945DPPE   C2A57198  17.331  19.011   4.786  0.0106 -0.1321 -0.0255
 2945DPPE   C3A57199  17.514  19.141   5.106  0.1548 -0.4327  0.1021
 2945DPPE   C4A57200  17.671  19.358   5.459 -0.0524 -0.0896 -0.3056
 2945DPPE   C1B57201  17.299  18.739   3.907  0.1053 -0.1626  0.2877
 2945DPPE   C2B57202  17.013  19.116   4.141  0.0703 -0.0157 -0.3504
 2945DPPE   C3B57203  17.090  19.455   4.385  0.1595  0.1648 -0.1476
 2945DPPE   C4B57204  17.252  19.670   4.644  0.2233  0.0354  0.1077
 2946DPPE   NH357205   3.416  32.027  13.460 -0.1560  0.1502 -0.2577
 2946DPPE   PO457206   3.003  31.719  13.534  0.1433 -0.2947  0.1372
 2946DPPE   GL157207   3.355  31.416  13.458  0.0351 -0.1773 -0.0626
 2946DPPE   GL257208   3.578  31.569  13.706 -0.3112  0.1475  0.2037
 2946DPPE   C1A57209   3.613  31.133  13.122 -0.1339 -0.5436  0.1741
 2946DPPE   C2A57210   4.026  31.249  13.030  0.0349 -0.2048  0.0982
 2946DPPE   C3A57211   4.382  31.146  12.842  0.1209  0.1585  0.3281
 2946DPPE   C4A57212   4.736  30.884  12.767 -0.0118  0.0100 -0.0115
 2946DPPE   C1B57213   3.755  31.141  13.632  0.5255  0.3013  0.0570
 2946DPPE   C2B57214   3.898  30.744  13.465 -0.2409  0.1312  0.0119
 2946DPPE   C3B57215   3.720  30.440  13.390  0.1172 -0.2788 -0.2574
 2946DPPE   C4B57216   3.831  29.946  13.399  0.0243 -0.2040 -0.1158
 2947DPPE   NH357217  14.985  14.968  15.262 -0.3085 -0.3562 -0.2023
 2947DPPE   PO457218  14.715  14.665  15.550  0.2006 -0.0314  0.0371
 2947DPPE   GL157219  14.340  14.896  15.567 -0.0378  0.1570  0.3333
 2947DPPE   GL257220  14.289  15.069  15.834  0.0928  0.2131  0.0795
 2947DPPE   C1A57221  14.033  14.947  15.253  0.1601  0.2420 -0.1756
 2947DPPE   C2A57222  13.770  15.226  15.008 -0.0562 -0.1535  0.2286
 2947DPPE   C3A57223  13.466  15.502  14.920  0.0054  0.2943 -0.2031
 2947DPPE   C4A57224  13.540  15.890  14.715  0.0746 -0.0044 -0.1308
 2947DPPE   C1B57225  13.908  15.331  15.858  0.0289 -0.0731 -0.0061
 2947DPPE   C2B57226  13.445  15.273  15.848 -0.2298 -0.0247 -0.1659
 2947DPPE   C3B57227  13.241  14.991  15.993  0.0050  0.0991 -0.1500
 2947DPPE   C4B57228  13.545  14.681  16.132  0.1353 -0.2130 -0.0563
 2948DPPE   NH357229   1.199  18.443  14.134 -0.1840  0.1972  0.1497
 2948DPPE   PO457230   1.588  18.176  14.200  0.0779  0.0454  0.1878
 2948DPPE   GL157231   1.262  17.864  14.357 -0.1634  0.1473  0.2060
 2948DPPE   GL257232   1.050  18.098  14.455 -0.0384 -0.0638  0.1620
 2948DPPE   C1A57233   1.142  17.613  14.636  0.0007  0.1016  0.0737
 2948DPPE   C2A57234   1.169  17.184  14.944  0.0167  0.0021 -0.1581
 2948DPPE   C3A57235   1.128  16.870  15.223  0.2865  0.5093  0.1113
 2948DPPE   C4A57236   0.868  16.652  15.259 -0.0709  0.1907  0.0151
 2948DPPE   C1B57237   0.701  17.810  14.552 -0.0115 -0.3588 -0.1612
 2948DPPE   C2B57238   0.236  17.807  14.862 -0.2795  0.1532  0.1637
 2948DPPE   C3B57239  -0.146  18.180  14.721  0.1745  0.0528  0.1558
 2948DPPE   C4B57240  -0.220  18.248  14.251  0.0589  0.2836 -0.2616
 2949DPPE   NH357241   0.654  19.045  10.420  0.1186 -0.2868 -0.2634
 2949DPPE   PO457242   0.399  18.821  10.035  0.0729  0.2043 -0.3281
 2949DPPE   GL157243  -0.028  18.501  10.179  0.0655  0.0329 -0.0233
 2949DPPE   GL257244   0.042  18.224  10.118  0.0318  0.0977  0.0856
 2949DPPE   C1A57245  -0.483  18.337  10.153 -0.3618 -0.0561 -0.3547
 2949DPPE   C2A57246  -0.724  18.044  10.485  0.1189  0.3291  0.1424
 2949DPPE   C3A57247  -0.848  17.697  10.774 -0.0444 -0.0829 -0.0194
 2949DPPE   C4A57248  -1.222  17.586  11.059 -0.1575  0.0619 -0.1448
 2949DPPE   C1B57249  -0.277  18.109   9.760 -0.0938  0.1519  0.1413
 2949DPPE   C2B57250  -0.660  17.886   9.593  0.1264 -0.0246 -0.0833
 2949DPPE   C3B57251  -0.929  18.162   9.308 -0.1370  0.0289  0.0550
 2949DPPE   C4B57252  -1.144  18.555   9.400 -0.0977  0.0102 -0.0108
 2950DPPE   NH357253  37.947   8.311   4.177  0.0429  0.0187  0.0607
 2950DPPE   PO457254  38.147   8.402   3.706  0.2210 -0.3422 -0.3486
 2950DPPE   GL157255  38.406   8.541   3.965 -0.0715 -0.0375 -0.0984
 2950DPPE   GL257256  38.313   8.670   4.241  0.0435 -0.1205 -0.3745
 2950DPPE   C1A57257  38.675   8.826   3.770 -0.0796 -0.3099  0.1030
 2950DPPE   C2A57258  38.947   9.077   3.512  0.0480  0.1500 -0.1577
 2950DPPE   C3A57259  39.386   9.340   3.562 -0.2581 -0.0566 -0.3868
 2950DPPE   C4A57260  39.657   9.639   3.733 -0.0759  0.3986 -0.0236
 2950DPPE   C1B57261  38.035   8.784   4.639  0.1420  0.0930  0.2848
 2950DPPE   C2B57262  37.861   8.645   5.162  0.2277  0.0909  0.4949
 2950DPPE   C3B57263  38.146   8.572   5.509  0.0442  0.3036 -0.1414
 2950DPPE   C4B57264  38.449   8.142   5.459  0.0590  0.0393 -0.1568
 2951DPPE   NH357265  33.140  13.509   3.648 -0.1752 -0.2813  0.1015
 2951DPPE   PO457266  33.190  13.152   3.887  0.0551  0.2327  0.0177
 2951DPPE   GL157267  33.501  13.291   4.066  0.0541  0.1117 -0.2735
 2951DPPE   GL257268  33.430  13.626   4.086 -0.1656  0.0670 -0.1909
 2951DPPE   C1A57269  33.776  13.326   4.429  0.1843  0.0330  0.0089
 2951DPPE   C2A57270  34.061  13.610   4.631  0.1116  0.1846  0.0366
 2951DPPE   C3A57271  34.399  13.668   4.898  0.0157 -0.2008 -0.0368
 2951DPPE   C4A57272  34.544  14.041   5.149  0.1990 -0.0180 -0.0715
 2951DPPE   C1B57273  33.817  13.771   4.128 -0.0949 -0.2906 -0.1292
 2951DPPE   C2B57274  34.007  14.073   4.097 -0.1406 -0.0225 -0.0916
 2951DPPE   C3B57275  34.399  14.203   4.095 -0.0435 -0.0280  0.1134
 2951DPPE   C4B57276  34.559  14.619   4.143 -0.0702  0.0363 -0.1415
 2952DPPE   NH357277  17.194  25.673  15.312 -0.2527 -0.5528  0.2152
 2952DPPE   PO457278  16.907  25.998  15.196  0.0955 -0.1057  0.0818
 2952DPPE   GL157279  16.842  25.679  14.939  0.0392  0.1013 -0.1353
 2952DPPE   GL257280  17.006  25.365  14.948 -0.0942  0.1551 -0.3541
 2952DPPE   C1A57281  16.621  25.430  14.661 -0.0346  0.1518  0.2017
 2952DPPE   C2A57282  16.754  25.365  14.280 -0.2487  0.4072 -0.2380
 2952DPPE   C3A57283  16.613  25.494  13.889  0.0403  0.3211 -0.3059
 2952DPPE   C4A57284  16.336  25.835  13.899 -0.1571 -0.2892  0.0291
 2952DPPE   C1B57285  16.979  25.041  14.587  0.0803 -0.3146  0.1171
 2952DPPE   C2B57286  16.552  24.929  14.449 -0.0931  0.2505 -0.0979
 2952DPPE   C3B57287  16.291  25.169  14.239 -0.4720 -0.0523  0.0023
 2952DPPE   C4B57288  16.011  25.381  13.955  0.0387  0.2222 -0.1338
 2953DPPE   NH357289  34.427   9.303  11.034  0.0283 -0.0049 -0.3082
 2953DPPE   PO457290  34.609   8.992  11.320  0.0111 -0.1558  0.1948
 2953DPPE   GL157291  34.982   9.102  11.146 -0.0633  0.0330 -0.1986
 2953DPPE   GL257292  35.061   8.733  11.062  0.1011 -0.0134  0.2409
 2953DPPE   C1A57293  35.377   9.167  11.041  0.2302 -0.0675  0.2562
 2953DPPE   C2A57294  35.753   9.321  10.714  0.2885 -0.2819  0.0171
 2953DPPE   C3A57295  35.988   9.584  10.477 -0.1940 -0.1859  0.1635
 2953DPPE   C4A57296  35.977  10.016  10.470 -0.1207  0.0791  0.0589
 2953DPPE   C1B57297  35.322   8.782  10.706  0.0647 -0.1359  0.3606
 2953DPPE   C2B57298  35.823   8.803  10.774  0.1397  0.2142 -0.2375
 2953DPPE   C3B57299  36.151   8.988  10.875 -0.0892  0.0617 -0.2041
 2953DPPE   C4B57300  36.266   9.353  10.790 -0.0360 -0.2217 -0.0476
 2954DPPE   NH357301  16.538  24.522  16.747 -0.1548  0.1322  0.0076
 2954DPPE   PO457302  16.839  24.431  16.414 -0.1286  0.2309 -0.1632
 2954DPPE   GL157303  16.561  24.086  16.365 -0.1435  0.0645 -0.5301
 2954DPPE   GL257304  16.304  24.215  16.363 -0.1162 -0.0322 -0.1113
 2954DPPE   C1A57305  16.365  23.766  16.159  0.0691 -0.0446 -0.2205
 2954DPPE   C2A57306  16.077  23.574  15.881 -0.0569  0.2810 -0.2665
 2954DPPE   C3A57307  15.655  23.566  15.595 -0.1091 -0.0119  0.2385
 2954DPPE   C4A57308  15.277  23.559  15.310 -0.0454 -0.0328 -0.0350
 2954DPPE   C1B57309  15.885  24.460  16.347 -0.0944  0.2338 -0.0140
 2954DPPE   C2B57310  15.503  24.352  16.220 -0.1953 -0.3954 -0.3514
 2954DPPE   C3B57311  15.102  24.548  16.136 -0.1046 -0.0026 -0.1118
 2954DPPE   C4B57312  14.666  24.465  16.145 -0.2295  0.1139  0.2511
 2955DPPE   NH357313  31.482  13.575   8.062 -0.0551 -0.0947  0.3303
 2955DPPE   PO457314  31.296  13.552   8.374  0.3869 -0.1792 -0.0915
 2955DPPE   GL157315  31.548  14.021   8.450  0.3830  0.3013 -0.2384
 2955DPPE   GL257316  31.625  14.004   8.828 -0.0093  0.1847  0.2010
 2955DPPE   C1A57317  31.960  14.230   8.540  0.0893 -0.2873 -0.1051
 2955DPPE   C2A57318  32.275  14.511   8.380 -0.0158 -0.0321  0.1857
 2955DPPE   C3A57319  32.705  14.479   8.365 -0.1994  0.3243 -0.1165
 2955DPPE   C4A57320  32.970  14.464   8.724 -0.1726  0.0181 -0.5846
 2955DPPE   C1B57321  31.931  14.286   9.041  0.1823 -0.2328 -0.4206
 2955DPPE   C2B57322  32.157  14.617   9.160 -0.0578  0.3738 -0.3130
 2955DPPE   C3B57323  32.363  14.996   9.050  0.2332  0.2394 -0.2267
 2955DPPE   C4B57324  32.568  15.411   9.128 -0.0493  0.0857 -0.2605
 2956DPPE   NH357325   5.013  27.504   0.292  0.3932 -0.3119 -0.2434
 2956DPPE   PO457326   5.128  27.085   0.452  0.0550 -0.0516  0.1258
 2956DPPE   GL157327   5.132  26.661   0.543  0.1461  0.2304 -0.2153
 2956DPPE   GL257328   4.848  26.515   0.733  0.2155 -0.0634  0.2172
 2956DPPE   C1A57329   5.246  26.222   0.625 -0.2091  0.2116  0.0851
 2956DPPE   C2A57330   5.329  25.767   0.776  0.3554 -0.0198 -0.3222
 2956DPPE   C3A57331   5.476  25.472   1.192  0.3241  0.0887 -0.1663
 2956DPPE   C4A57332   5.637  25.436   1.503 -0.0764  0.2853  0.2131
 2956DPPE   C1B57333   5.123  26.365   1.080 -0.0069 -0.2085 -0.1953
 2956DPPE   C2B57334   5.069  25.964   1.168  0.0838  0.1135 -0.2474
 2956DPPE   C3B57335   4.981  25.545   1.111 -0.0175 -0.1900  0.2598
 2956DPPE   C4B57336   4.571  25.296   1.076  0.0689 -0.2144  0.2148
 2957DPPE   NH357337  29.325  20.989  10.080 -0.3471 -0.5375  0.1333
 2957DPPE   PO457338  29.248  20.790  10.486 -0.1353  0.0648 -0.2539
 2957DPPE   GL157339  29.586  20.601  10.292  0.2615  0.2799  0.0405
 2957DPPE   GL257340  29.679  20.667   9.889 -0.2730 -0.0719  0.1738
 2957DPPE   C1A57341  29.918  20.486  10.426  0.0590  0.2466  0.2210
 2957DPPE   C2A57342  30.114  20.298  10.738  0.1219  0.0544 -0.0216
 2957DPPE   C3A57343  30.341  20.550  10.971 -0.0265  0.2655  0.4043
 2957DPPE   C4A57344  30.663  20.729  11.100  0.4036 -0.0261  0.1256
 2957DPPE   C1B57345  30.027  20.514   9.779 -0.1190 -0.2977  0.1110
 2957DPPE   C2B57346  30.353  20.635   9.475 -0.2319 -0.0529  0.0353
 2957DPPE   C3B57347  30.736  20.443   9.368  0.4765  0.2640  0.1317
 2957DPPE   C4B57348  31.084  20.196   9.103 -0.1011 -0.3476  0.1221
 2958DPPE   NH357349  15.870  20.703  18.368 -0.3790 -0.0647 -0.1226
 2958DPPE   PO457350  16.114  20.972  18.238 -0.0824  0.2127  0.2456
 2958DPPE   GL157351  15.902  20.867  17.811  0.3148 -0.3621 -0.1394
 2958DPPE   GL257352  15.756  20.528  17.834  0.1066  0.2309  0.1377
 2958DPPE   C1A57353  15.724  20.838  17.441  0.2109 -0.5594  0.3707
 2958DPPE   C2A57354  15.362  20.809  17.194 -0.0867  0.0471  0.0025
 2958DPPE   C3A57355  15.106  20.867  16.918  0.1388  0.2661  0.3258
 2958DPPE   C4A57356  14.839  21.163  16.833  0.1840 -0.0325  0.1503
 2958DPPE   C1B57357  15.408  20.503  17.627  0.0301 -0.1967  0.1350
 2958DPPE   C2B57358  15.015  20.742  17.605 -0.2194  0.0817 -0.1722
 2958DPPE   C3B57359  14.889  21.115  17.378 -0.1691 -0.1893  0.3763
 2958DPPE   C4B57360  14.437  21.283  17.215  0.1445  0.0806 -0.0638
 2959DPPE   NH357361  16.930  27.993   8.525  0.0507  0.0623 -0.0302
 2959DPPE   PO457362  16.551  28.353   8.569  0.1196 -0.3223  0.0038
 2959DPPE   GL157363  16.103  28.195   8.640  0.1905  0.1191  0.0664
 2959DPPE   GL257364  15.965  28.479   8.450  0.1432  0.1484 -0.1261
 2959DPPE   C1A57365  15.826  28.081   8.956  0.0012 -0.0660  0.0574
 2959DPPE   C2A57366  15.710  27.664   9.001  0.0117 -0.0865 -0.2713
 2959DPPE   C3A57367  15.633  27.261   9.148  0.0509 -0.0695  0.0831
 2959DPPE   C4A57368  15.631  26.884   9.425 -0.1563 -0.2086  0.0191
 2959DPPE   C1B57369  15.633  28.135   8.448 -0.2855  0.3418  0.0362
 2959DPPE   C2B57370  15.218  28.069   8.228 -0.1557 -0.1071  0.3246
 2959DPPE   C3B57371  15.178  27.584   8.274  0.0575 -0.0358  0.1781
 2959DPPE   C4B57372  15.384  27.128   8.248 -0.1893 -0.0014  0.0975
 2960DPPE   NH357373  14.930  21.281  12.425  0.3875  0.2531  0.1247
 2960DPPE   PO457374  14.976  21.606  12.655 -0.0556  0.0779 -0.1252
 2960DPPE   GL157375  15.235  21.736  12.418  0.0551 -0.2422  0.0427
 2960DPPE   GL257376  15.391  21.983  12.583  0.1436  0.2452 -0.0340
 2960DPPE   C1A57377  15.647  21.589  12.206 -0.1933 -0.0473 -0.0191
 2960DPPE   C2A57378  16.063  21.642  12.322 -0.0957  0.0777 -0.0002
 2960DPPE   C3A57379  16.254  21.939  12.615 -0.1378  0.3457  0.0186
 2960DPPE   C4A57380  16.322  22.247  12.850 -0.0109 -0.0835 -0.3371
 2960DPPE   C1B57381  15.697  21.677  12.715  0.0431  0.2887 -0.0147
 2960DPPE   C2B57382  15.951  21.306  12.745  0.1154  0.1482  0.3347
 2960DPPE   C3B57383  16.146  20.930  12.604 -0.1224  0.0969 -0.0386
 2960DPPE   C4B57384  16.562  20.701  12.496 -0.0212 -0.2388  0.1624
 2961DPPE   NH357385   3.760  32.649   6.852 -0.0363  0.0039  0.1040
 2961DPPE   PO457386   4.038  32.436   6.571  0.1238  0.1727 -0.3036
 2961DPPE   GL157387   4.138  32.026   6.753 -0.1756 -0.0902  0.0379
 2961DPPE   GL257388   4.312  32.014   7.019 -0.1360  0.0153 -0.3976
 2961DPPE   C1A57389   4.077  31.683   6.666  0.1838  0.2729 -0.1179
 2961DPPE   C2A57390   4.051  31.380   6.944 -0.3291  0.0659  0.1540
 2961DPPE   C3A57391   4.198  31.027   7.095 -0.1697  0.1086  0.0669
 2961DPPE   C4A57392   4.478  30.710   7.295  0.1345 -0.0291 -0.0980
 2961DPPE   C1B57393   3.979  31.870   7.229  0.1542 -0.2759  0.2696
 2961DPPE   C2B57394   4.086  31.871   7.694 -0.0187  0.4255 -0.2157
 2961DPPE   C3B57395   4.217  31.511   8.003  0.2226 -0.2215 -0.1155
 2961DPPE   C4B57396   4.029  31.299   8.456 -0.2991 -0.2019 -0.0586
 2962DPPE   NH357397  38.095  18.295  21.184  0.0843 -0.1880  0.4220
 2962DPPE   PO457398  38.024  17.901  21.391 -0.3035  0.1565  0.2360
 2962DPPE   GL157399  37.865  17.861  21.042  0.2746 -0.2147 -0.1583
 2962DPPE   GL257400  37.525  17.905  21.099  0.0314  0.3543 -0.5081
 2962DPPE   C1A57401  37.706  17.913  20.606  0.2176 -0.0359 -0.0894
 2962DPPE   C2A57402  37.673  17.907  20.252 -0.2244  0.0365  0.0962
 2962DPPE   C3A57403  37.513  17.790  19.795 -0.2221  0.3524  0.0603
 2962DPPE   C4A57404  37.457  17.566  19.478  0.2925 -0.0862  0.3213
 2962DPPE   C1B57405  37.402  17.480  20.772  0.0552 -0.0864  0.1018
 2962DPPE   C2B57406  37.737  17.244  20.474  0.1348  0.1946 -0.0539
 2962DPPE   C3B57407  37.721  16.889  20.175 -0.1549 -0.0406 -0.4054
 2962DPPE   C4B57408  37.675  16.750  19.833  0.0795  0.3208 -0.2063
 2963DPPE   NH357409   7.775  25.734  22.369  0.0199 -0.1200 -0.1531
 2963DPPE   PO457410   8.058  25.421  22.212  0.0648 -0.2820  0.1842
 2963DPPE   GL157411   7.904  25.538  21.932  0.3353 -0.1452  0.1421
 2963DPPE   GL257412   8.102  25.717  21.654  0.0989 -0.0737  0.0160
 2963DPPE   C1A57413   7.599  25.301  21.547 -0.0656 -0.0924 -0.0614
 2963DPPE   C2A57414   7.434  25.204  21.205  0.0746 -0.0139  0.3268
 2963DPPE   C3A57415   7.131  25.236  20.768 -0.0637  0.1199 -0.1163
 2963DPPE   C4A57416   7.137  25.235  20.403  0.0460 -0.0407  0.1332
 2963DPPE   C1B57417   7.901  25.592  21.300 -0.1018 -0.0366 -0.0254
 2963DPPE   C2B57418   7.920  25.279  20.932 -0.2586 -0.0732 -0.0485
 2963DPPE   C3B57419   7.609  25.032  20.764  0.0427 -0.1800 -0.0390
 2963DPPE   C4B57420   7.415  24.886  20.269  0.0653  0.0551  0.1302
 2964DPPE   NH357421  31.445  16.686   2.548 -0.2647 -0.1464  0.1334
 2964DPPE   PO457422  31.767  16.467   2.840  0.1425  0.1550  0.1220
 2964DPPE   GL157423  32.120  16.468   3.106  0.0937 -0.0351 -0.0188
 2964DPPE   GL257424  32.293  16.516   2.902  0.1100 -0.3933  0.0641
 2964DPPE   C1A57425  32.141  16.329   3.477 -0.0469  0.1018 -0.2490
 2964DPPE   C2A57426  32.500  16.471   3.827  0.0085 -0.1080 -0.0800
 2964DPPE   C3A57427  32.813  16.822   3.798 -0.1821 -0.0817  0.0019
 2964DPPE   C4A57428  33.282  16.839   4.048  0.1054  0.2973  0.0654
 2964DPPE   C1B57429  32.432  16.992   2.906  0.3211 -0.0926 -0.1390
 2964DPPE   C2B57430  32.864  17.197   2.935 -0.2234 -0.2760 -0.1401
 2964DPPE   C3B57431  32.909  17.504   3.245  0.0632  0.0735  0.0930
 2964DPPE   C4B57432  33.270  17.609   3.417 -0.0623  0.2062 -0.2208
 2965DPPE   NH357433  34.233   9.241  13.924 -0.1362 -0.0513  0.1336
 2965DPPE   PO457434  34.093   9.615  14.198 -0.0011 -0.0749  0.1125
 2965DPPE   GL157435  34.296  10.050  14.068  0.3095  0.3595 -0.3123
 2965DPPE   GL257436  34.500  10.145  14.443  0.0782 -0.0662 -0.1615
 2965DPPE   C1A57437  34.584  10.212  13.809  0.2532  0.0888 -0.0802
 2965DPPE   C2A57438  34.978  10.382  13.707  0.2822  0.2996  0.1405
 2965DPPE   C3A57439  35.363  10.308  13.647  0.1472  0.1595  0.0178
 2965DPPE   C4A57440  35.814   9.995  13.664  0.1356 -0.1357  0.2471
 2965DPPE   C1B57441  34.765  10.429  14.261 -0.1837 -0.0513 -0.2683
 2965DPPE   C2B57442  35.136  10.627  14.554 -0.1078  0.1477  0.0343
 2965DPPE   C3B57443  35.380  11.016  14.517  0.2182  0.1505 -0.1034
 2965DPPE   C4B57444  35.798  11.146  14.640  0.0027  0.2232  0.4049
 2966DPPE   NH357445  38.284  19.861  11.175 -0.0660 -0.3616  0.1476
 2966DPPE   PO457446  38.217  19.646  11.545  0.1845 -0.0119 -0.1177
 2966DPPE   GL157447  37.937  19.349  11.621  0.4509 -0.1156 -0.2062
 2966DPPE   GL257448  37.910  19.135  11.428  0.0106  0.3393  0.0712
 2966DPPE   C1A57449  37.590  19.354  11.879  0.4512 -0.0587  0.3616
 2966DPPE   C2A57450  37.150  19.293  12.035  0.4341  0.0466 -0.2280
 2966DPPE   C3A57451  36.899  19.025  12.041  0.0620  0.0851  0.2064
 2966DPPE   C4A57452  36.472  19.128  11.816 -0.0827  0.1629 -0.2628
 2966DPPE   C1B57453  37.486  19.045  11.515 -0.1475 -0.2299 -0.1313
 2966DPPE   C2B57454  37.191  18.862  11.431  0.2341 -0.1749 -0.3138
 2966DPPE   C3B57455  36.792  18.810  11.385  0.2458 -0.0476 -0.0218
 2966DPPE   C4B57456  36.325  18.786  11.405 -0.0427 -0.4186  0.2294
 2967DPPE   NH357457   8.748  29.150   9.661  0.1152 -0.1676 -0.0052
 2967DPPE   PO457458   8.273  29.311   9.679  0.0922  0.2222  0.2391
 2967DPPE   GL157459   8.189  29.692   9.741  0.0281 -0.3656  0.0095
 2967DPPE   GL257460   8.492  29.723   9.596 -0.0185  0.0508 -0.0679
 2967DPPE   C1A57461   8.134  30.153   9.578  0.1930  0.1904 -0.2037
 2967DPPE   C2A57462   8.111  30.492   9.666  0.1813  0.0343  0.1824
 2967DPPE   C3A57463   8.361  30.731   9.854  0.0103 -0.5105 -0.0563
 2967DPPE   C4A57464   8.326  31.216   9.887  0.1443 -0.0497 -0.1325
 2967DPPE   C1B57465   8.878  29.923   9.229 -0.1122 -0.0832  0.0184
 2967DPPE   C2B57466   9.149  30.306   9.154  0.2908 -0.5734  0.0388
 2967DPPE   C3B57467   9.191  30.601   8.929 -0.1651  0.2601 -0.4673
 2967DPPE   C4B57468   9.091  30.993   8.773  0.1522 -0.0790 -0.2836
 2968DPPE   NH357469   5.682  20.523  22.433 -0.1952  0.1815 -0.3264
 2968DPPE   PO457470   6.008  20.343  22.737  0.3907  0.0452  0.1746
 2968DPPE   GL157471   6.318  20.524  22.495  0.1154  0.1638  0.0360
 2968DPPE   GL257472   6.098  20.796  22.365 -0.0349 -0.0946  0.0240
 2968DPPE   C1A57473   6.524  20.773  22.090  0.1859 -0.1458  0.0864
 2968DPPE   C2A57474   6.685  21.125  22.029 -0.1131 -0.0330  0.1210
 2968DPPE   C3A57475   6.943  21.248  21.622 -0.0645 -0.4124 -0.2222
 2968DPPE   C4A57476   7.283  21.176  21.263 -0.1188 -0.3083  0.1848
 2968DPPE   C1B57477   6.090  20.640  21.933  0.1190 -0.1213  0.1096
 2968DPPE   C2B57478   6.366  20.496  21.658 -0.1093  0.4507  0.1962
 2968DPPE   C3B57479   6.359  20.395  21.301 -0.0216  0.0686 -0.3490
 2968DPPE   C4B57480   6.001  20.410  21.066 -0.2868 -0.0099 -0.1982
 2969DPPE   NH357481  36.677  29.918  11.598  0.0051 -0.1453 -0.3060
 2969DPPE   PO457482  36.699  29.590  11.790 -0.4346  0.1140 -0.1611
 2969DPPE   GL157483  36.879  29.307  11.677  0.1275  0.1888  0.0817
 2969DPPE   GL257484  36.952  29.184  12.037 -0.0720 -0.2064 -0.0635
 2969DPPE   C1A57485  36.913  28.880  11.610 -0.2413  0.1651 -0.1026
 2969DPPE   C2A57486  37.014  28.663  11.859  0.0415  0.1034  0.0415
 2969DPPE   C3A57487  37.284  28.633  12.149 -0.1010 -0.1835 -0.0632
 2969DPPE   C4A57488  37.483  28.267  12.277 -0.0916 -0.5483  0.0188
 2969DPPE   C1B57489  37.302  29.135  12.167 -0.2802  0.2267  0.1639
 2969DPPE   C2B57490  37.753  28.961  12.110 -0.0119 -0.1766 -0.0263
 2969DPPE   C3B57491  37.968  28.703  12.193 -0.0512  0.0597  0.2935
 2969DPPE   C4B57492  38.226  28.399  11.921  0.0579  0.1484 -0.0700
 2970DPPE   NH357493   3.265  16.685  25.203 -0.1261  0.4278  0.0270
 2970DPPE   PO457494   3.463  17.088  25.239 -0.1029 -0.2515 -0.2066
 2970DPPE   GL157495   3.701  17.137  25.635 -0.0932  0.2504  0.1526
 2970DPPE   GL257496   3.397  17.338  25.897 -0.0119 -0.0629 -0.2443
 2970DPPE   C1A57497   4.030  17.377  26.053 -0.3345  0.1677 -0.1738
 2970DPPE   C2A57498   4.080  17.596  26.497 -0.1796 -0.1511 -0.2761
 2970DPPE   C3A57499   3.787  17.784  26.677  0.2472 -0.0668 -0.0064
 2970DPPE   C4A57500   3.588  18.115  26.474  0.0971  0.0929 -0.1052
 2970DPPE   C1B57501   3.029  17.588  26.054  0.4299  0.0950 -0.3506
 2970DPPE   C2B57502   2.678  17.816  26.212 -0.1511  0.0191 -0.0948
 2970DPPE   C3B57503   2.580  18.171  26.537  0.2399 -0.0569 -0.3907
 2970DPPE   C4B57504   2.538  18.645  26.521 -0.0694  0.1706  0.1167
 2971DPPE   NH357505   1.907  17.808  13.291  0.1192  0.0146 -0.0207
 2971DPPE   PO457506   1.617  17.543  13.043 -0.2424 -0.0690 -0.2655
 2971DPPE   GL157507   1.270  17.196  13.026 -0.2076  0.1862  0.1693
 2971DPPE   GL257508   1.043  17.348  12.805 -0.2680 -0.2502  0.0236
 2971DPPE   C1A57509   1.026  16.871  12.994 -0.1432 -0.1973  0.0989
 2971DPPE   C2A57510   0.825  16.548  12.863  0.0195 -0.1512 -0.3843
 2971DPPE   C3A57511   0.715  16.128  13.038 -0.1399 -0.3173  0.2223
 2971DPPE   C4A57512   0.769  15.655  12.845  0.1683  0.3978 -0.0888
 2971DPPE   C1B57513   0.707  17.007  12.675 -0.0980 -0.0520 -0.0211
 2971DPPE   C2B57514   0.521  16.632  12.441 -0.2913 -0.1236 -0.1302
 2971DPPE   C3B57515   0.176  16.478  12.187 -0.0198  0.1538 -0.1313
 2971DPPE   C4B57516  -0.222  16.440  11.984  0.0434  0.4706 -0.1383
 2972DPPE   NH357517   3.466  30.583   3.951  0.0130 -0.1341  0.3095
 2972DPPE   PO457518   3.644  30.720   4.319 -0.2372 -0.1533 -0.1147
 2972DPPE   GL157519   3.756  30.406   4.554  0.6142 -0.2160  0.1695
 2972DPPE   GL257520   3.467  30.268   4.493  0.0312  0.0494 -0.1499
 2972DPPE   C1A57521   4.022  30.002   4.496 -0.3643 -0.0375 -0.1688
 2972DPPE   C2A57522   4.155  29.652   4.601 -0.2139 -0.0181 -0.2275
 2972DPPE   C3A57523   4.281  29.149   4.613 -0.0215 -0.3314  0.0261
 2972DPPE   C4A57524   4.678  28.998   4.329 -0.0430 -0.1032 -0.1938
 2972DPPE   C1B57525   3.582  29.899   4.512 -0.1498 -0.2942  0.3092
 2972DPPE   C2B57526   3.698  29.694   4.763  0.0590 -0.1583  0.0453
 2972DPPE   C3B57527   3.909  29.386   5.121 -0.3363  0.0550 -0.3853
 2972DPPE   C4B57528   4.013  28.946   5.054 -0.1059  0.0226 -0.0138
 2973DPPE   NH357529  35.240  24.623   2.725  0.0904 -0.3982 -0.0471
 2973DPPE   PO457530  35.165  24.252   2.593  0.1968  0.2212 -0.1519
 2973DPPE   GL157531  35.281  24.110   2.963 -0.1527 -0.1744  0.2708
 2973DPPE   GL257532  35.504  24.300   2.955  0.1778  0.0286  0.0363
 2973DPPE   C1A57533  35.351  23.717   3.091  0.2287 -0.2690 -0.4519
 2973DPPE   C2A57534  35.734  23.464   3.051  0.2108 -0.0859  0.0552
 2973DPPE   C3A57535  35.798  23.024   2.799 -0.2794 -0.2290 -0.2949
 2973DPPE   C4A57536  36.206  22.698   2.739 -0.2932 -0.0587  0.1680
 2973DPPE   C1B57537  35.634  24.099   3.262 -0.2326  0.0662  0.2276
 2973DPPE   C2B57538  35.808  23.999   3.615  0.0458 -0.1842  0.1228
 2973DPPE   C3B57539  35.991  24.236   3.980 -0.0406 -0.0333 -0.2635
 2973DPPE   C4B57540  36.134  24.402   4.275 -0.1751 -0.1984  0.0663
 2974DPPE   NH357541   1.768  18.774  17.555 -0.1419 -0.3323 -0.0765
 2974DPPE   PO457542   2.104  18.429  17.380  0.2100 -0.1397 -0.0112
 2974DPPE   GL157543   2.088  18.027  17.510 -0.0544  0.1329 -0.0513
 2974DPPE   GL257544   2.104  17.978  17.247 -0.4848 -0.0378  0.0384
 2974DPPE   C1A57545   1.962  17.775  17.819 -0.0499 -0.1961  0.1818
 2974DPPE   C2A57546   1.568  17.976  18.107  0.2750  0.1645  0.0646
 2974DPPE   C3A57547   1.059  17.999  18.255 -0.1201 -0.2480 -0.2513
 2974DPPE   C4A57548   0.612  17.939  18.080  0.0827  0.1890  0.0268
 2974DPPE   C1B57549   1.837  17.555  17.409  0.4410 -0.0367  0.1715
 2974DPPE   C2B57550   1.872  17.299  17.729  0.0102  0.2074 -0.2141
 2974DPPE   C3B57551   1.939  16.936  17.849 -0.0481 -0.1006  0.0477
 2974DPPE   C4B57552   1.792  16.498  17.767  0.1179 -0.2081  0.2241
 2975DPPE   NH357553  36.861  28.791   6.064  0.3503  0.1455  0.3151
 2975DPPE   PO457554  36.430  28.588   6.231  0.2904  0.0575  0.0435
 2975DPPE   GL157555  36.670  28.126   6.256  0.1457 -0.1864 -0.0320
 2975DPPE   GL257556  36.455  27.995   6.436 -0.2719 -0.3259 -0.1585
 2975DPPE   C1A57557  36.996  27.974   6.460 -0.1041  0.0870  0.1383
 2975DPPE   C2A57558  37.374  27.754   6.635  0.0945  0.4308  0.1124
 2975DPPE   C3A57559  37.585  27.758   7.061 -0.2600 -0.0047  0.1321
 2975DPPE   C4A57560  37.555  28.078   7.476 -0.0456  0.0956  0.1245
 2975DPPE   C1B57561  36.510  27.801   6.850 -0.0836 -0.1912 -0.1921
 2975DPPE   C2B57562  36.857  27.647   6.916  0.4237  0.2054  0.0329
 2975DPPE   C3B57563  37.039  27.348   6.834 -0.0677 -0.1527 -0.1071
 2975DPPE   C4B57564  37.163  26.840   6.670  0.0147  0.0705 -0.0783
 2976DPPE   NH357565   0.218  31.332  10.321 -0.0390  0.0208  0.0382
 2976DPPE   PO457566   0.439  31.651  10.586 -0.2444  0.1705  0.1803
 2976DPPE   GL157567   0.584  31.200  10.741 -0.1216 -0.2802 -0.0727
 2976DPPE   GL257568   0.593  31.052  11.097 -0.0816  0.3901  0.1336
 2976DPPE   C1A57569   0.706  30.822  10.636  0.0122  0.1928  0.0561
 2976DPPE   C2A57570   1.085  30.623  10.768 -0.1788 -0.2884 -0.0023
 2976DPPE   C3A57571   1.122  30.355  11.135 -0.3742  0.1106 -0.0635
 2976DPPE   C4A57572   1.319  30.052  11.391 -0.0366  0.2741  0.1953
 2976DPPE   C1B57573   0.765  30.689  11.335  0.1960  0.1904  0.0131
 2976DPPE   C2B57574   0.996  30.435  11.622  0.3521 -0.0873  0.1039
 2976DPPE   C3B57575   1.030  30.108  11.857  0.0985 -0.1497 -0.1984
 2976DPPE   C4B57576   0.896  29.844  12.019  0.1111 -0.3125  0.0631
 2977DPPE   NH357577  15.971  18.016   1.769  0.0252  0.3938 -0.0756
 2977DPPE   PO457578  15.577  17.643   1.709  0.1400 -0.2919  0.0285
 2977DPPE   GL157579  15.227  17.760   1.844 -0.2842  0.4504 -0.1439
 2977DPPE   GL257580  15.193  17.591   2.165  0.0636  0.0472 -0.2676
 2977DPPE   C1A57581  15.018  18.084   2.100 -0.1737  0.2207  0.1538
 2977DPPE   C2A57582  14.675  18.206   2.300  0.0975  0.0854 -0.3274
 2977DPPE   C3A57583  14.319  18.571   2.477 -0.4773 -0.1650 -0.0106
 2977DPPE   C4A57584  14.280  19.122   2.373 -0.6442  0.0312 -0.1824
 2977DPPE   C1B57585  14.707  17.674   2.183 -0.1066  0.0209 -0.1160
 2977DPPE   C2B57586  14.347  17.429   2.206  0.0228  0.1552  0.2951
 2977DPPE   C3B57587  14.058  17.384   2.512 -0.0579 -0.2139  0.0113
 2977DPPE   C4B57588  13.687  17.473   2.847  0.1798 -0.0975 -0.0127
 2978DPPE   NH357589  36.939   7.912   6.242 -0.2280  0.0265  0.1235
 2978DPPE   PO457590  36.945   7.798   6.637  0.3356  0.1765 -0.1561
 2978DPPE   GL157591  37.169   8.107   6.749  0.1091 -0.2574  0.0362
 2978DPPE   GL257592  37.034   8.206   7.055 -0.3352  0.1718  0.2177
 2978DPPE   C1A57593  37.525   8.212   6.974 -0.2716  0.0345 -0.4359
 2978DPPE   C2A57594  37.729   8.645   7.076 -0.0118 -0.0780  0.0294
 2978DPPE   C3A57595  37.880   9.023   7.413 -0.1496  0.0164 -0.1709
 2978DPPE   C4A57596  38.085   9.279   7.531  0.0081 -0.0424  0.0026
 2978DPPE   C1B57597  37.254   8.592   6.836  0.1765 -0.0209 -0.2785
 2978DPPE   C2B57598  37.225   9.027   6.706 -0.2637 -0.0666  0.0527
 2978DPPE   C3B57599  37.385   9.444   6.616  0.0720 -0.1518  0.0161
 2978DPPE   C4B57600  37.673   9.804   6.679 -0.1424  0.4223 -0.2382
 2979DPPE   NH357601   7.731  32.924  12.572 -0.2247 -0.0087 -0.1540
 2979DPPE   PO457602   8.150  32.880  12.395  0.1426 -0.0951  0.1764
 2979DPPE   GL157603   8.023  32.532  12.487 -0.1681  0.1008  0.2937
 2979DPPE   GL257604   7.887  32.535  12.819 -0.0800 -0.0274  0.3625
 2979DPPE   C1A57605   7.834  32.258  12.181 -0.2188  0.0462  0.0752
 2979DPPE   C2A57606   7.629  32.285  11.837 -0.2676  0.0848  0.1320
 2979DPPE   C3A57607   7.795  32.171  11.308  0.1868  0.0747  0.2255
 2979DPPE   C4A57608   7.651  32.012  10.868 -0.1693 -0.1901 -0.2395
 2979DPPE   C1B57609   8.114  32.205  12.831 -0.1543 -0.0614 -0.0536
 2979DPPE   C2B57610   8.375  31.817  12.830 -0.3501 -0.0358 -0.1818
 2979DPPE   C3B57611   8.481  31.393  12.975  0.2818  0.1422  0.2625
 2979DPPE   C4B57612   8.674  30.931  12.941  0.0782  0.0006 -0.0962
 2980DPPE   NH357613  13.716  30.552  13.295 -0.0096  0.2423 -0.1047
 2980DPPE   PO457614  13.814  30.691  12.832 -0.1082  0.0794  0.0983
 2980DPPE   GL157615  13.547  30.446  12.825 -0.1733 -0.2774 -0.2192
 2980DPPE   GL257616  13.500  30.438  12.469  0.1166 -0.0013 -0.1835
 2980DPPE   C1A57617  13.106  30.489  12.879  0.1560  0.0949  0.0060
 2980DPPE   C2A57618  12.849  30.221  13.258 -0.2034 -0.1511 -0.1757
 2980DPPE   C3A57619  12.671  29.846  13.171 -0.1046  0.1736  0.0203
 2980DPPE   C4A57620  12.846  29.519  13.074  0.2089  0.1393  0.3625
 2980DPPE   C1B57621  13.411  29.936  12.348 -0.1734  0.0387 -0.0017
 2980DPPE   C2B57622  13.347  29.500  12.215  0.0846 -0.2056 -0.3728
 2980DPPE   C3B57623  13.128  29.145  12.058  0.0389 -0.2245  0.2364
 2980DPPE   C4B57624  13.338  28.829  11.810  0.2641  0.1668 -0.2598
 2981DPPE   NH357625   5.059   7.826  14.155  0.0607 -0.0886 -0.1092
 2981DPPE   PO457626   4.710   8.093  13.883 -0.1032 -0.4077 -0.2415
 2981DPPE   GL157627   4.632   8.426  13.668 -0.1306 -0.0514  0.0437
 2981DPPE   GL257628   4.380   8.409  13.436 -0.2698  0.0961  0.1503
 2981DPPE   C1A57629   4.407   8.839  13.702 -0.0365  0.2132 -0.0560
 2981DPPE   C2A57630   3.987   9.014  13.745 -0.1439 -0.1489  0.1270
 2981DPPE   C3A57631   3.828   9.155  14.139 -0.1438  0.1278 -0.0186
 2981DPPE   C4A57632   4.070   8.945  14.338 -0.0868  0.0809 -0.0812
 2981DPPE   C1B57633   4.089   8.314  13.105 -0.4067 -0.1288 -0.2720
 2981DPPE   C2B57634   3.917   8.540  12.697 -0.0064 -0.1575 -0.1750
 2981DPPE   C3B57635   3.529   8.777  12.669 -0.2722  0.1281  0.1154
 2981DPPE   C4B57636   3.131   8.773  12.634 -0.0411 -0.0652 -0.2147
 2982DPPE   NH357637   5.388   8.359   9.686 -0.2558  0.4703 -0.1144
 2982DPPE   PO457638   5.219   8.273   9.240  0.1682 -0.4062 -0.0035
 2982DPPE   GL157639   5.025   8.717   8.999 -0.1659  0.3207 -0.1876
 2982DPPE   GL257640   5.166   8.972   9.005 -0.0366  0.1501  0.0624
 2982DPPE   C1A57641   4.771   9.054   8.763 -0.1573  0.3116  0.1230
 2982DPPE   C2A57642   4.645   9.419   8.437  0.2353 -0.1456  0.1928
 2982DPPE   C3A57643   4.572   9.813   8.399 -0.4060  0.3002  0.0223
 2982DPPE   C4A57644   4.723  10.214   8.383  0.1521 -0.1313  0.3212
 2982DPPE   C1B57645   5.101   9.377   9.127 -0.1354  0.1271 -0.1187
 2982DPPE   C2B57646   4.951   9.686   9.493  0.0516  0.0729 -0.0246
 2982DPPE   C3B57647   4.995  10.238   9.625  0.2237 -0.0653  0.0108
 2982DPPE   C4B57648   5.347  10.444   9.692 -0.2777  0.3102 -0.0841
 2983DPPE   NH357649   9.719  25.534  21.663  0.0264 -0.2381  0.1059
 2983DPPE   PO457650   9.317  25.527  21.676  0.4100  0.2104 -0.0588
 2983DPPE   GL157651   9.422  25.219  21.330  0.2107 -0.3480 -0.0508
 2983DPPE   GL257652   9.780  25.187  21.140  0.2547 -0.2036  0.1069
 2983DPPE   C1A57653   9.288  25.297  20.916  0.0199  0.1960 -0.1341
 2983DPPE   C2A57654   9.269  25.061  20.557 -0.3050  0.1598 -0.3344
 2983DPPE   C3A57655   9.025  24.908  20.416 -0.1678 -0.0733 -0.0172
 2983DPPE   C4A57656   8.876  24.822  20.070  0.0555  0.1167 -0.0434
 2983DPPE   C1B57657   9.782  25.114  20.740 -0.0210  0.0004  0.1261
 2983DPPE   C2B57658   9.756  24.671  20.609  0.1709  0.0243  0.2925
 2983DPPE   C3B57659   9.864  24.504  20.219 -0.2843 -0.0850 -0.4003
 2983DPPE   C4B57660   9.628  24.378  19.778 -0.0230  0.1070 -0.3558
 2984DPPE   NH357661  34.531  25.450   3.732 -0.1744 -0.2514  0.1253
 2984DPPE   PO457662  34.664  25.233   3.431 -0.0804  0.0884 -0.1228
 2984DPPE   GL157663  34.817  24.929   3.602  0.0937 -0.3054 -0.0739
 2984DPPE   GL257664  34.705  24.604   3.523 -0.2398  0.0621  0.0709
 2984DPPE   C1A57665  34.740  24.739   4.051 -0.0774  0.4131  0.3526
 2984DPPE   C2A57666  34.550  24.414   4.291 -0.2946 -0.0721  0.2827
 2984DPPE   C3A57667  34.250  24.096   4.377  0.0146  0.0830 -0.1168
 2984DPPE   C4A57668  34.075  23.972   4.778 -0.0349 -0.1368  0.0316
 2984DPPE   C1B57669  34.422  24.324   3.808 -0.2097  0.0893 -0.0915
 2984DPPE   C2B57670  33.981  24.293   3.968  0.0147 -0.1513 -0.1365
 2984DPPE   C3B57671  33.845  23.930   4.029 -0.1897 -0.0182 -0.1845
 2984DPPE   C4B57672  33.871  23.607   4.454  0.1411 -0.2318  0.1097
 2985DPPE   NH357673  17.240  17.571   2.870 -0.1267  0.2889 -0.2443
 2985DPPE   PO457674  16.931  17.612   2.620  0.1368 -0.1524 -0.2496
 2985DPPE   GL157675  16.488  17.715   2.806 -0.0094 -0.3380  0.2542
 2985DPPE   GL257676  16.368  17.514   3.077  0.1350  0.0695 -0.0285
 2985DPPE   C1A57677  16.307  18.015   3.079 -0.2659 -0.2564 -0.2244
 2985DPPE   C2A57678  16.093  18.190   3.492 -0.1099  0.3189 -0.1288
 2985DPPE   C3A57679  15.959  18.588   3.702  0.2090 -0.1654  0.0197
 2985DPPE   C4A57680  15.710  18.915   3.967 -0.1698 -0.1417  0.0152
 2985DPPE   C1B57681  16.202  17.617   3.428 -0.2664 -0.2310  0.2545
 2985DPPE   C2B57682  15.921  17.566   3.789  0.0032 -0.0588 -0.0229
 2985DPPE   C3B57683  15.775  17.543   4.228  0.0368  0.1286  0.2624
 2985DPPE   C4B57684  15.756  17.656   4.643 -0.0381 -0.2512 -0.1212
 2986DPPE   NH357685   6.538  32.448   6.607  0.1992 -0.1322  0.0190
 2986DPPE   PO457686   6.682  32.776   6.832 -0.0485  0.2425  0.3777
 2986DPPE   GL157687   7.108  32.499   6.880  0.1223  0.1321 -0.0255
 2986DPPE   GL257688   6.940  32.238   6.818 -0.2207  0.1256 -0.1557
 2986DPPE   C1A57689   7.313  32.157   7.148 -0.3609  0.1525  0.0053
 2986DPPE   C2A57690   7.642  31.788   7.251  0.0936 -0.0879 -0.1344
 2986DPPE   C3A57691   7.740  31.349   7.243  0.0195  0.2206  0.2851
 2986DPPE   C4A57692   7.945  30.973   7.108 -0.2197  0.1941 -0.1838
 2986DPPE   C1B57693   7.004  31.923   6.774  0.3228  0.0840 -0.1078
 2986DPPE   C2B57694   6.932  31.441   6.931 -0.1148  0.0269  0.0399
 2986DPPE   C3B57695   6.835  31.030   6.765  0.1431  0.1494  0.0203
 2986DPPE   C4B57696   6.928  30.843   7.004  0.2785 -0.0936 -0.0324
 2987DPPE   NH357697   5.140  16.408  25.428  0.0324  0.2474  0.1133
 2987DPPE   PO457698   5.096  16.077  25.771  0.2179 -0.2974 -0.0987
 2987DPPE   GL157699   4.890  16.060  26.169  0.0853 -0.0870 -0.1461
 2987DPPE   GL257700   4.974  16.371  26.222 -0.1161  0.1178 -0.0908
 2987DPPE   C1A57701   4.734  15.916  26.537  0.3241  0.2508  0.2467
 2987DPPE   C2A57702   4.493  16.075  26.962 -0.1657  0.2198  0.0293
 2987DPPE   C3A57703   4.099  16.253  27.084 -0.0682  0.2978 -0.0569
 2987DPPE   C4A57704   3.996  16.527  27.518  0.2661 -0.0100 -0.2867
 2987DPPE   C1B57705   5.014  16.477  26.601 -0.0408  0.1516  0.2173
 2987DPPE   C2B57706   4.959  16.457  27.025 -0.2572  0.1964 -0.2028
 2987DPPE   C3B57707   4.897  16.196  27.394  0.4258  0.1657  0.2463
 2987DPPE   C4B57708   4.529  16.334  27.557 -0.0863 -0.0065 -0.2608
 2988DPPE   NH357709   1.283  24.533  26.009 -0.0833 -0.3152 -0.0072
 2988DPPE   PO457710   1.335  24.986  26.205 -0.0606 -0.1294 -0.1685
 2988DPPE   GL157711   1.554  24.696  26.519 -0.0094  0.2481 -0.0033
 2988DPPE   GL257712   1.355  24.491  26.552 -0.2110 -0.2031 -0.2513
 2988DPPE   C1A57713   1.939  24.741  26.921 -0.1010  0.2458 -0.2177
 2988DPPE   C2A57714   2.153  24.530  27.300 -0.1489 -0.1461  0.1888
 2988DPPE   C3A57715   2.361  24.165  27.395  0.0584  0.0079 -0.1303
 2988DPPE   C4A57716   2.478  23.758  27.617  0.0194 -0.1923 -0.3402
 2988DPPE   C1B57717   1.068  24.451  26.798  0.0595 -0.1027  0.2576
 2988DPPE   C2B57718   0.983  24.733  27.118 -0.1741 -0.2287  0.2472
 2988DPPE   C3B57719   1.225  24.824  27.455 -0.0151 -0.2559 -0.1902
 2988DPPE   C4B57720   1.582  24.614  27.648  0.0452 -0.1482  0.3103
 2989DPPE   NH357721  34.854  27.060   5.611  0.2184  0.1067 -0.0769
 2989DPPE   PO457722  34.716  26.689   5.371 -0.2608 -0.2334 -0.0005
 2989DPPE   GL157723  34.841  26.464   5.772  0.0141 -0.0350 -0.0567
 2989DPPE   GL257724  34.555  26.327   5.941  0.1708 -0.2736  0.0256
 2989DPPE   C1A57725  34.967  26.172   6.103 -0.0975  0.0837  0.1493
 2989DPPE   C2A57726  35.342  25.790   6.173  0.0498 -0.0734 -0.0194
 2989DPPE   C3A57727  35.716  25.595   6.386  0.1070 -0.4813  0.0634
 2989DPPE   C4A57728  36.042  25.304   6.513 -0.0784  0.2315  0.2068
 2989DPPE   C1B57729  34.445  25.956   5.891  0.1950  0.0036  0.3003
 2989DPPE   C2B57730  34.816  25.665   6.094 -0.1849 -0.2208 -0.0331
 2989DPPE   C3B57731  35.144  25.391   5.968  0.0943 -0.5204 -0.1624
 2989DPPE   C4B57732  35.032  24.985   5.860  0.0760 -0.5192  0.0148
 2990DPPE   NH357733   6.945  32.226  15.361 -0.2023  0.0462  0.0502
 2990DPPE   PO457734   6.553  32.075  15.645 -0.1679 -0.0658 -0.0423
 2990DPPE   GL157735   6.461  31.599  15.767  0.1928 -0.2305 -0.0175
 2990DPPE   GL257736   6.475  31.537  16.161 -0.2971 -0.2419  0.0165
 2990DPPE   C1A57737   6.352  31.205  15.743 -0.0802  0.1219 -0.1015
 2990DPPE   C2A57738   6.415  30.778  15.866  0.0162  0.1508 -0.0933
 2990DPPE   C3A57739   6.284  30.313  15.811 -0.1267  0.3649 -0.0738
 2990DPPE   C4A57740   6.215  30.094  15.406 -0.1662 -0.2008 -0.3325
 2990DPPE   C1B57741   6.738  31.226  16.295  0.4188  0.2012  0.1004
 2990DPPE   C2B57742   6.642  30.881  16.426  0.0881  0.0160  0.0811
 2990DPPE   C3B57743   6.517  30.482  16.338 -0.2215  0.1767  0.1649
 2990DPPE   C4B57744   6.339  30.157  16.709 -0.1790 -0.1542  0.0850
 2991DPPE   NH357745  33.168  11.958  16.891  0.1581  0.2170 -0.1484
 2991DPPE   PO457746  32.979  12.355  16.881 -0.2241 -0.1823  0.0048
 2991DPPE   GL157747  33.466  12.328  16.709  0.2382  0.1306  0.1399
 2991DPPE   GL257748  33.783  12.216  16.816  0.1130 -0.0964  0.0369
 2991DPPE   C1A57749  33.688  12.499  16.339  0.2093 -0.1098  0.1785
 2991DPPE   C2A57750  33.807  12.657  15.858  0.2123 -0.1858  0.0454
 2991DPPE   C3A57751  33.938  13.061  15.663 -0.0484 -0.3393  0.5000
 2991DPPE   C4A57752  34.031  13.346  15.358 -0.0118  0.1567 -0.4111
 2991DPPE   C1B57753  33.995  12.614  16.743  0.0873  0.1748 -0.2839
 2991DPPE   C2B57754  34.291  12.787  16.899  0.0227 -0.3000 -0.1984
 2991DPPE   C3B57755  34.611  13.067  17.018 -0.1922 -0.2804 -0.2084
 2991DPPE   C4B57756  34.438  13.484  17.127  0.3437  0.2146  0.2411
 2992DPPE   NH357757   3.577  29.264  19.076 -0.1049 -0.1619 -0.0712
 2992DPPE   PO457758   3.996  29.434  19.276 -0.0952  0.1735 -0.2599
 2992DPPE   GL157759   4.184  29.174  19.071  0.0328  0.0498  0.0393
 2992DPPE   GL257760   3.946  28.951  19.054 -0.1348 -0.1419  0.2156
 2992DPPE   C1A57761   4.450  28.826  19.118 -0.3455  0.3718 -0.0785
 2992DPPE   C2A57762   4.860  28.497  19.132 -0.0267 -0.1217  0.1385
 2992DPPE   C3A57763   5.315  28.276  19.130 -0.0271  0.0026 -0.2277
 2992DPPE   C4A57764   5.476  27.942  19.084  0.3473 -0.0947 -0.3607
 2992DPPE   C1B57765   4.156  28.520  18.872 -0.0671  0.1586  0.0055
 2992DPPE   C2B57766   4.548  28.407  18.641 -0.2551  0.1766 -0.3322
 2992DPPE   C3B57767   4.745  28.045  18.390 -0.2205 -0.2755 -0.3071
 2992DPPE   C4B57768   4.882  27.808  18.031 -0.0228 -0.0093  0.1798
 2993DPPE   NH357769  33.876  26.930   7.056  0.0921 -0.3413  0.3148
 2993DPPE   PO457770  34.207  26.909   6.707 -0.0826  0.1243 -0.0982
 2993DPPE   GL157771  34.353  26.445   6.740  0.1485  0.4122  0.2751
 2993DPPE   GL257772  34.285  26.195   6.932  0.1188  0.1197 -0.0710
 2993DPPE   C1A57773  34.435  26.024   6.440  0.1075  0.1908 -0.0087
 2993DPPE   C2A57774  34.498  25.576   6.533 -0.1899  0.1392 -0.2276
 2993DPPE   C3A57775  34.675  25.135   6.538  0.1615 -0.0320 -0.2411
 2993DPPE   C4A57776  34.927  24.870   6.337 -0.2189  0.0413  0.0798
 2993DPPE   C1B57777  34.614  25.883   6.944  0.3553  0.1731  0.0963
 2993DPPE   C2B57778  34.889  25.468   6.914  0.1143  0.3015 -0.2057
 2993DPPE   C3B57779  35.377  25.337   7.005 -0.0237  0.1096 -0.1719
 2993DPPE   C4B57780  35.814  25.406   6.999  0.1399  0.1575 -0.0635
 2994DPPE   NH357781   2.067  16.883   8.684 -0.3187  0.2226  0.0286
 2994DPPE   PO457782   2.280  16.512   8.706 -0.0633 -0.0949  0.2317
 2994DPPE   GL157783   1.913  16.425   8.563 -0.1699 -0.0645 -0.3134
 2994DPPE   GL257784   1.703  16.244   8.788  0.3900  0.1197  0.0258
 2994DPPE   C1A57785   1.592  16.448   8.274 -0.0022 -0.0693 -0.0999
 2994DPPE   C2A57786   1.241  16.127   8.335 -0.1789  0.2085 -0.2323
 2994DPPE   C3A57787   0.983  16.101   8.061 -0.2473 -0.0737  0.0050
 2994DPPE   C4A57788   0.861  15.733   7.761  0.0564  0.1871 -0.0701
 2994DPPE   C1B57789   1.275  15.963   8.935 -0.3220  0.0170  0.2847
 2994DPPE   C2B57790   0.995  15.672   8.945  0.1415 -0.0963 -0.1339
 2994DPPE   C3B57791   0.660  15.587   9.167 -0.0940  0.1179  0.0087
 2994DPPE   C4B57792   0.487  15.174   9.210  0.2894 -0.2462 -0.2491
 2995DPPE   NH357793   4.389  14.589  13.434  0.4535 -0.1382  0.2908
 2995DPPE   PO457794   4.449  14.355  13.026  0.2669 -0.1798 -0.0858
 2995DPPE   GL157795   4.544  14.034  12.786 -0.0360 -0.2261  0.1379
 2995DPPE   GL257796   4.277  14.027  12.559 -0.1104  0.0436 -0.2323
 2995DPPE   C1A57797   4.450  13.610  12.795 -0.0034  0.2606 -0.0988
 2995DPPE   C2A57798   4.229  13.304  12.826  0.2297 -0.2357  0.1903
 2995DPPE   C3A57799   4.096  13.069  12.538 -0.2442  0.2166  0.0793
 2995DPPE   C4A57800   3.905  12.970  12.146 -0.1183 -0.0321 -0.1243
 2995DPPE   C1B57801   4.018  13.652  12.374  0.3419  0.4877 -0.4925
 2995DPPE   C2B57802   3.802  13.478  12.609  0.0314  0.1095  0.2595
 2995DPPE   C3B57803   3.355  13.654  12.670 -0.0436  0.0541  0.0732
 2995DPPE   C4B57804   2.924  13.681  12.541  0.0675  0.1048 -0.2793
 2996DPPE   NH357805   2.718  16.302   8.823 -0.1167 -0.0228 -0.0271
 2996DPPE   PO457806   2.684  16.208   9.239 -0.3635 -0.0689  0.0135
 2996DPPE   GL157807   2.386  15.935   9.263 -0.1119 -0.3617  0.0135
 2996DPPE   GL257808   2.338  15.907   8.922  0.0789  0.1359 -0.1749
 2996DPPE   C1A57809   2.134  15.639   9.310 -0.1668 -0.0617 -0.1340
 2996DPPE   C2A57810   1.732  15.407   9.489 -0.5592  0.3439  0.2779
 2996DPPE   C3A57811   1.534  15.154   9.745 -0.0165  0.1661  0.3902
 2996DPPE   C4A57812   1.394  15.115  10.208  0.1200 -0.1168 -0.1054
 2996DPPE   C1B57813   2.247  15.801   8.573  0.2375 -0.0504  0.3446
 2996DPPE   C2B57814   1.872  15.533   8.320  0.1958 -0.3311  0.0769
 2996DPPE   C3B57815   1.679  15.132   8.454  0.1349 -0.3531 -0.1861
 2996DPPE   C4B57816   1.868  14.811   8.837 -0.1726  0.1816 -0.1245
 2997DPPE   NH357817   5.287  30.040   2.680 -0.1708  0.1285  0.0483
 2997DPPE   PO457818   4.958  30.352   2.669  0.1567 -0.0314  0.1723
 2997DPPE   GL157819   5.002  30.316   3.117 -0.0796 -0.3204  0.1777
 2997DPPE   GL257820   4.766  30.150   3.258 -0.0110 -0.1743  0.2139
 2997DPPE   C1A57821   5.268  30.212   3.524 -0.2736  0.0709  0.0651
 2997DPPE   C2A57822   5.242  30.012   3.846 -0.3033 -0.0291  0.1697
 2997DPPE   C3A57823   5.063  29.781   4.131  0.0923  0.3172 -0.3421
 2997DPPE   C4A57824   4.982  29.375   4.290 -0.1670 -0.0529 -0.1856
 2997DPPE   C1B57825   4.723  30.129   3.701 -0.0637 -0.1814 -0.2387
 2997DPPE   C2B57826   4.671  30.110   4.066  0.0318 -0.0892 -0.0139
 2997DPPE   C3B57827   4.516  29.855   4.269  0.1611  0.0099  0.1746
 2997DPPE   C4B57828   4.385  29.420   4.209 -0.0037  0.0798  0.1102
 2998DPPE   NH357829  30.838  18.750   3.336  0.1753  0.3166 -0.1204
 2998DPPE   PO457830  30.667  18.873   3.737 -0.0920  0.2904 -0.1107
 2998DPPE   GL157831  31.176  18.868   3.746 -0.0131  0.2495  0.0200
 2998DPPE   GL257832  31.332  19.082   3.601 -0.0971  0.1284 -0.1779
 2998DPPE   C1A57833  31.560  18.616   3.639  0.2850 -0.1990  0.2725
 2998DPPE   C2A57834  32.025  18.738   3.561  0.1014  0.1007 -0.0689
 2998DPPE   C3A57835  32.382  18.615   3.767  0.2598 -0.0488 -0.0885
 2998DPPE   C4A57836  32.936  18.636   3.680  0.0551  0.1139 -0.1571
 2998DPPE   C1B57837  31.655  18.978   3.277  0.0935  0.1055 -0.1466
 2998DPPE   C2B57838  31.903  19.093   2.928  0.0434  0.1906 -0.0094
 2998DPPE   C3B57839  32.076  18.909   2.606  0.2952 -0.1077  0.0670
 2998DPPE   C4B57840  32.427  18.945   2.325 -0.2229 -0.0762 -0.1965
 2999DPPE   NH357841   2.575  21.438  25.125  0.3711  0.0528  0.2685
 2999DPPE   PO457842   2.611  20.965  25.118  0.0921  0.0089 -0.3577
 2999DPPE   GL157843   2.850  21.066  25.440 -0.0112 -0.2847 -0.2133
 2999DPPE   GL257844   3.168  21.018  25.418  0.3550 -0.1912 -0.1357
 2999DPPE   C1A57845   2.970  21.373  25.831 -0.0549  0.2582 -0.1774
 2999DPPE   C2A57846   3.088  21.509  26.195 -0.2651  0.0642  0.1720
 2999DPPE   C3A57847   3.271  21.911  26.490 -0.0846  0.2568 -0.0999
 2999DPPE   C4A57848   3.413  22.065  26.830 -0.0651  0.1948 -0.1555
 2999DPPE   C1B57849   3.362  21.105  25.859  0.0186 -0.1996 -0.0424
 2999DPPE   C2B57850   3.487  21.227  26.259 -0.0346  0.1172  0.1889
 2999DPPE   C3B57851   3.549  21.419  26.616  0.1301 -0.2074 -0.3472
 2999DPPE   C4B57852   3.362  21.606  26.934 -0.1869  0.1808 -0.1198
 3000DPPE   NH357853   1.744  16.840  11.302 -0.1638 -0.2151  0.0068
 3000DPPE   PO457854   1.728  17.006  10.900 -0.3411 -0.1394 -0.0513
 3000DPPE   GL157855   1.475  16.607  10.900 -0.1699 -0.0839 -0.1086
 3000DPPE   GL257856   1.476  16.442  11.189 -0.1103  0.0625 -0.2013
 3000DPPE   C1A57857   1.080  16.498  10.821 -0.0448  0.1614 -0.0435
 3000DPPE   C2A57858   0.764  16.328  10.519 -0.1417  0.0250  0.1312
 3000DPPE   C3A57859   0.456  16.049  10.530  0.2039 -0.2311  0.3896
 3000DPPE   C4A57860   0.005  15.871  10.679 -0.1916  0.3855 -0.2993
 3000DPPE   C1B57861   1.068  16.157  11.249  0.0708  0.0937  0.0777
 3000DPPE   C2B57862   0.793  16.011  10.951 -0.1692 -0.4344 -0.0806
 3000DPPE   C3B57863   0.593  15.590  10.787 -0.0120 -0.0392  0.2761
 3000DPPE   C4B57864   0.270  15.381  10.718  0.0269  0.1465 -0.1054
 3001DPPE   NH357865  32.117  12.119  14.591 -0.2112 -0.3182 -0.4060
 3001DPPE   PO457866  31.850  12.414  14.307 -0.0937  0.2650  0.1434
 3001DPPE   GL157867  32.189  12.672  14.147  0.0781 -0.1232  0.0087
 3001DPPE   GL257868  32.169  13.060  13.943 -0.1949  0.0485 -0.0818
 3001DPPE   C1A57869  32.594  12.471  13.904  0.1470  0.1968  0.1194
 3001DPPE   C2A57870  33.011  12.380  14.076  0.0790  0.0185 -0.1409
 3001DPPE   C3A57871  33.288  12.084  13.960  0.3251 -0.1357 -0.1204
 3001DPPE   C4A57872  33.253  11.667  13.955  0.0862  0.0710  0.1391
 3001DPPE   C1B57873  32.561  13.306  14.039  0.0914  0.2458 -0.2626
 3001DPPE   C2B57874  32.693  13.657  13.855  0.2292 -0.0904  0.0962
 3001DPPE   C3B57875  32.784  14.006  13.558  0.1539 -0.0926  0.0885
 3001DPPE   C4B57876  32.459  14.222  13.358 -0.1587 -0.4140 -0.0448
 3002DPPE   NH357877  30.743  23.027   4.254  0.0962 -0.1399 -0.2414
 3002DPPE   PO457878  31.150  23.095   4.001  0.0516  0.0715  0.1429
 3002DPPE   GL157879  31.461  22.999   4.210  0.3201 -0.0678 -0.0956
 3002DPPE   GL257880  31.761  23.259   4.156  0.1392 -0.1556  0.1089
 3002DPPE   C1A57881  31.925  22.882   4.429  0.0400 -0.1193  0.1179
 3002DPPE   C2A57882  32.162  22.808   4.829 -0.0097  0.1235  0.2969
 3002DPPE   C3A57883  32.422  22.784   5.275  0.1632 -0.3865  0.0613
 3002DPPE   C4A57884  32.746  23.075   5.505 -0.1762  0.2763  0.1481
 3002DPPE   C1B57885  31.924  22.985   3.921  0.2325  0.0118 -0.0945
 3002DPPE   C2B57886  32.167  22.523   4.020  0.1136 -0.0350 -0.1190
 3002DPPE   C3B57887  32.262  22.172   4.218  0.2355  0.3357 -0.0391
 3002DPPE   C4B57888  32.048  21.789   4.441  0.0065 -0.1677 -0.0709
 3003DPPE   NH357889   0.501  21.159   6.154  0.1373 -0.2769  0.2347
 3003DPPE   PO457890   0.326  20.966   6.449  0.2581  0.0290 -0.2666
 3003DPPE   GL157891  -0.014  20.754   6.633 -0.0796 -0.1317  0.0097
 3003DPPE   GL257892  -0.101  20.716   6.959 -0.1084 -0.0788 -0.1441
 3003DPPE   C1A57893  -0.360  20.548   6.573  0.0941  0.0179  0.0035
 3003DPPE   C2A57894  -0.618  20.217   6.806 -0.1923  0.3054  0.2757
 3003DPPE   C3A57895  -0.878  19.834   6.594  0.1133  0.1860  0.0431
 3003DPPE   C4A57896  -0.917  19.439   6.420  0.3987 -0.1816 -0.1494
 3003DPPE   C1B57897  -0.266  20.390   7.191  0.0992 -0.0096 -0.0805
 3003DPPE   C2B57898  -0.628  20.215   7.275 -0.1097  0.1509  0.1448
 3003DPPE   C3B57899  -0.913  19.898   7.131 -0.2201  0.0208  0.2169
 3003DPPE   C4B57900  -0.979  19.520   6.984  0.1425  0.0376 -0.0705
 3004DPPE   NH357901  34.191   9.073  11.648  0.0261  0.0784  0.1360
 3004DPPE   PO457902  34.424   9.372  11.552  0.1323 -0.0305 -0.1363
 3004DPPE   GL157903  34.665   9.640  11.450  0.0176  0.2014  0.0364
 3004DPPE   GL257904  34.840   9.572  11.209  0.0855 -0.3699  0.1909
 3004DPPE   C1A57905  35.057   9.819  11.679  0.0014 -0.0031 -0.1479
 3004DPPE   C2A57906  35.023  10.066  12.018  0.0278 -0.0007  0.1096
 3004DPPE   C3A57907  34.743  10.315  12.146  0.0864  0.2313 -0.3093
 3004DPPE   C4A57908  34.759  10.780  12.025  0.2485 -0.1579  0.2729
 3004DPPE   C1B57909  34.706  10.023  11.210  0.1027 -0.0031 -0.1413
 3004DPPE   C2B57910  34.808  10.469  11.077 -0.0069  0.2165 -0.2235
 3004DPPE   C3B57911  35.070  10.826  10.997  0.3086 -0.2138 -0.1749
 3004DPPE   C4B57912  35.395  11.085  11.184  0.1380  0.2899  0.1980
 3005DPPE   NH357913   4.315  16.708  25.337  0.1908 -0.0928  0.1229
 3005DPPE   PO457914   4.429  17.101  25.207 -0.1355  0.4002 -0.2055
 3005DPPE   GL157915   4.338  17.190  25.693 -0.3836  0.4535 -0.0468
 3005DPPE   GL257916   4.113  16.856  25.780 -0.3819 -0.2666 -0.2956
 3005DPPE   C1A57917   4.615  17.240  26.031  0.2810 -0.0735 -0.0921
 3005DPPE   C2A57918   4.609  17.435  26.479 -0.1909  0.3453 -0.2595
 3005DPPE   C3A57919   4.748  17.870  26.627  0.0275 -0.0431 -0.4985
 3005DPPE   C4A57920   4.857  18.051  27.007 -0.1946  0.0642  0.0532
 3005DPPE   C1B57921   4.242  16.931  26.213 -0.1262  0.0954  0.0615
 3005DPPE   C2B57922   4.318  17.053  26.606 -0.0495 -0.2602  0.1801
 3005DPPE   C3B57923   4.265  17.406  26.898  0.0356 -0.1038  0.1265
 3005DPPE   C4B57924   4.366  17.834  26.993  0.2538 -0.0845  0.4122
 3006DPPE   NH357925  17.323  24.545  16.455 -0.2758 -0.2197 -0.0148
 3006DPPE   PO457926  17.260  24.500  15.990 -0.1484  0.1433  0.1920
 3006DPPE   GL157927  17.117  24.759  15.773 -0.0219 -0.1856  0.0018
 3006DPPE   GL257928  16.811  24.735  15.955 -0.4419 -0.3113 -0.0213
 3006DPPE   C1A57929  16.822  24.818  15.434 -0.1597 -0.1134 -0.2727
 3006DPPE   C2A57930  16.315  24.848  15.328  0.0673  0.2297  0.0592
 3006DPPE   C3A57931  15.891  24.716  15.343 -0.0805  0.2779 -0.3265
 3006DPPE   C4A57932  15.599  24.928  15.359  0.0619 -0.3053  0.2319
 3006DPPE   C1B57933  16.589  24.447  15.826 -0.2027  0.0425  0.1197
 3006DPPE   C2B57934  16.308  24.178  15.872  0.1146 -0.1038 -0.2501
 3006DPPE   C3B57935  15.948  24.110  15.968 -0.3849  0.3141 -0.2257
 3006DPPE   C4B57936  15.527  24.127  15.768  0.1782  0.1873 -0.0159
 3007DPPE   NH357937  14.250  17.512  19.043  0.1454  0.0479 -0.1400
 3007DPPE   PO457938  14.245  17.132  18.784  0.2460 -0.3595  0.2187
 3007DPPE   GL157939  14.077  17.282  18.415  0.1304 -0.0814  0.2159
 3007DPPE   GL257940  14.154  17.446  18.149 -0.1104 -0.0475 -0.1598
 3007DPPE   C1A57941  13.650  17.437  18.367 -0.3087 -0.2521  0.0352
 3007DPPE   C2A57942  13.452  17.716  18.645 -0.2572 -0.3490  0.3233
 3007DPPE   C3A57943  13.022  18.029  18.449  0.4052 -0.1858  0.1855
 3007DPPE   C4A57944  12.946  18.502  18.527 -0.0878 -0.0403 -0.2193
 3007DPPE   C1B57945  13.978  17.785  17.830  0.2991 -0.2902  0.1074
 3007DPPE   C2B57946  13.709  17.965  17.736 -0.0300 -0.0438 -0.0247
 3007DPPE   C3B57947  13.638  18.066  17.352  0.1690 -0.2888 -0.1136
 3007DPPE   C4B57948  13.402  18.181  17.026 -0.3256 -0.2557 -0.0557
 3008DPPE   NH357949  17.216  21.708  17.463  0.0067 -0.0919  0.0510
 3008DPPE   PO457950  17.415  21.516  17.038  0.0037 -0.1940  0.0958
 3008DPPE   GL157951  17.124  21.832  16.826  0.1516 -0.0629  0.4166
 3008DPPE   GL257952  16.944  21.949  17.097  0.0994  0.4762  0.1155
 3008DPPE   C1A57953  16.800  21.956  16.460  0.1358 -0.0067  0.0957
 3008DPPE   C2A57954  16.554  22.387  16.445  0.1173 -0.3571  0.2618
 3008DPPE   C3A57955  16.675  22.752  16.233 -0.0031 -0.1234  0.3033
 3008DPPE   C4A57956  16.497  22.917  15.984 -0.1568  0.2700  0.0851
 3008DPPE   C1B57957  16.590  21.649  16.853 -0.0317  0.1158  0.1662
 3008DPPE   C2B57958  16.368  21.677  16.458 -0.0132 -0.3079 -0.1612
 3008DPPE   C3B57959  16.084  21.675  16.108  0.2438 -0.0278  0.0327
 3008DPPE   C4B57960  15.759  21.976  15.982 -0.0787  0.0685  0.0064
 3009DPPE   NH357961   1.996  28.467  18.996  0.0910  0.0208  0.0542
 3009DPPE   PO457962   2.387  28.692  19.123  0.1118  0.1531  0.1304
 3009DPPE   GL157963   2.509  28.292  19.022 -0.0609 -0.0466 -0.1567
 3009DPPE   GL257964   2.894  28.240  19.015  0.1401 -0.2011  0.1640
 3009DPPE   C1A57965   2.647  27.847  18.928  0.4806 -0.0882 -0.0476
 3009DPPE   C2A57966   3.027  27.705  18.749  0.0768 -0.1075  0.1383
 3009DPPE   C3A57967   3.213  27.648  18.278  0.0405 -0.1403 -0.0571
 3009DPPE   C4A57968   3.455  27.368  18.019  0.0898  0.1060  0.1575
 3009DPPE   C1B57969   2.780  28.119  18.508 -0.1391 -0.2002 -0.5447
 3009DPPE   C2B57970   2.986  28.131  18.168 -0.0897 -0.1197  0.0027
 3009DPPE   C3B57971   2.785  27.918  17.980  0.3696 -0.3386 -0.1404
 3009DPPE   C4B57972   2.467  27.775  17.785 -0.2646 -0.2280  0.0263
 3010DPPE   NH357973  35.098  24.057   2.126 -0.0155 -0.0270  0.3293
 3010DPPE   PO457974  35.283  23.676   2.053  0.2082  0.1575 -0.0446
 3010DPPE   GL157975  35.384  23.324   2.384 -0.0142  0.4523 -0.1161
 3010DPPE   GL257976  35.346  22.952   2.235 -0.2583 -0.0763  0.3430
 3010DPPE   C1A57977  35.238  23.287   2.841 -0.0939  0.2520 -0.0583
 3010DPPE   C2A57978  35.303  23.057   3.253  0.2349  0.1984  0.2766
 3010DPPE   C3A57979  35.235  22.679   3.468  0.1349  0.1277  0.0950
 3010DPPE   C4A57980  35.267  22.313   3.714 -0.0976 -0.1524 -0.1876
 3010DPPE   C1B57981  35.310  22.777   2.665  0.1151  0.1951  0.0413
 3010DPPE   C2B57982  35.554  22.655   3.047  0.0154 -0.3619 -0.1974
 3010DPPE   C3B57983  36.024  22.724   3.209 -0.4216  0.2963 -0.1122
 3010DPPE   C4B57984  36.438  22.742   3.257 -0.0368 -0.0342 -0.1661
 3011DPPE   NH357985  35.921  20.577  20.358  0.1084 -0.1796  0.2821
 3011DPPE   PO457986  35.666  20.290  20.377  0.3087  0.0971  0.2568
 3011DPPE   GL157987  35.778  20.141  20.006  0.2103  0.0095  0.2823
 3011DPPE   GL257988  36.204  20.245  20.092 -0.1900 -0.2810 -0.3394
 3011DPPE   C1A57989  36.004  19.923  19.736 -0.1468  0.0910 -0.2091
 3011DPPE   C2A57990  36.254  19.899  19.393  0.0325 -0.0976 -0.0728
 3011DPPE   C3A57991  36.326  20.174  19.284 -0.0094 -0.1566 -0.1960
 3011DPPE   C4A57992  36.334  20.610  19.238  0.2642  0.0111  0.1196
 3011DPPE   C1B57993  36.577  20.019  19.785  0.0682 -0.2162  0.4080
 3011DPPE   C2B57994  36.854  19.742  19.670 -0.0600 -0.2053 -0.0397
 3011DPPE   C3B57995  36.922  19.353  19.477  0.3629 -0.0222  0.1677
 3011DPPE   C4B57996  36.690  19.089  19.173  0.0606  0.1151  0.2813
 3012DPPE   NH357997  13.626  14.230  16.581 -0.1517 -0.0370  0.0756
 3012DPPE   PO457998  13.177  14.280  16.751 -0.1933  0.2669  0.1163
 3012DPPE   GL157999  12.750  14.295  16.706 -0.1511 -0.1092  0.1065
 3012DPPE   GL258000  12.602  14.285  16.961  0.2414 -0.3286  0.2077
 3012DPPE   C1A58001  12.440  14.270  16.426 -0.1486 -0.0104  0.0775
 3012DPPE   C2A58002  12.296  14.554  16.076  0.2684  0.3177 -0.0025
 3012DPPE   C3A58003  12.248  14.776  15.610 -0.3263 -0.1162 -0.1998
 3012DPPE   C4A58004  11.948  14.581  15.232 -0.2825 -0.2899 -0.0435
 3012DPPE   C1B58005  12.477  14.760  17.007 -0.3508 -0.2582  0.0036
 3012DPPE   C2B58006  12.227  15.121  17.059 -0.1964 -0.3095 -0.2445
 3012DPPE   C3B58007  12.045  15.543  16.862 -0.0064  0.0170 -0.0609
 3012DPPE   C4B58008  11.825  15.885  16.686  0.2558  0.3019 -0.4570
 3013DPPE   NH358009   3.695  11.088   1.509  0.3432  0.2401  0.1751
 3013DPPE   PO458010   3.602  11.267   1.753 -0.2276 -0.6508  0.0527
 3013DPPE   GL158011   3.371  11.569   2.023  0.0046 -0.0829 -0.0899
 3013DPPE   GL258012   3.347  11.481   2.417  0.0954 -0.3118  0.2756
 3013DPPE   C1A58013   2.959  11.844   2.073  0.1985 -0.1824  0.0654
 3013DPPE   C2A58014   2.620  12.168   1.955 -0.0677  0.2482  0.0136
 3013DPPE   C3A58015   2.295  12.392   2.200  0.1296 -0.0556  0.1156
 3013DPPE   C4A58016   2.184  12.514   2.593 -0.2229 -0.0146  0.2550
 3013DPPE   C1B58017   3.678  11.437   2.850 -0.1305  0.0014 -0.0193
 3013DPPE   C2B58018   3.743  11.564   3.291 -0.1014 -0.2501 -0.1593
 3013DPPE   C3B58019   3.679  11.430   3.717 -0.1432  0.2336 -0.1296
 3013DPPE   C4B58020   4.063  11.084   3.662  0.0294 -0.3613 -0.1380
 3014DPPE   NH358021  34.997  27.387   6.108  0.0252 -0.1164 -0.2703
 3014DPPE   PO458022  34.515  27.225   6.415 -0.0445 -0.0534 -0.3066
 3014DPPE   GL158023  34.856  27.065   6.595  0.0427  0.0616 -0.0087
 3014DPPE   GL258024  34.750  26.769   6.716  0.0033  0.0781  0.0433
 3014DPPE   C1A58025  35.255  26.743   6.836  0.0005 -0.1401 -0.0098
 3014DPPE   C2A58026  35.453  26.270   6.781  0.0399  0.2954  0.1189
 3014DPPE   C3A58027  35.696  26.072   6.500  0.1561  0.2342 -0.0195
 3014DPPE   C4A58028  36.111  26.006   6.443 -0.2782  0.4913  0.0832
 3014DPPE   C1B58029  34.950  26.369   6.587  0.1551 -0.0561 -0.2797
 3014DPPE   C2B58030  34.971  25.897   6.558  0.0583  0.1553  0.1497
 3014DPPE   C3B58031  35.111  25.446   6.498  0.1480  0.2871 -0.2975
 3014DPPE   C4B58032  35.364  25.181   6.388 -0.0597  0.0205 -0.1496
 3015DPPE   NH358033  32.534  26.276   6.587 -0.0693 -0.0751  0.0937
 3015DPPE   PO458034  32.785  26.270   6.969  0.0200 -0.1868  0.3059
 3015DPPE   GL158035  33.187  26.071   7.159  0.0304 -0.1711  0.1363
 3015DPPE   GL258036  33.490  25.917   6.988  0.2725  0.4374 -0.1014
 3015DPPE   C1A58037  33.482  25.867   7.483  0.0026  0.1896  0.1614
 3015DPPE   C2A58038  33.740  25.730   7.755  0.0390 -0.1669  0.2245
 3015DPPE   C3A58039  34.055  25.781   8.033  0.0893 -0.1175 -0.3907
 3015DPPE   C4A58040  34.435  25.855   8.347  0.0505 -0.1378 -0.0692
 3015DPPE   C1B58041  33.537  25.664   6.744  0.2860 -0.1075  0.0332
 3015DPPE   C2B58042  33.621  25.264   6.560  0.0877  0.1315  0.4104
 3015DPPE   C3B58043  33.796  24.878   6.768 -0.0781 -0.0851  0.0170
 3015DPPE   C4B58044  33.994  24.504   6.979  0.4946 -0.2723 -0.1189
 3016DPPE   NH358045   1.469  19.722   8.178 -0.1756  0.0963  0.3099
 3016DPPE   PO458046   1.571  19.569   7.733  0.1061 -0.3054  0.1028
 3016DPPE   GL158047   1.461  19.356   7.362  0.2961 -0.1343  0.0851
 3016DPPE   GL258048   1.405  19.044   7.430 -0.2397  0.0471  0.3757
 3016DPPE   C1A58049   0.927  19.216   7.407 -0.0963 -0.3553 -0.0937
 3016DPPE   C2A58050   0.548  19.053   7.306  0.1619 -0.6720  0.1863
 3016DPPE   C3A58051   0.198  19.191   7.123 -0.0003  0.1525 -0.3048
 3016DPPE   C4A58052  -0.188  19.139   7.034 -0.1136  0.2496 -0.1177
 3016DPPE   C1B58053   1.136  18.765   7.311  0.0788  0.0593 -0.0836
 3016DPPE   C2B58054   0.792  18.591   7.068  0.1175 -0.0876  0.0863
 3016DPPE   C3B58055   0.390  18.690   6.858  0.0367  0.3756  0.0867
 3016DPPE   C4B58056  -0.031  18.760   6.784 -0.0219 -0.0936  0.0781
 3017DPPE   NH358057  15.415  19.094   1.268  0.0556 -0.0482 -0.0270
 3017DPPE   PO458058  15.043  19.135   0.993  0.2116 -0.4818  0.0871
 3017DPPE   GL158059  14.874  19.098   1.310  0.2254 -0.2767  0.1854
 3017DPPE   GL258060  15.016  19.003   1.564 -0.2757 -0.2032 -0.0669
 3017DPPE   C1A58061  14.486  19.343   1.561  0.0105 -0.2296 -0.0737
 3017DPPE   C2A58062  14.099  19.315   1.864 -0.2764 -0.0209  0.2277
 3017DPPE   C3A58063  13.712  19.069   1.710 -0.0681 -0.0414 -0.0799
 3017DPPE   C4A58064  13.459  18.796   1.531 -0.2494  0.2594  0.2830
 3017DPPE   C1B58065  14.826  19.134   1.838  0.1771 -0.0097 -0.0073
 3017DPPE   C2B58066  14.917  19.245   2.266 -0.0987  0.0003 -0.0673
 3017DPPE   C3B58067  14.642  19.385   2.596  0.0313  0.1512  0.0349
 3017DPPE   C4B58068  14.303  19.581   2.823 -0.4456 -0.2069  0.1080
 3018DPPE   NH358069   8.944  23.946  18.434 -0.0409  0.3161  0.1840
 3018DPPE   PO458070   8.806  24.179  18.053 -0.1055 -0.0761 -0.1829
 3018DPPE   GL158071   8.677  24.429  18.478 -0.0484  0.2492 -0.0292
 3018DPPE   GL258072   8.468  24.749  18.480 -0.0826  0.0731  0.2346
 3018DPPE   C1A58073   8.746  24.487  18.866 -0.1574 -0.2552  0.3105
 3018DPPE   C2A58074   8.921  24.700  19.146 -0.1700  0.2199 -0.2224
 3018DPPE   C3A58075   8.826  24.915  19.502  0.1198  0.2360  0.0675
 3018DPPE   C4A58076   9.141  25.184  19.752  0.1533  0.1295  0.1057
 3018DPPE   C1B58077   8.609  24.972  18.757  0.0876  0.0276  0.2036
 3018DPPE   C2B58078   8.653  25.181  19.137 -0.0030  0.0538 -0.1474
 3018DPPE   C3B58079   8.466  25.367  19.416 -0.1339 -0.0741  0.1890
 3018DPPE   C4B58080   8.098  25.544  19.272 -0.0011 -0.0129 -0.3215
 3019DPPE   NH358081  11.599  21.949   3.107 -0.1415  0.1226 -0.1319
 3019DPPE   PO458082  11.293  21.925   2.776  0.0883  0.0045  0.3182
 3019DPPE   GL158083  11.434  22.181   2.430 -0.0304 -0.4387 -0.0792
 3019DPPE   GL258084  11.388  21.929   2.224 -0.1584  0.1155  0.0401
 3019DPPE   C1A58085  11.608  22.421   2.059 -0.2717  0.0061 -0.0317
 3019DPPE   C2A58086  11.792  22.523   1.712  0.1745 -0.0180 -0.0272
 3019DPPE   C3A58087  12.089  22.419   1.430 -0.2910 -0.2752 -0.2547
 3019DPPE   C4A58088  12.052  22.118   1.171  0.2046 -0.2221  0.2575
 3019DPPE   C1B58089  11.481  21.974   1.794  0.3484 -0.0648 -0.1946
 3019DPPE   C2B58090  11.478  21.659   1.488 -0.1882  0.1132 -0.1703
 3019DPPE   C3B58091  11.408  21.328   1.204  0.1620  0.2131  0.0903
 3019DPPE   C4B58092  11.204  20.917   1.188 -0.2386 -0.1739 -0.2377
 3020DPPE   NH358093  29.705  16.553  14.893  0.1535  0.1430 -0.2395
 3020DPPE   PO458094  29.641  16.888  14.572 -0.0082 -0.0270  0.0754
 3020DPPE   GL158095  30.091  16.969  14.515  0.0395 -0.2233  0.0390
 3020DPPE   GL258096  30.117  17.147  14.732  0.0145  0.0531  0.1630
 3020DPPE   C1A58097  30.419  16.795  14.207 -0.3656 -0.0289  0.1429
 3020DPPE   C2A58098  30.732  16.479  14.197  0.0187 -0.1857 -0.0288
 3020DPPE   C3A58099  30.823  16.216  13.913 -0.0850 -0.1688  0.0980
 3020DPPE   C4A58100  30.735  15.877  13.638  0.1427  0.2632  0.3143
 3020DPPE   C1B58101  30.388  17.445  14.776  0.0901  0.0843 -0.4141
 3020DPPE   C2B58102  30.755  17.724  14.659 -0.1101  0.1467 -0.3334
 3020DPPE   C3B58103  30.903  17.770  14.252 -0.3338 -0.0260 -0.0867
 3020DPPE   C4B58104  31.307  17.846  14.291 -0.1303 -0.1330  0.1724
 3021DPPE   NH358105  33.549  26.282  14.000  0.0219 -0.1321 -0.3868
 3021DPPE   PO458106  33.314  25.960  14.203 -0.3251 -0.2913 -0.1963
 3021DPPE   GL158107  33.381  25.725  13.890 -0.2971  0.0002 -0.0317
 3021DPPE   GL258108  33.753  25.669  13.979 -0.3083 -0.0014  0.1139
 3021DPPE   C1A58109  33.351  25.361  13.590 -0.1729 -0.0233  0.4213
 3021DPPE   C2A58110  33.715  25.132  13.309  0.0088 -0.4333 -0.0587
 3021DPPE   C3A58111  33.649  24.847  12.962 -0.0309 -0.3980  0.2201
 3021DPPE   C4A58112  33.706  24.411  12.848  0.3018  0.4673 -0.1989
 3021DPPE   C1B58113  34.007  25.693  13.619  0.1275 -0.0822 -0.1944
 3021DPPE   C2B58114  34.263  25.364  13.390 -0.1257 -0.2154  0.2272
 3021DPPE   C3B58115  34.441  25.024  13.134 -0.2243 -0.6250  0.0301
 3021DPPE   C4B58116  34.408  24.961  12.695  0.1331 -0.0135  0.0931
 3022DPPE   NH358117   6.198  19.255  22.551  0.1124 -0.1295 -0.4638
 3022DPPE   PO458118   6.557  18.915  22.292  0.2007  0.1334 -0.2049
 3022DPPE   GL158119   6.792  18.742  21.958  0.1840  0.1652 -0.0390
 3022DPPE   GL258120   6.753  18.316  21.991 -0.0392 -0.1295 -0.2000
 3022DPPE   C1A58121   6.745  18.754  21.490 -0.2536 -0.1416 -0.2881
 3022DPPE   C2A58122   6.737  19.095  21.251 -0.1956  0.2604 -0.0906
 3022DPPE   C3A58123   6.866  19.348  20.863 -0.0860  0.0689 -0.2178
 3022DPPE   C4A58124   6.712  19.465  20.453  0.0438 -0.1753  0.0222
 3022DPPE   C1B58125   6.512  18.013  21.765  0.0343 -0.1342 -0.0181
 3022DPPE   C2B58126   6.302  17.826  21.363  0.2750  0.3046 -0.1602
 3022DPPE   C3B58127   6.274  18.156  21.021  0.3701  0.1247 -0.1792
 3022DPPE   C4B58128   6.070  18.174  20.625 -0.3321 -0.1947  0.5204
 3023DPPE   NH358129   6.747  32.792   8.168  0.1857 -0.1475 -0.2290
 3023DPPE   PO458130   6.837  32.694   8.470 -0.1811 -0.0108 -0.2488
 3023DPPE   GL158131   7.169  32.275   8.613 -0.1886 -0.0434  0.1921
 3023DPPE   GL258132   7.539  32.340   8.691 -0.0172  0.0080 -0.1330
 3023DPPE   C1A58133   7.211  31.961   8.901  0.1206  0.2522 -0.0776
 3023DPPE   C2A58134   7.550  31.748   9.044  0.1338 -0.0036  0.0508
 3023DPPE   C3A58135   7.766  31.303   9.119  0.3129 -0.1086  0.0280
 3023DPPE   C4A58136   8.103  31.084   8.882 -0.0564 -0.0193  0.3329
 3023DPPE   C1B58137   7.608  31.973   8.547 -0.1052  0.1602 -0.0094
 3023DPPE   C2B58138   7.804  31.591   8.620  0.1426  0.0594  0.0994
 3023DPPE   C3B58139   7.516  31.233   8.613 -0.0375  0.1863  0.0301
 3023DPPE   C4B58140   7.205  30.934   8.497 -0.2602  0.2696 -0.2566
 3024DPPE   NH358141  34.096  26.219   5.077 -0.1841  0.0776 -0.0037
 3024DPPE   PO458142  34.339  26.099   4.598  0.1007  0.0964 -0.1609
 3024DPPE   GL158143  34.305  25.742   4.899 -0.0105 -0.1880 -0.1530
 3024DPPE   GL258144  34.207  25.715   5.206  0.0148 -0.1158  0.2011
 3024DPPE   C1A58145  34.430  25.330   5.134 -0.2388  0.3750 -0.2216
 3024DPPE   C2A58146  34.480  24.938   4.970 -0.1881  0.1188 -0.4446
 3024DPPE   C3A58147  34.612  24.564   5.149 -0.1588 -0.0428 -0.3442
 3024DPPE   C4A58148  34.628  24.472   5.532  0.1625 -0.3567  0.3246
 3024DPPE   C1B58149  34.194  25.668   5.573  0.0107  0.0899  0.0158
 3024DPPE   C2B58150  34.458  25.443   5.883  0.0249  0.2727  0.2341
 3024DPPE   C3B58151  34.511  24.991   6.085 -0.1208  0.0850 -0.2337
 3024DPPE   C4B58152  34.376  24.690   6.388 -0.2250  0.2969  0.0736
 3025DPPE   NH358153   5.942  15.399  15.954  0.1686 -0.0157 -0.0342
 3025DPPE   PO458154   6.017  15.565  16.341 -0.1669 -0.0841 -0.1389
 3025DPPE   GL158155   5.971  15.214  16.521  0.3169 -0.1881  0.1398
 3025DPPE   GL258156   5.812  15.295  16.814 -0.2807 -0.2479 -0.2100
 3025DPPE   C1A58157   6.171  14.936  16.861 -0.1263 -0.2918 -0.2405
 3025DPPE   C2A58158   6.178  14.523  17.014  0.0885  0.0970 -0.3580
 3025DPPE   C3A58159   6.222  14.356  17.423 -0.1347  0.0228 -0.0847
 3025DPPE   C4A58160   6.594  14.269  17.706  0.0568  0.0966 -0.1082
 3025DPPE   C1B58161   5.716  14.925  17.112  0.0059  0.3783 -0.1511
 3025DPPE   C2B58162   5.630  14.806  17.569 -0.3336 -0.6161  0.2432
 3025DPPE   C3B58163   5.347  14.488  17.698 -0.1010  0.1768 -0.0016
 3025DPPE   C4B58164   4.903  14.535  17.572  0.2292  0.0154 -0.0288
 3026DPPE   NH358165   0.375   9.323   2.080 -0.2896 -0.2107  0.2599
 3026DPPE   PO458166  -0.043   9.605   1.920 -0.2484 -0.0432 -0.0995
 3026DPPE   GL158167   0.084   9.837   2.369  0.0608 -0.0960  0.4110
 3026DPPE   GL258168  -0.091   9.948   2.483  0.1324  0.1120 -0.0250
 3026DPPE   C1A58169   0.170   9.860   2.838  0.0058  0.0245 -0.0700
 3026DPPE   C2A58170  -0.166  10.022   3.172 -0.0234  0.3693 -0.2018
 3026DPPE   C3A58171  -0.101  10.349   3.453  0.2401  0.0167  0.2145
 3026DPPE   C4A58172   0.161  10.512   3.710  0.0579  0.2358 -0.0945
 3026DPPE   C1B58173  -0.213  10.353   2.752 -0.0108 -0.0109 -0.3007
 3026DPPE   C2B58174  -0.034  10.653   3.003 -0.4182  0.1658  0.1365
 3026DPPE   C3B58175   0.360  10.881   2.910 -0.1480 -0.0614  0.1345
 3026DPPE   C4B58176   0.707  10.722   2.925  0.1446 -0.2120 -0.0068
 3027DPPE   NH358177   8.749  29.396   2.357 -0.1812  0.0078 -0.4672
 3027DPPE   PO458178   8.946  29.152   2.020 -0.2067 -0.1503 -0.0706
 3027DPPE   GL158179   9.256  29.055   2.338  0.3661  0.3001 -0.0236
 3027DPPE   GL258180   9.229  29.301   2.574 -0.0147 -0.1177 -0.0445
 3027DPPE   C1A58181   9.443  28.731   2.596 -0.1588 -0.0063 -0.0073
 3027DPPE   C2A58182   9.659  28.493   2.940  0.2494 -0.1976  0.0108
 3027DPPE   C3A58183   9.612  28.247   3.309  0.2320 -0.0477 -0.0798
 3027DPPE   C4A58184   9.872  28.365   3.722 -0.0525 -0.1922  0.0527
 3027DPPE   C1B58185   9.160  29.005   2.896 -0.0431  0.0591  0.0493
 3027DPPE   C2B58186   9.277  28.719   3.187  0.1887 -0.3744  0.4740
 3027DPPE   C3B58187   9.707  28.710   3.424 -0.1205  0.1788 -0.3335
 3027DPPE   C4B58188  10.084  28.779   3.313 -0.4441  0.1538 -0.1758
 3028DPPE   NH358189   9.978  32.456  12.597  0.0851  0.0951 -0.0506
 3028DPPE   PO458190   9.992  32.316  12.277  0.1704 -0.2949  0.2910
 3028DPPE   GL158191  10.163  32.058  12.195 -0.2010 -0.2857 -0.2393
 3028DPPE   GL258192  10.516  32.042  12.268 -0.0498 -0.1146 -0.2269
 3028DPPE   C1A58193  10.078  31.712  12.105  0.2633 -0.0760  0.0498
 3028DPPE   C2A58194  10.069  31.208  12.015 -0.1735 -0.0622 -0.2345
 3028DPPE   C3A58195  10.004  30.969  11.716 -0.0957 -0.0344  0.0806
 3028DPPE   C4A58196  10.021  30.643  11.492  0.1524 -0.1950  0.0216
 3028DPPE   C1B58197  10.481  31.588  12.374  0.0623 -0.0370 -0.0798
 3028DPPE   C2B58198  10.189  31.064  12.448  0.4398  0.0905  0.0341
 3028DPPE   C3B58199   9.995  30.686  12.123  0.0960 -0.0471  0.1018
 3028DPPE   C4B58200   9.682  30.533  11.965 -0.2166 -0.0612  0.2767
 3029DPPE   NH358201  33.818  19.779   0.438 -0.0249  0.2341  0.2177
 3029DPPE   PO458202  33.738  19.523   0.114  0.0974 -0.0822 -0.1327
 3029DPPE   GL158203  34.004  19.283   0.440 -0.0495  0.1765 -0.1401
 3029DPPE   GL258204  33.667  19.236   0.551  0.0597  0.1145 -0.0384
 3029DPPE   C1A58205  34.065  18.851   0.646 -0.2981 -0.1763  0.0754
 3029DPPE   C2A58206  34.161  18.758   1.060  0.1691  0.1461  0.1711
 3029DPPE   C3A58207  34.497  18.917   1.332  0.2343  0.3859  0.0273
 3029DPPE   C4A58208  34.857  19.207   1.408  0.0629  0.4593 -0.1923
 3029DPPE   C1B58209  33.913  19.348   0.988  0.2088  0.0325 -0.4081
 3029DPPE   C2B58210  34.063  19.161   1.360  0.0937 -0.0928 -0.0041
 3029DPPE   C3B58211  34.095  19.495   1.653 -0.0946 -0.0573 -0.0939
 3029DPPE   C4B58212  34.226  19.882   1.755  0.1176  0.0558 -0.2420
 3030DPPE   NH358213  36.857  25.471   2.612  0.0752 -0.1990  0.2443
 3030DPPE   PO458214  37.185  25.443   2.507  0.0379 -0.1093 -0.1148
 3030DPPE   GL158215  37.498  25.243   2.283  0.0738  0.2500 -0.1400
 3030DPPE   GL258216  37.308  25.058   2.047  0.0430 -0.2050  0.1350
 3030DPPE   C1A58217  37.915  25.085   2.479 -0.3518  0.3036  0.1864
 3030DPPE   C2A58218  38.105  24.679   2.382  0.0196 -0.3950 -0.0589
 3030DPPE   C3A58219  38.182  24.188   2.465 -0.0469 -0.2518  0.0437
 3030DPPE   C4A58220  38.537  23.925   2.456  0.0109 -0.2655 -0.1436
 3030DPPE   C1B58221  37.728  24.807   2.023  0.0498 -0.2046 -0.3367
 3030DPPE   C2B58222  37.717  24.378   2.208  0.0023  0.0014 -0.0979
 3030DPPE   C3B58223  37.666  24.270   2.654  0.0422  0.0508 -0.1698
 3030DPPE   C4B58224  37.553  24.278   3.143 -0.0582  0.2117  0.1904
 3031DPPE   NH358225   9.700  17.850  24.966 -0.2035 -0.1467 -0.1401
 3031DPPE   PO458226   9.273  17.563  24.984  0.1454  0.1636 -0.2099
 3031DPPE   GL158227   8.907  17.723  24.900  0.4830 -0.3875  0.0619
 3031DPPE   GL258228   8.660  17.423  25.083 -0.1816  0.0567  0.1479
 3031DPPE   C1A58229   8.620  18.020  25.098  0.2579 -0.1537 -0.1605
 3031DPPE   C2A58230   8.532  18.222  25.463  0.1333 -0.0116  0.0794
 3031DPPE   C3A58231   8.908  18.385  25.550  0.1042 -0.0160  0.2566
 3031DPPE   C4A58232   9.377  18.350  25.522  0.0550 -0.2947  0.0568
 3031DPPE   C1B58233   8.790  17.677  25.460  0.2046 -0.2256 -0.1823
 3031DPPE   C2B58234   8.935  17.775  25.938 -0.1405 -0.3805 -0.0871
 3031DPPE   C3B58235   9.120  18.144  25.933 -0.1521  0.4036 -0.0895
 3031DPPE   C4B58236   9.495  18.281  25.982 -0.4536  0.2774 -0.1528
 3032DPPE   NH358237  13.265  16.207   9.150 -0.0908  0.0968 -0.1001
 3032DPPE   PO458238  13.232  16.240   9.579 -0.0804  0.1907 -0.0311
 3032DPPE   GL158239  13.502  15.973   9.613  0.1819  0.0958 -0.0868
 3032DPPE   GL258240  13.568  15.885   9.311 -0.0173 -0.1084  0.1623
 3032DPPE   C1A58241  13.861  15.772   9.945 -0.3025  0.2669 -0.3701
 3032DPPE   C2A58242  14.058  15.472  10.140  0.0438  0.0042 -0.0951
 3032DPPE   C3A58243  14.237  15.175  10.398 -0.0806 -0.0795  0.0884
 3032DPPE   C4A58244  14.735  15.108  10.223 -0.0145  0.0636  0.3140
 3032DPPE   C1B58245  13.687  15.548   9.448 -0.1319 -0.0037 -0.0787
 3032DPPE   C2B58246  13.953  15.162   9.388 -0.3080 -0.1774 -0.2460
 3032DPPE   C3B58247  14.063  14.709   9.341  0.3163 -0.3884 -0.1416
 3032DPPE   C4B58248  14.272  14.340   9.116 -0.1545 -0.4297 -0.3515
 3033DPPE   NH358249  31.827  12.950  14.379  0.1139 -0.1665 -0.2520
 3033DPPE   PO458250  31.925  13.038  14.892  0.2857  0.2183 -0.2538
 3033DPPE   GL158251  31.988  13.393  14.690  0.2756  0.1645  0.2134
 3033DPPE   GL258252  31.842  13.602  14.766 -0.2900 -0.1526  0.2133
 3033DPPE   C1A58253  32.194  13.503  14.343  0.1182  0.2122  0.1699
 3033DPPE   C2A58254  32.417  13.794  14.255 -0.1946  0.0712  0.0490
 3033DPPE   C3A58255  32.759  14.116  14.052  0.1238 -0.2090 -0.1418
 3033DPPE   C4A58256  33.183  14.272  13.857  0.1816  0.0176 -0.0052
 3033DPPE   C1B58257  32.179  13.849  14.823 -0.2888  0.1809 -0.2066
 3033DPPE   C2B58258  32.563  14.011  14.839  0.1099 -0.0628 -0.1224
 3033DPPE   C3B58259  32.846  14.119  14.551  0.0255 -0.2703  0.0530
 3033DPPE   C4B58260  33.259  14.031  14.290  0.0030 -0.1482 -0.0510
 3034DPPE   NH358261  17.377  23.581   3.728 -0.2640 -0.0395 -0.0122
 3034DPPE   PO458262  17.223  23.602   4.108 -0.4173  0.1828 -0.1098
 3034DPPE   GL158263  16.798  23.671   4.065  0.0845 -0.2067  0.0963
 3034DPPE   GL258264  16.617  23.769   4.328 -0.1439  0.0356 -0.4885
 3034DPPE   C1A58265  16.281  23.745   3.930  0.1674  0.2208 -0.0380
 3034DPPE   C2A58266  16.008  24.177   3.818  0.0770  0.1677  0.1175
 3034DPPE   C3A58267  15.654  24.445   3.987 -0.3656 -0.0792 -0.1217
 3034DPPE   C4A58268  15.552  24.597   4.439 -0.0808  0.0144  0.0647
 3034DPPE   C1B58269  16.379  23.464   4.293 -0.3039 -0.1318  0.1166
 3034DPPE   C2B58270  16.289  23.169   4.661  0.1880  0.0354 -0.1556
 3034DPPE   C3B58271  16.515  22.771   4.847  0.2118  0.0491  0.1628
 3034DPPE   C4B58272  16.916  22.643   4.887  0.0644 -0.3751 -0.2838
 3035DPPE   NH358273   1.877  16.342  26.064  0.3412  0.0915 -0.0096
 3035DPPE   PO458274   1.555  16.539  26.034 -0.0377 -0.2889  0.1991
 3035DPPE   GL158275   1.516  16.678  26.375  0.2158  0.3223 -0.1407
 3035DPPE   GL258276   1.319  16.925  26.534  0.2225 -0.3053 -0.0173
 3035DPPE   C1A58277   1.609  16.537  26.755 -0.2687  0.2526 -0.0841
 3035DPPE   C2A58278   1.799  16.582  27.187  0.1076 -0.3814  0.1035
 3035DPPE   C3A58279   1.944  16.559  27.519  0.2197 -0.1629  0.1716
 3035DPPE   C4A58280   1.893  16.553  27.962 -0.0316  0.0996  0.2350
 3035DPPE   C1B58281   1.580  16.957  26.988 -0.1627 -0.1832  0.3666
 3035DPPE   C2B58282   1.397  17.171  27.375 -0.2048  0.1836 -0.1668
 3035DPPE   C3B58283   1.079  17.316  27.717  0.0482  0.1576  0.1381
 3035DPPE   C4B58284   0.869  17.248  27.966  0.2355 -0.0378 -0.0015
 3036DPPE   NH358285   4.510  15.650   3.977 -0.3419  0.1550  0.1886
 3036DPPE   PO458286   4.646  15.366   4.374 -0.2058 -0.3038 -0.0349
 3036DPPE   GL158287   4.386  15.036   4.447 -0.0823  0.3211  0.2377
 3036DPPE   GL258288   4.263  15.065   4.214  0.3087 -0.2096  0.1503
 3036DPPE   C1A58289   4.325  14.593   4.345  0.0593 -0.0835 -0.3690
 3036DPPE   C2A58290   4.339  14.217   4.151  0.1328  0.2215  0.2252
 3036DPPE   C3A58291   4.058  13.928   4.113  0.1439 -0.0671  0.0018
 3036DPPE   C4A58292   3.888  13.491   4.129  0.1229 -0.3755  0.1771
 3036DPPE   C1B58293   3.957  14.978   4.106 -0.0365 -0.1841  0.0757
 3036DPPE   C2B58294   3.500  14.929   4.194  0.3299 -0.0596 -0.0549
 3036DPPE   C3B58295   3.000  15.026   4.219  0.0253 -0.0631  0.1862
 3036DPPE   C4B58296   2.540  14.956   4.164  0.1519  0.4757 -0.1728
 3037DPPE   NH358297   0.386  20.769  12.158  0.1439  0.1499  0.1243
 3037DPPE   PO458298   0.677  20.425  12.400 -0.2730  0.1371  0.1368
 3037DPPE   GL158299   0.253  20.344  12.313  0.1432 -0.0670  0.0248
 3037DPPE   GL258300  -0.073  20.492  12.013 -0.2362  0.0534  0.0708
 3037DPPE   C1A58301  -0.221  20.253  12.400 -0.1978  0.0403 -0.2995
 3037DPPE   C2A58302  -0.527  20.041  12.370 -0.1153 -0.0011  0.0183
 3037DPPE   C3A58303  -0.985  19.970  12.337  0.2323  0.1089  0.0255
 3037DPPE   C4A58304  -1.344  19.681  12.497  0.0382 -0.0991  0.2279
 3037DPPE   C1B58305  -0.549  20.433  11.958 -0.1164  0.0090  0.3634
 3037DPPE   C2B58306  -1.029  20.252  11.891  0.0786 -0.2418  0.1727
 3037DPPE   C3B58307  -1.510  20.292  11.912  0.2194 -0.0697 -0.1147
 3037DPPE   C4B58308  -1.567  20.095  12.183 -0.2272 -0.2498 -0.0376
 3038DPPE   NH358309  11.745  15.936   5.547  0.0404  0.0443 -0.0940
 3038DPPE   PO458310  11.861  15.805   5.904  0.1717 -0.0937 -0.0867
 3038DPPE   GL158311  12.136  15.534   5.773 -0.1474 -0.3155 -0.0545
 3038DPPE   GL258312  12.043  15.592   5.418  0.0464  0.3606  0.1716
 3038DPPE   C1A58313  12.375  15.172   5.651  0.1772  0.3125 -0.0505
 3038DPPE   C2A58314  12.587  14.811   5.555  0.3677 -0.1146  0.2920
 3038DPPE   C3A58315  12.788  14.416   5.421  0.2846  0.0493 -0.0455
 3038DPPE   C4A58316  12.842  13.866   5.388  0.0711  0.0093  0.0900
 3038DPPE   C1B58317  12.289  15.303   5.154  0.2569 -0.1477  0.2881
 3038DPPE   C2B58318  12.168  15.015   4.748  0.0137 -0.0605  0.1229
 3038DPPE   C3B58319  12.347  14.638   4.564 -0.0427 -0.1201  0.5138
 3038DPPE   C4B58320  12.586  14.303   4.432  0.1939  0.0163  0.2444
 3039DPPE   NH358321   7.609  13.787  13.297  0.1475 -0.0137  0.0900
 3039DPPE   PO458322   7.588  13.546  12.973  0.1893  0.2650 -0.1102
 3039DPPE   GL158323   7.538  13.198  13.054  0.0366 -0.3147  0.0811
 3039DPPE   GL258324   7.737  13.269  13.335 -0.1263  0.1259 -0.0624
 3039DPPE   C1A58325   7.432  12.791  12.972 -0.0848 -0.1365 -0.4172
 3039DPPE   C2A58326   7.260  12.450  13.199  0.0732  0.0065 -0.0328
 3039DPPE   C3A58327   7.064  12.175  13.367  0.0977  0.0076 -0.1615
 3039DPPE   C4A58328   6.827  12.155  13.759 -0.0803  0.0231  0.1670
 3039DPPE   C1B58329   7.835  13.297  13.815 -0.1896 -0.0368  0.3896
 3039DPPE   C2B58330   8.029  13.053  14.080  0.0654 -0.2940  0.1576
 3039DPPE   C3B58331   8.020  12.613  14.394  0.1184 -0.0224 -0.1382
 3039DPPE   C4B58332   7.862  12.180  14.530 -0.0799 -0.0466 -0.2653
 3040DPPE   NH358333  10.976  17.708  21.511  0.0158  0.0646  0.0047
 3040DPPE   PO458334  11.087  17.279  21.363  0.0040 -0.1416  0.0149
 3040DPPE   GL158335  10.875  17.456  21.034  0.0670  0.3089  0.2023
 3040DPPE   GL258336  10.805  17.298  20.662 -0.0747  0.0797  0.3102
 3040DPPE   C1A58337  10.500  17.600  20.891  0.1862 -0.0132 -0.1110
 3040DPPE   C2A58338  10.236  17.641  20.508 -0.0866 -0.2332 -0.0087
 3040DPPE   C3A58339   9.859  17.500  20.348 -0.1796 -0.2701  0.1670
 3040DPPE   C4A58340   9.623  17.443  19.987  0.1295  0.0712 -0.1247
 3040DPPE   C1B58341  10.706  17.577  20.408 -0.0271  0.0912  0.0003
 3040DPPE   C2B58342  10.561  17.911  20.188  0.2046  0.3804 -0.0339
 3040DPPE   C3B58343  10.398  17.932  19.736  0.0758  0.0935 -0.1890
 3040DPPE   C4B58344  10.429  17.723  19.286 -0.0407 -0.1236  0.2325
 3041DPPE   NH358345  17.320  15.001   8.324  0.2734  0.0655  0.0821
 3041DPPE   PO458346  17.674  15.050   8.460  0.1553  0.1397 -0.1604
 3041DPPE   GL158347  17.373  15.457   8.518  0.0592  0.1158  0.1432
 3041DPPE   GL258348  17.294  15.517   8.261  0.1102  0.1173  0.0218
 3041DPPE   C1A58349  17.360  15.844   8.676 -0.0287  0.0205  0.1911
 3041DPPE   C2A58350  17.209  16.289   8.767 -0.0220  0.1061  0.0345
 3041DPPE   C3A58351  17.049  16.484   9.005  0.1558 -0.2244  0.1223
 3041DPPE   C4A58352  16.900  16.738   9.275  0.1013  0.3417  0.0921
 3041DPPE   C1B58353  17.095  15.975   8.196 -0.0503 -0.1099 -0.1630
 3041DPPE   C2B58354  16.665  16.235   8.079  0.2368  0.1746 -0.2660
 3041DPPE   C3B58355  16.421  16.503   8.170 -0.2665 -0.0282 -0.0690
 3041DPPE   C4B58356  16.325  16.702   8.507 -0.0877 -0.2936  0.0969
 3042DPPE   NH358357   1.054  19.095  21.497 -0.0395  0.1353 -0.0398
 3042DPPE   PO458358   1.026  19.513  21.395 -0.0502 -0.1594 -0.3959
 3042DPPE   GL158359   0.903  19.419  20.950 -0.3452  0.2922 -0.1943
 3042DPPE   GL258360   1.063  19.061  20.989  0.0663 -0.1317 -0.0784
 3042DPPE   C1A58361   0.877  19.266  20.568  0.2609  0.2109  0.1869
 3042DPPE   C2A58362   0.666  19.374  20.097 -0.1202  0.3289 -0.1966
 3042DPPE   C3A58363   0.597  19.679  19.861 -0.1493 -0.0030 -0.0083
 3042DPPE   C4A58364   0.738  19.838  19.433 -0.3391  0.0444 -0.0243
 3042DPPE   C1B58365   0.951  18.629  20.832  0.1083 -0.2567 -0.1034
 3042DPPE   C2B58366   0.682  18.488  20.485  0.0056  0.0314 -0.0003
 3042DPPE   C3B58367   0.302  18.815  20.453  0.1165 -0.0378 -0.3527
 3042DPPE   C4B58368  -0.117  18.776  20.464  0.1616 -0.3700 -0.3772
 3043DPPE   NH358369   1.185  11.778  20.035 -0.1139 -0.1117 -0.3460
 3043DPPE   PO458370   0.993  11.998  20.362  0.1627  0.0923  0.0479
 3043DPPE   GL158371   0.652  12.112  20.190 -0.1428  0.3371 -0.1210
 3043DPPE   GL258372   0.483  12.373  20.111 -0.4115 -0.0367  0.0265
 3043DPPE   C1A58373   0.208  12.020  19.946  0.1762  0.0626  0.2111
 3043DPPE   C2A58374  -0.151  12.318  19.881  0.1523  0.1932 -0.2484
 3043DPPE   C3A58375  -0.539  12.562  19.790  0.0859 -0.1174  0.0902
 3043DPPE   C4A58376  -0.846  12.535  19.529  0.1786 -0.1931 -0.0208
 3043DPPE   C1B58377   0.159  12.648  20.139  0.2586  0.0137  0.0797
 3043DPPE   C2B58378   0.122  12.911  20.534 -0.1770 -0.0135  0.0776
 3043DPPE   C3B58379   0.208  13.340  20.669  0.3615 -0.0659 -0.0213
 3043DPPE   C4B58380   0.353  13.691  20.574 -0.0069 -0.0110  0.0719
 3044DPPE   NH358381  32.736  16.368  20.421  0.0026 -0.1817  0.0114
 3044DPPE   PO458382  33.141  16.492  20.480 -0.2976  0.1046 -0.3349
 3044DPPE   GL158383  33.419  16.655  20.121  0.1674 -0.2491 -0.0934
 3044DPPE   GL258384  33.721  16.656  20.171  0.0171 -0.0253  0.1468
 3044DPPE   C1A58385  33.571  16.530  19.669 -0.1618  0.0248 -0.4802
 3044DPPE   C2A58386  33.337  16.222  19.379  0.3227  0.0528 -0.2296
 3044DPPE   C3A58387  33.436  16.143  19.007  0.0341  0.1031 -0.1773
 3044DPPE   C4A58388  33.548  16.281  18.642  0.0709  0.1333 -0.0825
 3044DPPE   C1B58389  33.649  17.120  19.911 -0.2029  0.0243 -0.0801
 3044DPPE   C2B58390  33.486  17.389  19.518 -0.2333 -0.0810  0.2758
 3044DPPE   C3B58391  33.612  17.824  19.342 -0.1100 -0.0184  0.0422
 3044DPPE   C4B58392  33.772  18.181  19.209  0.0532  0.0594 -0.1736
 3045DPPE   NH358393   5.371  10.864  16.474 -0.0324 -0.1914 -0.2075
 3045DPPE   PO458394   5.072  10.527  16.481  0.0372  0.1286 -0.1702
 3045DPPE   GL158395   4.860  10.895  16.320 -0.0006 -0.1715  0.0694
 3045DPPE   GL258396   4.583  11.051  16.429 -0.2161 -0.1395 -0.2091
 3045DPPE   C1A58397   5.012  11.188  16.034  0.0141 -0.0001 -0.1054
 3045DPPE   C2A58398   4.734  11.341  15.730  0.2548  0.0380 -0.0970
 3045DPPE   C3A58399   4.359  11.489  15.526  0.0651 -0.2409 -0.1379
 3045DPPE   C4A58400   4.148  11.732  15.434  0.0908  0.2162 -0.1754
 3045DPPE   C1B58401   4.168  11.320  16.449  0.2116 -0.2391  0.0429
 3045DPPE   C2B58402   3.890  11.629  16.224  0.3764 -0.0064  0.1024
 3045DPPE   C3B58403   3.721  11.926  15.961  0.2441 -0.0973  0.1240
 3045DPPE   C4B58404   3.711  12.306  16.028 -0.1798 -0.4039  0.0549
 3046DPPE   NH358405  33.033  12.301  17.377  0.2290 -0.3223 -0.0461
 3046DPPE   PO458406  33.286  11.994  17.424  0.0666  0.1246 -0.1210
 3046DPPE   GL158407  33.610  12.253  17.299 -0.2951 -0.1595  0.1163
 3046DPPE   GL258408  33.455  12.537  17.220  0.3021  0.1108 -0.0810
 3046DPPE   C1A58409  34.028  12.328  17.230 -0.2888 -0.0137 -0.0859
 3046DPPE   C2A58410  34.394  12.551  17.414  0.1400  0.2136  0.0266
 3046DPPE   C3A58411  34.812  12.804  17.321  0.1209  0.5667  0.0036
 3046DPPE   C4A58412  35.169  12.976  17.075 -0.0539  0.0608 -0.0277
 3046DPPE   C1B58413  33.848  12.793  17.191 -0.0612 -0.2857 -0.2328
 3046DPPE   C2B58414  34.247  13.045  17.332  0.0288 -0.4264  0.2835
 3046DPPE   C3B58415  34.514  13.244  17.623 -0.0176 -0.1026 -0.1744
 3046DPPE   C4B58416  34.751  13.506  17.841 -0.2661  0.5796 -0.3229
 3047DPPE   NH358417  37.974  23.801   8.185 -0.0918 -0.0149 -0.0920
 3047DPPE   PO458418  37.824  23.506   8.569  0.2350 -0.0441  0.1222
 3047DPPE   GL158419  37.493  23.434   8.827 -0.1194  0.2063 -0.0534
 3047DPPE   GL258420  37.546  23.328   9.171 -0.0382  0.0975  0.2542
 3047DPPE   C1A58421  37.065  23.299   8.970  0.0239 -0.0945  0.1413
 3047DPPE   C2A58422  36.683  23.508   9.101  0.2483  0.3313 -0.1039
 3047DPPE   C3A58423  36.435  23.859   9.111  0.0080 -0.1263 -0.1202
 3047DPPE   C4A58424  36.015  23.866   9.345 -0.0670  0.3193  0.3505
 3047DPPE   C1B58425  37.418  23.034   9.544  0.1409  0.0750  0.0328
 3047DPPE   C2B58426  37.116  23.195   9.852  0.0749 -0.0566  0.1733
 3047DPPE   C3B58427  36.757  23.320   9.905  0.0613  0.1713  0.0695
 3047DPPE   C4B58428  36.322  23.226  10.008 -0.0248  0.2028  0.2566
 3048DPPE   NH358429  16.314  24.036  18.227 -0.0933 -0.0238  0.0725
 3048DPPE   PO458430  15.920  24.165  18.347  0.0907 -0.2052  0.0437
 3048DPPE   GL158431  15.620  23.863  18.394  0.0584  0.1448  0.2062
 3048DPPE   GL258432  15.378  23.928  18.514  0.2820  0.1238  0.4314
 3048DPPE   C1A58433  15.370  23.615  18.148  0.0713  0.1506 -0.0526
 3048DPPE   C2A58434  15.275  23.336  17.834  0.0293 -0.0025 -0.0643
 3048DPPE   C3A58435  15.038  23.282  17.494 -0.2422  0.1352 -0.2554
 3048DPPE   C4A58436  14.661  23.298  17.162 -0.3468 -0.0375  0.2839
 3048DPPE   C1B58437  15.257  24.113  18.139 -0.0143 -0.4122 -0.0356
 3048DPPE   C2B58438  14.937  24.436  18.035  0.0883 -0.0130 -0.0531
 3048DPPE   C3B58439  14.506  24.430  18.182 -0.0819 -0.2266 -0.1112
 3048DPPE   C4B58440  14.346  24.315  18.556 -0.0009 -0.0950 -0.1213
 3049DPPE   NH358441   6.306   9.068   6.478 -0.0897 -0.0515 -0.3771
 3049DPPE   PO458442   5.867   8.942   6.306  0.0215 -0.0593  0.4146
 3049DPPE   GL158443   5.652   9.341   6.320 -0.1957  0.1790  0.3007
 3049DPPE   GL258444   5.592   9.579   6.502  0.1031 -0.1873  0.0269
 3049DPPE   C1A58445   5.241   9.366   6.221  0.2714  0.0078 -0.1629
 3049DPPE   C2A58446   4.989   9.694   6.093  0.2818 -0.2243  0.0086
 3049DPPE   C3A58447   4.697  10.073   6.100 -0.0279  0.1284  0.1238
 3049DPPE   C4A58448   4.404  10.490   6.180  0.1956 -0.0266  0.2065
 3049DPPE   C1B58449   5.108   9.736   6.550 -0.1401 -0.1816 -0.0151
 3049DPPE   C2B58450   4.670  10.023   6.631 -0.0936 -0.0349 -0.0460
 3049DPPE   C3B58451   4.517  10.519   6.698  0.0172  0.1684  0.1584
 3049DPPE   C4B58452   4.314  10.975   6.756 -0.1091 -0.1888 -0.0677
 3050DPPE   NH358453  37.675  27.512   3.491 -0.0489 -0.0075 -0.3174
 3050DPPE   PO458454  37.317  27.580   3.871 -0.0661  0.4800 -0.0207
 3050DPPE   GL158455  37.676  27.266   4.022 -0.4269 -0.3998  0.2467
 3050DPPE   GL258456  37.491  26.990   4.224 -0.1152  0.0856  0.1297
 3050DPPE   C1A58457  38.003  27.014   4.168 -0.0943  0.0183 -0.1413
 3050DPPE   C2A58458  38.172  26.635   4.364  0.1774  0.1931 -0.1100
 3050DPPE   C3A58459  38.451  26.541   4.684  0.1611 -0.0571 -0.2182
 3050DPPE   C4A58460  38.780  26.288   4.850 -0.2919 -0.3459 -0.1833
 3050DPPE   C1B58461  37.712  26.840   4.596  0.0724  0.1493  0.0295
 3050DPPE   C2B58462  38.034  26.791   4.781 -0.0279  0.0658 -0.0891
 3050DPPE   C3B58463  38.144  26.911   5.209  0.2361  0.2720 -0.0896
 3050DPPE   C4B58464  38.302  27.144   5.546 -0.1810  0.2711 -0.3617
 3051DPPE   NH358465   7.015  33.282   9.676 -0.0633  0.0659 -0.1235
 3051DPPE   PO458466   6.550  33.111   9.576  0.4032  0.0045  0.0857
 3051DPPE   GL158467   6.492  32.621   9.391  0.1318 -0.1557 -0.1790
 3051DPPE   GL258468   6.308  32.633   9.109 -0.0233  0.0678 -0.1196
 3051DPPE   C1A58469   6.589  32.185   9.302  0.0139  0.0650 -0.4118
 3051DPPE   C2A58470   6.950  31.978   9.364  0.0539  0.2277 -0.2542
 3051DPPE   C3A58471   6.843  31.575   9.537  0.1327 -0.2850 -0.2370
 3051DPPE   C4A58472   7.018  31.351   9.885 -0.1319 -0.2520  0.1190
 3051DPPE   C1B58473   6.402  32.259   8.873 -0.1639  0.1546 -0.2958
 3051DPPE   C2B58474   6.248  31.762   8.899  0.3676 -0.0098  0.3928
 3051DPPE   C3B58475   5.996  31.432   8.974 -0.2536  0.1967 -0.0082
 3051DPPE   C4B58476   5.607  31.188   8.948  0.0557  0.0022  0.1916
 3052DPPE   NH358477  29.725  22.764  13.668  0.0047 -0.1050  0.1369
 3052DPPE   PO458478  30.011  22.960  13.923  0.0881  0.1213 -0.0259
 3052DPPE   GL158479  30.210  22.867  13.611 -0.2019  0.0531 -0.1521
 3052DPPE   GL258480  30.439  23.187  13.658  0.1467  0.0483  0.2621
 3052DPPE   C1A58481  30.333  22.787  13.261 -0.0065  0.0359  0.0151
 3052DPPE   C2A58482  30.638  22.925  12.868  0.0259  0.1459  0.1412
 3052DPPE   C3A58483  30.988  22.862  12.673  0.1157  0.1677  0.1739
 3052DPPE   C4A58484  31.321  23.098  12.632  0.0029  0.4399  0.1784
 3052DPPE   C1B58485  30.870  23.012  13.357  0.2034 -0.3695  0.4024
 3052DPPE   C2B58486  31.190  22.774  13.192  0.0774 -0.0975  0.0712
 3052DPPE   C3B58487  31.407  22.579  12.811  0.1098  0.0892  0.1326
 3052DPPE   C4B58488  31.643  22.249  12.554 -0.3534  0.2089 -0.2687
 3053DPPE   NH358489  34.599  24.729   2.956 -0.1736  0.2745  0.0965
 3053DPPE   PO458490  34.882  24.791   3.087 -0.0071  0.2213  0.0503
 3053DPPE   GL158491  35.198  24.623   3.219  0.3051 -0.0341 -0.3576
 3053DPPE   GL258492  35.086  24.336   3.438  0.0360  0.1387  0.0179
 3053DPPE   C1A58493  35.585  24.545   3.431  0.0912 -0.2267  0.1318
 3053DPPE   C2A58494  35.994  24.696   3.659  0.0421  0.0615 -0.2867
 3053DPPE   C3A58495  36.025  24.882   4.112 -0.0841 -0.1217  0.0541
 3053DPPE   C4A58496  36.239  24.816   4.474 -0.0275  0.0325 -0.1931
 3053DPPE   C1B58497  34.988  24.290   3.836  0.1599 -0.1074  0.4125
 3053DPPE   C2B58498  35.103  24.271   4.247 -0.2697  0.1428  0.0267
 3053DPPE   C3B58499  35.266  24.150   4.659  0.1497  0.1619  0.1186
 3053DPPE   C4B58500  35.518  24.273   4.958 -0.1412  0.0591 -0.2269
 3054DPPE   NH358501  36.194  28.055   6.032 -0.2171 -0.2520 -0.0046
 3054DPPE   PO458502  35.945  27.813   5.815  0.3526  0.3523  0.2058
 3054DPPE   GL158503  36.035  27.432   5.960 -0.1658  0.0807 -0.1307
 3054DPPE   GL258504  35.724  27.186   5.982 -0.2917 -0.2260 -0.0960
 3054DPPE   C1A58505  36.363  27.131   5.809  0.0457  0.1861 -0.1266
 3054DPPE   C2A58506  36.527  27.005   5.436  0.2727  0.0901 -0.2603
 3054DPPE   C3A58507  36.958  27.037   5.272  0.0282  0.2158 -0.0886
 3054DPPE   C4A58508  37.239  27.058   5.581  0.1936 -0.0484  0.0647
 3054DPPE   C1B58509  36.097  26.927   6.182 -0.1369  0.1604 -0.0951
 3054DPPE   C2B58510  36.561  26.780   6.169  0.4709 -0.0353  0.0120
 3054DPPE   C3B58511  36.953  26.542   6.282 -0.0984  0.3214 -0.2671
 3054DPPE   C4B58512  36.952  26.249   6.590  0.1836  0.0966 -0.1235
 3055DPPE   NH358513  15.170  12.833   6.545  0.2121 -0.0686  0.1577
 3055DPPE   PO458514  15.412  13.149   6.504  0.0219  0.0046  0.0681
 3055DPPE   GL158515  15.212  13.330   6.873 -0.2515  0.0342  0.1915
 3055DPPE   GL258516  15.321  13.256   7.229  0.1032 -0.2505 -0.3003
 3055DPPE   C1A58517  15.060  13.782   7.089  0.0503 -0.0494  0.1000
 3055DPPE   C2A58518  14.914  14.104   7.287  0.2042  0.1249  0.0858
 3055DPPE   C3A58519  14.590  14.403   7.500  0.0324  0.1888  0.0345
 3055DPPE   C4A58520  14.099  14.286   7.381  0.0457 -0.0635  0.0808
 3055DPPE   C1B58521  14.943  13.311   7.342  0.0735 -0.2222  0.0917
 3055DPPE   C2B58522  14.545  13.420   7.132  0.2162  0.4430  0.0833
 3055DPPE   C3B58523  14.189  13.601   7.083  0.2244  0.0766 -0.0800
 3055DPPE   C4B58524  13.972  13.940   6.941  0.1189 -0.1096  0.2070
 3056DPPE   NH358525  37.568  13.852  21.595 -0.2008 -0.3229 -0.2341
 3056DPPE   PO458526  37.447  13.432  21.495  0.1949  0.3203  0.2326
 3056DPPE   GL158527  37.316  13.631  21.120 -0.0982 -0.0941  0.2279
 3056DPPE   GL258528  37.417  13.407  20.943  0.1322 -0.1729 -0.2814
 3056DPPE   C1A58529  37.208  13.895  20.862  0.3774  0.0463  0.0979
 3056DPPE   C2A58530  37.091  14.257  20.746 -0.1780  0.1331 -0.0902
 3056DPPE   C3A58531  36.968  14.666  20.676  0.1439 -0.3123  0.2071
 3056DPPE   C4A58532  37.077  15.064  20.792 -0.0508 -0.1247  0.3964
 3056DPPE   C1B58533  37.151  13.545  20.480  0.3208 -0.1570 -0.0542
 3056DPPE   C2B58534  37.432  13.454  20.127 -0.2700  0.0519 -0.0911
 3056DPPE   C3B58535  37.395  13.422  19.672  0.3148  0.0275  0.0706
 3056DPPE   C4B58536  37.607  13.703  19.387  0.0715 -0.3545  0.1271
 3057DPPE   NH358537  30.831  17.791   4.314 -0.0290 -0.2110  0.1342
 3057DPPE   PO458538  30.768  17.407   4.626  0.0474 -0.5614  0.2531
 3057DPPE   GL158539  31.033  17.649   4.902 -0.0383 -0.1799  0.1750
 3057DPPE   GL258540  31.031  17.890   5.188 -0.0962 -0.0787  0.0362
 3057DPPE   C1A58541  31.435  17.471   4.905  0.1910  0.2131  0.0590
 3057DPPE   C2A58542  31.855  17.550   4.811  0.0441  0.1184 -0.0329
 3057DPPE   C3A58543  32.231  17.582   5.101  0.0118  0.1194  0.0290
 3057DPPE   C4A58544  32.596  17.315   5.269  0.1668  0.1297  0.0396
 3057DPPE   C1B58545  30.991  17.970   5.635 -0.2926  0.1079  0.2596
 3057DPPE   C2B58546  31.398  18.084   5.691 -0.0102  0.1006  0.1995
 3057DPPE   C3B58547  31.802  18.102   5.917 -0.1970 -0.2807 -0.0842
 3057DPPE   C4B58548  32.241  18.004   5.967 -0.1053 -0.0493 -0.0593
 3058DPPE   NH358549   7.639   9.801  12.023 -0.0771 -0.0582  0.2208
 3058DPPE   PO458550   7.899   9.872  11.730 -0.0006  0.0083 -0.1467
 3058DPPE   GL158551   7.691  10.249  11.670  0.2819 -0.2652 -0.2248
 3058DPPE   GL258552   7.417  10.128  11.690  0.2176  0.2289  0.2359
 3058DPPE   C1A58553   7.901  10.645  11.582 -0.1626  0.0134 -0.2227
 3058DPPE   C2A58554   8.191  10.866  11.720 -0.0855 -0.1169  0.3543
 3058DPPE   C3A58555   8.490  10.951  11.876 -0.3819  0.0738 -0.2047
 3058DPPE   C4A58556   8.901  11.092  11.954 -0.1967  0.0096  0.0501
 3058DPPE   C1B58557   7.147  10.465  11.698 -0.0286  0.1952 -0.0303
 3058DPPE   C2B58558   7.339  10.833  11.643  0.0559  0.0912 -0.2014
 3058DPPE   C3B58559   7.252  11.343  11.763 -0.1515 -0.1711 -0.2261
 3058DPPE   C4B58560   6.930  11.408  12.128  0.0525 -0.0428 -0.2330
 3059DPPE   NH358561  13.736  17.107  19.655  0.1351 -0.0351  0.2932
 3059DPPE   PO458562  13.475  16.784  19.787 -0.3036 -0.0953 -0.1079
 3059DPPE   GL158563  13.306  16.977  19.438  0.1587 -0.0443 -0.0425
 3059DPPE   GL258564  13.287  17.324  19.663 -0.1820  0.0446  0.0111
 3059DPPE   C1A58565  13.050  17.159  19.110  0.1011  0.2792 -0.0230
 3059DPPE   C2A58566  13.043  17.427  18.588  0.0183 -0.0640 -0.0575
 3059DPPE   C3A58567  12.839  17.542  18.152  0.4261  0.0767 -0.1714
 3059DPPE   C4A58568  12.502  17.714  18.099  0.0582  0.0727  0.0526
 3059DPPE   C1B58569  13.098  17.719  19.488  0.5115 -0.2162 -0.1294
 3059DPPE   C2B58570  12.839  18.037  19.405  0.0307  0.1641 -0.2736
 3059DPPE   C3B58571  12.556  18.430  19.425  0.1351  0.0058 -0.0127
 3059DPPE   C4B58572  12.184  18.433  19.330  0.1075 -0.3389 -0.1271
 3060DPPE   NH358573  29.620  24.973  10.866  0.2255  0.1801 -0.1564
 3060DPPE   PO458574  29.995  25.166  11.011  0.0071  0.0586 -0.1246
 3060DPPE   GL158575  30.330  25.034  10.671  0.0801 -0.0459  0.0254
 3060DPPE   GL258576  30.638  25.160  10.759 -0.0505 -0.2468  0.0738
 3060DPPE   C1A58577  30.558  24.708  10.676 -0.2303 -0.2515  0.3075
 3060DPPE   C2A58578  30.969  24.567  10.571 -0.0072  0.2904 -0.0617
 3060DPPE   C3A58579  31.261  24.191  10.466 -0.0189 -0.1271 -0.2542
 3060DPPE   C4A58580  31.471  23.890  10.304  0.2874  0.1815  0.3314
 3060DPPE   C1B58581  31.030  25.095  10.740  0.2632  0.4505 -0.0146
 3060DPPE   C2B58582  31.349  25.093  10.749  0.2162 -0.5131 -0.0811
 3060DPPE   C3B58583  31.750  24.927  10.507  0.4188 -0.1116  0.2900
 3060DPPE   C4B58584  32.104  25.039  10.285  0.1158 -0.1419  0.4980
 3061DPPE   NH358585   5.444  12.970   0.758 -0.0355 -0.2953 -0.2694
 3061DPPE   PO458586   5.264  12.661   1.033  0.0914 -0.1139 -0.3137
 3061DPPE   GL158587   4.886  12.960   1.365  0.1994  0.0550  0.0690
 3061DPPE   GL258588   4.641  12.912   1.461 -0.1154  0.1211 -0.1656
 3061DPPE   C1A58589   4.909  13.365   1.422 -0.0880 -0.1432 -0.1907
 3061DPPE   C2A58590   5.083  13.506   1.744 -0.0425 -0.0201 -0.1918
 3061DPPE   C3A58591   5.158  13.282   2.151 -0.2918  0.0016 -0.1836
 3061DPPE   C4A58592   5.473  13.451   2.399 -0.2017  0.0443 -0.5668
 3061DPPE   C1B58593   4.595  13.139   1.796  0.0131 -0.1222 -0.1363
 3061DPPE   C2B58594   4.422  13.253   2.113  0.4880  0.1346  0.3517
 3061DPPE   C3B58595   4.363  13.498   2.438  0.0348  0.1129  0.1395
 3061DPPE   C4B58596   4.438  13.935   2.372  0.2966  0.0848  0.0034
 3062DPPE   NH358597  16.280  21.499  18.173  0.2915  0.0739 -0.1113
 3062DPPE   PO458598  16.136  21.899  18.340  0.0090 -0.2739 -0.2028
 3062DPPE   GL158599  15.855  21.718  18.016 -0.2038  0.0035  0.3187
 3062DPPE   GL258600  15.958  22.041  17.913 -0.2899 -0.1807  0.3635
 3062DPPE   C1A58601  15.437  21.641  17.866  0.0368  0.1164  0.0306
 3062DPPE   C2A58602  15.117  21.476  17.626  0.0387  0.0534  0.1712
 3062DPPE   C3A58603  14.759  21.556  17.682 -0.0937 -0.0824 -0.0980
 3062DPPE   C4A58604  14.555  21.836  18.049  0.1686 -0.1409  0.2590
 3062DPPE   C1B58605  15.649  22.207  17.645 -0.3249  0.3273 -0.1345
 3062DPPE   C2B58606  15.307  22.336  17.515 -0.1736 -0.0754  0.0117
 3062DPPE   C3B58607  14.737  22.583  17.686  0.0494 -0.2270 -0.0275
 3062DPPE   C4B58608  14.458  22.905  17.449  0.0964 -0.0019 -0.1587
 3063DPPE   NH358609  36.546   8.768   5.235 -0.2414  0.1586 -0.1414
 3063DPPE   PO458610  36.352   9.161   5.389 -0.0892  0.1589 -0.3550
 3063DPPE   GL158611  36.485   9.472   5.518 -0.2531 -0.1824 -0.0188
 3063DPPE   GL258612  36.276   9.710   5.451  0.0131  0.1738  0.0947
 3063DPPE   C1A58613  36.794   9.650   5.826 -0.0456 -0.1138  0.1275
 3063DPPE   C2A58614  37.111   9.979   5.962 -0.1362 -0.3507  0.4697
 3063DPPE   C3A58615  37.665  10.129   5.734  0.1941 -0.0261 -0.1928
 3063DPPE   C4A58616  37.778  10.090   5.328  0.1801  0.3506  0.0820
 3063DPPE   C1B58617  36.555   9.989   5.492  0.3547 -0.2072 -0.3089
 3063DPPE   C2B58618  36.735  10.201   5.661  0.1212 -0.3045 -0.1235
 3063DPPE   C3B58619  36.940  10.417   5.934 -0.3924 -0.3648  0.1206
 3063DPPE   C4B58620  37.382  10.387   6.072 -0.1662 -0.1824 -0.0184
 3064DPPE   NH358621   0.266   7.645   4.081  0.0254  0.3869  0.0217
 3064DPPE   PO458622   0.557   7.861   3.818  0.0986  0.0297 -0.0270
 3064DPPE   GL158623   0.387   8.208   4.046 -0.1675 -0.1514 -0.1325
 3064DPPE   GL258624   0.026   8.137   4.292 -0.1637  0.1807  0.1135
 3064DPPE   C1A58625   0.459   8.599   4.224  0.0420  0.0891 -0.0609
 3064DPPE   C2A58626   0.356   8.993   4.271  0.1996  0.2820 -0.2714
 3064DPPE   C3A58627   0.171   9.409   4.504 -0.0581 -0.1574 -0.4158
 3064DPPE   C4A58628   0.228   9.784   4.878  0.2810  0.3616 -0.2327
 3064DPPE   C1B58629  -0.009   8.350   4.678 -0.1917 -0.2815 -0.0059
 3064DPPE   C2B58630   0.042   8.555   5.065  0.1081 -0.0652  0.2388
 3064DPPE   C3B58631   0.182   8.882   5.314  0.1083 -0.1380  0.1738
 3064DPPE   C4B58632  -0.211   9.229   5.524  0.1520 -0.3379 -0.0011
 3065DPPE   NH358633  15.507  14.617   4.121 -0.0340  0.1036  0.1916
 3065DPPE   PO458634  15.390  14.210   4.274 -0.3656 -0.3451 -0.3122
 3065DPPE   GL158635  15.085  14.516   4.515 -0.4078 -0.0404  0.0709
 3065DPPE   GL258636  15.026  14.771   4.300 -0.0963  0.0989  0.2896
 3065DPPE   C1A58637  14.699  14.570   4.598 -0.0054 -0.2053 -0.4437
 3065DPPE   C2A58638  14.428  14.947   4.678 -0.2280  0.0607 -0.2493
 3065DPPE   C3A58639  14.154  15.081   4.930  0.1846 -0.0401  0.2011
 3065DPPE   C4A58640  13.976  15.350   5.168  0.2673  0.3018 -0.2573
 3065DPPE   C1B58641  14.608  14.791   4.102  0.0850  0.0814 -0.0547
 3065DPPE   C2B58642  14.201  14.712   4.197  0.1082  0.0471  0.3333
 3065DPPE   C3B58643  13.892  14.887   4.544 -0.3500  0.0731  0.2374
 3065DPPE   C4B58644  13.634  14.997   4.944 -0.0925 -0.0377  0.3632
 3066DPPE   NH358645  14.618  14.038  14.970 -0.2195  0.0401  0.0069
 3066DPPE   PO458646  14.302  13.858  14.696  0.0439 -0.1574  0.1561
 3066DPPE   GL158647  14.053  14.096  14.365 -0.4124  0.0009  0.1583
 3066DPPE   GL258648  14.007  14.029  14.076  0.0973 -0.1784  0.0681
 3066DPPE   C1A58649  13.925  14.460  14.261 -0.0351 -0.1512 -0.3407
 3066DPPE   C2A58650  13.550  14.669  14.157  0.2060 -0.0388  0.1939
 3066DPPE   C3A58651  13.304  15.012  14.111 -0.0894  0.1285 -0.2361
 3066DPPE   C4A58652  12.952  15.180  14.125 -0.2342 -0.2944 -0.0540
 3066DPPE   C1B58653  13.650  14.253  13.800 -0.0932 -0.1413  0.1368
 3066DPPE   C2B58654  13.375  14.499  13.543 -0.3134 -0.3618 -0.0169
 3066DPPE   C3B58655  13.006  14.418  13.311 -0.2308 -0.1350 -0.0038
 3066DPPE   C4B58656  12.906  14.472  12.955  0.2606  0.3435  0.0864
 3067DPPE   NH358657   2.711   7.312   4.828  0.0447 -0.3157  0.3148
 3067DPPE   PO458658   2.301   7.441   4.767 -0.2773 -0.2851 -0.3259
 3067DPPE   GL158659   2.308   7.908   4.805  0.1891  0.1798 -0.1739
 3067DPPE   GL258660   2.344   8.159   4.490  0.0710  0.1711 -0.0575
 3067DPPE   C1A58661   2.520   8.263   4.928  0.0372  0.1955  0.1564
 3067DPPE   C2A58662   2.442   8.733   4.948  0.2844 -0.1896 -0.0855
 3067DPPE   C3A58663   2.351   9.193   5.043  0.1190  0.0513 -0.2425
 3067DPPE   C4A58664   2.018   9.454   5.014 -0.0358  0.0620  0.0680
 3067DPPE   C1B58665   2.090   8.372   4.791 -0.2203  0.0750 -0.1525
 3067DPPE   C2B58666   1.768   8.282   5.133 -0.0325  0.0405  0.0035
 3067DPPE   C3B58667   1.769   8.064   5.530 -0.2335  0.2949  0.2115
 3067DPPE   C4B58668   1.670   7.775   5.942 -0.1177  0.2460 -0.0111
 3068DPPE   NH358669  38.335  23.304  15.018 -0.1228 -0.0323 -0.0753
 3068DPPE   PO458670  38.455  23.539  15.327  0.0314  0.4968  0.1999
 3068DPPE   GL158671  38.217  23.622  15.474  0.1685 -0.1131 -0.0988
 3068DPPE   GL258672  37.960  23.603  15.349 -0.1007 -0.3284  0.2930
 3068DPPE   C1A58673  37.913  23.806  15.760  0.2211  0.1106  0.1628
 3068DPPE   C2A58674  37.474  23.883  15.869 -0.1532 -0.3194  0.3248
 3068DPPE   C3A58675  37.141  24.170  15.916 -0.1749 -0.1176  0.0077
 3068DPPE   C4A58676  36.841  24.358  15.922 -0.1095  0.0285  0.1563
 3068DPPE   C1B58677  37.504  23.728  15.363  0.0348 -0.0968 -0.0078
 3068DPPE   C2B58678  37.222  24.053  15.444  0.0246  0.1740 -0.2178
 3068DPPE   C3B58679  36.953  24.258  15.414 -0.2326 -0.0328 -0.2220
 3068DPPE   C4B58680  36.646  24.624  15.554  0.0693  0.0819 -0.0337
 3069DPPE   NH358681  15.329  25.269   2.263 -0.0147 -0.2622  0.1585
 3069DPPE   PO458682  15.538  24.986   2.128 -0.1757 -0.2773  0.0632
 3069DPPE   GL158683  15.305  24.663   2.312 -0.0510  0.1531 -0.0075
 3069DPPE   GL258684  14.928  24.520   2.185 -0.3135  0.1568  0.4932
 3069DPPE   C1A58685  15.136  24.544   2.720  0.4466  0.0137  0.0834
 3069DPPE   C2A58686  14.739  24.522   2.979 -0.2039 -0.0885 -0.1183
 3069DPPE   C3A58687  14.340  24.669   3.168  0.0829  0.2834  0.0696
 3069DPPE   C4A58688  13.849  24.743   3.315 -0.3984  0.0842 -0.0425
 3069DPPE   C1B58689  14.744  24.764   2.555 -0.0612 -0.2562  0.1289
 3069DPPE   C2B58690  14.332  24.998   2.528 -0.1365  0.1300 -0.0799
 3069DPPE   C3B58691  14.052  25.256   2.881  0.5841 -0.2442 -0.0416
 3069DPPE   C4B58692  13.649  25.120   3.005 -0.0224  0.0267  0.1515
 3070DPPE   NH358693  32.553  22.057  17.832  0.3310 -0.0213  0.0225
 3070DPPE   PO458694  32.117  22.349  17.641 -0.0862  0.0797  0.0789
 3070DPPE   GL158695  32.085  22.050  17.324  0.1506  0.2240  0.0348
 3070DPPE   GL258696  32.421  21.992  17.274  0.2887  0.0465  0.4053
 3070DPPE   C1A58697  32.052  21.660  17.105 -0.0938  0.0510  0.1728
 3070DPPE   C2A58698  32.059  21.617  16.696 -0.1807 -0.0364 -0.0598
 3070DPPE   C3A58699  31.709  21.619  16.373  0.0367 -0.2411 -0.3603
 3070DPPE   C4A58700  31.324  21.969  16.486  0.1205  0.1816  0.0116
 3070DPPE   C1B58701  32.680  21.685  17.212  0.0924  0.0551  0.2105
 3070DPPE   C2B58702  32.872  21.375  16.987  0.1527 -0.0299  0.1608
 3070DPPE   C3B58703  32.942  21.118  16.679 -0.0925 -0.1470  0.0500
 3070DPPE   C4B58704  33.272  21.013  16.441 -0.1124 -0.0427 -0.0016
 3071DPPE   NH358705  11.218  20.771  25.156 -0.0266 -0.1112  0.0854
 3071DPPE   PO458706  11.714  20.774  25.297 -0.1981 -0.0996  0.0746
 3071DPPE   GL158707  11.531  20.699  25.582  0.0466  0.0635  0.2731
 3071DPPE   GL258708  11.310  20.561  25.545 -0.1674 -0.2347  0.2532
 3071DPPE   C1A58709  11.707  20.730  26.122  0.0821  0.0986  0.0950
 3071DPPE   C2A58710  11.732  20.885  26.455 -0.0460 -0.2390 -0.1413
 3071DPPE   C3A58711  11.502  21.112  26.776  0.0308 -0.0086  0.0685
 3071DPPE   C4A58712  11.293  21.224  27.114  0.1280 -0.1958  0.2703
 3071DPPE   C1B58713  11.288  20.517  25.994 -0.1008  0.1475  0.2338
 3071DPPE   C2B58714  11.125  20.623  26.396 -0.0681 -0.2776  0.1456
 3071DPPE   C3B58715  11.034  20.746  26.865 -0.1890  0.2511 -0.0282
 3071DPPE   C4B58716  10.856  20.769  27.274  0.0254 -0.2173 -0.1080
 3072DPPE   NH358717   4.684  28.132  20.617  0.3157  0.0655  0.1161
 3072DPPE   PO458718   4.749  27.722  20.487  0.2280 -0.3851  0.0739
 3072DPPE   GL158719   4.815  27.460  20.188  0.1284 -0.1646  0.0677
 3072DPPE   GL258720   4.793  27.553  19.852  0.2625 -0.2640  0.1133
 3072DPPE   C1A58721   4.819  27.067  20.010  0.1048  0.2768  0.0792
 3072DPPE   C2A58722   4.856  26.764  19.681  0.3022  0.0971  0.4790
 3072DPPE   C3A58723   4.538  26.657  19.397 -0.1177  0.0814  0.1959
 3072DPPE   C4A58724   4.635  26.412  19.072  0.2045 -0.1880 -0.2145
 3072DPPE   C1B58725   4.964  27.313  19.560  0.0138 -0.2003  0.2973
 3072DPPE   C2B58726   5.267  26.972  19.565  0.4956  0.1753 -0.0159
 3072DPPE   C3B58727   5.468  26.814  19.182  0.1396  0.0952  0.2109
 3072DPPE   C4B58728   5.639  26.497  18.889 -0.0166  0.1042 -0.0024
 3073DPPE   NH358729  17.815  16.242   8.392  0.1628  0.0849 -0.2837
 3073DPPE   PO458730  18.045  15.983   8.725 -0.2626  0.2674  0.3702
 3073DPPE   GL158731  17.758  16.195   8.967  0.2575  0.1814  0.1411
 3073DPPE   GL258732  17.634  16.548   8.851  0.1011  0.1332  0.1537
 3073DPPE   C1A58733  17.468  16.019   9.156 -0.1291  0.0929  0.0369
 3073DPPE   C2A58734  17.226  16.147   9.410 -0.0444 -0.0253  0.1581
 3073DPPE   C3A58735  16.851  16.002   9.552  0.1632  0.0933 -0.1441
 3073DPPE   C4A58736  16.534  15.970   9.752  0.2749  0.0219 -0.1385
 3073DPPE   C1B58737  17.417  16.885   8.660 -0.0968 -0.0038 -0.2162
 3073DPPE   C2B58738  16.996  16.926   8.731 -0.1010 -0.4293  0.1332
 3073DPPE   C3B58739  16.721  17.055   8.302  0.1015 -0.0694  0.0307
 3073DPPE   C4B58740  16.489  17.023   7.881  0.1848 -0.0770  0.2692
 3074DPPE   NH358741   0.415  19.335  12.782 -0.2486 -0.0670 -0.3599
 3074DPPE   PO458742   0.698  19.078  12.978 -0.1044  0.0817 -0.0845
 3074DPPE   GL158743   0.358  18.964  13.228  0.2926  0.2353 -0.2230
 3074DPPE   GL258744   0.107  18.920  13.001 -0.1506  0.2557  0.0478
 3074DPPE   C1A58745   0.104  18.645  13.471  0.1544 -0.1905  0.2687
 3074DPPE   C2A58746   0.066  18.266  13.377  0.0463 -0.1928 -0.1637
 3074DPPE   C3A58747  -0.381  17.969  13.278  0.0480 -0.0001 -0.3213
 3074DPPE   C4A58748  -0.661  17.844  13.103  0.1728  0.3662  0.0565
 3074DPPE   C1B58749  -0.337  18.882  13.168 -0.1875  0.2044  0.0298
 3074DPPE   C2B58750  -0.472  18.651  13.573  0.0563 -0.0071  0.3031
 3074DPPE   C3B58751  -0.524  18.354  13.793 -0.3311 -0.1241 -0.1898
 3074DPPE   C4B58752  -0.659  17.987  14.085  0.0245  0.2527 -0.0489
 3075DPPE   NH358753  12.774  15.808  10.353 -0.2858  0.1000  0.0201
 3075DPPE   PO458754  12.717  15.505  10.093 -0.0157  0.1721 -0.2239
 3075DPPE   GL158755  12.721  15.111  10.228  0.1256 -0.2587 -0.0438
 3075DPPE   GL258756  12.553  14.811  10.301  0.1433 -0.3654  0.2569
 3075DPPE   C1A58757  13.061  14.904  10.476  0.0967  0.0589 -0.0907
 3075DPPE   C2A58758  13.312  14.676  10.768  0.2747  0.1831 -0.2028
 3075DPPE   C3A58759  13.593  14.535  11.032  0.1803  0.0590 -0.0019
 3075DPPE   C4A58760  13.960  14.275  11.209  0.2019 -0.0493 -0.5931
 3075DPPE   C1B58761  12.755  14.496  10.491  0.1789  0.3670  0.4956
 3075DPPE   C2B58762  12.737  14.090  10.269  0.2460  0.1594 -0.1601
 3075DPPE   C3B58763  13.094  13.833  10.104  0.2784  0.0875 -0.0718
 3075DPPE   C4B58764  13.458  13.521  10.297  0.1473 -0.1345 -0.3904
 3076DPPE   NH358765  12.278  32.035  10.186  0.2282  0.3703  0.2059
 3076DPPE   PO458766  11.900  32.259  10.210 -0.1355 -0.0816  0.2249
 3076DPPE   GL158767  11.641  31.929  10.034  0.0122 -0.1587 -0.0412
 3076DPPE   GL258768  11.865  31.708  10.071 -0.1920 -0.1438  0.1563
 3076DPPE   C1A58769  11.341  31.686  10.230 -0.2731 -0.0758  0.3291
 3076DPPE   C2A58770  11.124  31.208  10.359 -0.0854 -0.0017 -0.1807
 3076DPPE   C3A58771  10.751  31.016  10.451 -0.1016 -0.0876 -0.2068
 3076DPPE   C4A58772  10.395  30.673  10.517  0.2688  0.4213  0.0239
 3076DPPE   C1B58773  11.773  31.392  10.382 -0.1268  0.1213  0.0752
 3076DPPE   C2B58774  11.558  31.052  10.632  0.1742 -0.1017 -0.3193
 3076DPPE   C3B58775  11.643  30.854  11.045  0.1773 -0.1832  0.1529
 3076DPPE   C4B58776  11.738  30.761  11.413 -0.1431  0.0151 -0.2347
 3077DPPE   NH358777  37.947   8.587  16.669 -0.1228 -0.0768  0.1715
 3077DPPE   PO458778  37.770   8.586  16.411 -0.0759 -0.1608 -0.1695
 3077DPPE   GL158779  37.988   9.013  16.407 -0.0913 -0.1135  0.2445
 3077DPPE   GL258780  38.129   9.059  16.775 -0.1297 -0.0873  0.1406
 3077DPPE   C1A58781  38.266   9.264  16.088  0.0916 -0.0391  0.0984
 3077DPPE   C2A58782  38.371   9.674  15.997 -0.0514 -0.2012 -0.0158
 3077DPPE   C3A58783  38.807   9.793  15.870  0.1908 -0.0206 -0.1048
 3077DPPE   C4A58784  39.132   9.816  15.993 -0.1449 -0.2389 -0.1647
 3077DPPE   C1B58785  38.295   9.437  16.618 -0.1959 -0.1056  0.3750
 3077DPPE   C2B58786  38.239   9.919  16.419  0.0490  0.4340  0.1954
 3077DPPE   C3B58787  38.056  10.237  16.113  0.0674 -0.0004 -0.3231
 3077DPPE   C4B58788  37.881  10.410  15.743  0.1105  0.0050  0.0916
 3078DPPE   NH358789  35.225   8.717   6.706  0.0811  0.1510 -0.1303
 3078DPPE   PO458790  35.606   8.839   6.675 -0.3629  0.1040 -0.2929
 3078DPPE   GL158791  35.855   9.135   6.664  0.2971 -0.0023 -0.1754
 3078DPPE   GL258792  36.124   9.086   6.872  0.2698  0.0167 -0.1186
 3078DPPE   C1A58793  36.008   9.546   6.781 -0.1244  0.0592  0.1079
 3078DPPE   C2A58794  36.169   9.542   7.194  0.0536 -0.3578 -0.2993
 3078DPPE   C3A58795  36.474   9.668   7.444 -0.1780  0.0950  0.0990
 3078DPPE   C4A58796  36.879   9.845   7.541 -0.0834 -0.0652  0.2195
 3078DPPE   C1B58797  36.556   9.150   6.828 -0.0271  0.0084  0.0351
 3078DPPE   C2B58798  36.688   9.565   6.988 -0.0769 -0.0477  0.2478
 3078DPPE   C3B58799  37.000   9.824   7.002  0.1152  0.1811 -0.1791
 3078DPPE   C4B58800  37.134   9.511   7.183 -0.3413 -0.1182 -0.0357
 3079DPPE   NH358801   8.648  27.478  21.136  0.2945  0.2068 -0.0837
 3079DPPE   PO458802   8.900  27.225  21.257 -0.0576  0.0932 -0.0501
 3079DPPE   GL158803   8.874  26.724  21.126 -0.0789 -0.0187 -0.0945
 3079DPPE   GL258804   8.909  26.703  20.838  0.2341  0.1737  0.1979
 3079DPPE   C1A58805   9.075  26.271  21.001 -0.2180  0.0265 -0.1386
 3079DPPE   C2A58806   9.125  25.992  20.676  0.0343  0.0406  0.0514
 3079DPPE   C3A58807   9.341  26.135  20.372  0.0549 -0.3476 -0.0011
 3079DPPE   C4A58808   9.462  26.288  19.971  0.1493  0.0275  0.2357
 3079DPPE   C1B58809   8.930  26.901  20.381 -0.0486  0.1305  0.0363
 3079DPPE   C2B58810   8.872  27.026  19.977  0.2873 -0.3372  0.0662
 3079DPPE   C3B58811   8.911  26.767  19.702  0.2011  0.0223 -0.1351
 3079DPPE   C4B58812   9.403  26.706  19.685  0.0011 -0.2449  0.1970
 3080DPPE   NH358813   0.488  27.227  18.978 -0.3507 -0.2163 -0.2990
 3080DPPE   PO458814   0.714  27.580  19.175  0.0222 -0.1431 -0.0221
 3080DPPE   GL158815   0.973  27.450  18.820  0.1272  0.1059 -0.1490
 3080DPPE   GL258816   1.035  27.108  18.981  0.1330  0.0313  0.0673
 3080DPPE   C1A58817   1.404  27.452  18.535  0.1410 -0.0207  0.0411
 3080DPPE   C2A58818   1.660  27.618  18.203 -0.0255 -0.0339  0.3112
 3080DPPE   C3A58819   2.035  27.703  18.056  0.0127 -0.2222  0.1422
 3080DPPE   C4A58820   2.314  27.307  18.145  0.0965 -0.0138 -0.2498
 3080DPPE   C1B58821   1.371  26.894  18.652  0.0824 -0.0662 -0.1163
 3080DPPE   C2B58822   1.696  26.621  18.415 -0.0634 -0.0539 -0.0520
 3080DPPE   C3B58823   1.886  26.175  18.402 -0.1460  0.2389  0.1531
 3080DPPE   C4B58824   1.705  25.706  18.578 -0.1889  0.1914 -0.0367
 3081DPPE   NH358825  32.349  11.908  17.310 -0.0517  0.0281  0.3446
 3081DPPE   PO458826  32.538  12.320  17.169 -0.1308 -0.2603 -0.2576
 3081DPPE   GL158827  32.886  12.755  17.202  0.4513 -0.0827 -0.0167
 3081DPPE   GL258828  33.064  12.837  16.896 -0.0073  0.1661 -0.2661
 3081DPPE   C1A58829  33.049  13.287  17.209  0.2222  0.0694  0.2864
 3081DPPE   C2A58830  33.249  13.643  16.946  0.2028 -0.0179  0.1484
 3081DPPE   C3A58831  33.478  13.995  16.804 -0.3568  0.0438  0.1716
 3081DPPE   C4A58832  33.742  13.948  16.517  0.1488  0.0680  0.0827
 3081DPPE   C1B58833  33.550  12.907  16.758  0.1140  0.0701 -0.2240
 3081DPPE   C2B58834  33.570  13.002  16.356  0.1970 -0.2749  0.0881
 3081DPPE   C3B58835  33.587  13.292  15.929  0.3983 -0.3061 -0.1059
 3081DPPE   C4B58836  33.530  13.528  15.679  0.1678 -0.0637  0.2048
 3082DPPE   NH358837   5.919  26.307  25.847  0.1298  0.1522  0.1225
 3082DPPE   PO458838   5.828  26.720  26.060 -0.0062 -0.1824 -0.1401
 3082DPPE   GL158839   5.970  26.406  26.400  0.0360  0.2658 -0.0918
 3082DPPE   GL258840   5.749  26.368  26.540  0.4126 -0.0933  0.0705
 3082DPPE   C1A58841   6.214  26.123  26.849 -0.0578 -0.0595  0.2476
 3082DPPE   C2A58842   6.643  25.849  26.856  0.0876  0.2867 -0.0265
 3082DPPE   C3A58843   6.914  25.772  27.141  0.2667 -0.4425 -0.0786
 3082DPPE   C4A58844   6.789  25.736  27.657  0.0304 -0.0313  0.4061
 3082DPPE   C1B58845   5.636  26.143  26.780 -0.0137 -0.1259 -0.2258
 3082DPPE   C2B58846   5.836  25.912  27.224  0.1891 -0.0296 -0.2796
 3082DPPE   C3B58847   6.041  25.941  27.664 -0.0887  0.3675 -0.0264
 3082DPPE   C4B58848   6.113  25.670  27.903  0.2414 -0.0483 -0.3121
 3083DPPE   NH358849  31.424  21.066  17.795 -0.1637  0.2551 -0.2621
 3083DPPE   PO458850  31.592  21.260  18.182 -0.1079  0.1563  0.2673
 3083DPPE   GL158851  31.936  21.259  17.806  0.0346  0.1057 -0.2223
 3083DPPE   GL258852  31.851  21.157  17.590  0.1141 -0.1535  0.0398
 3083DPPE   C1A58853  32.281  21.422  17.518  0.0527  0.1289  0.1275
 3083DPPE   C2A58854  32.337  21.283  17.041  0.1350  0.1216 -0.2707
 3083DPPE   C3A58855  32.552  21.401  16.654 -0.2527 -0.1238 -0.3971
 3083DPPE   C4A58856  32.906  21.647  16.603  0.2512  0.0850  0.0561
 3083DPPE   C1B58857  31.884  20.734  17.448  0.1226 -0.0922 -0.0702
 3083DPPE   C2B58858  31.970  20.452  17.174 -0.0242  0.1147  0.2266
 3083DPPE   C3B58859  31.958  20.252  16.796 -0.0636 -0.2193 -0.1769
 3083DPPE   C4B58860  32.150  20.436  16.546 -0.1450 -0.1612 -0.3361
 3084DPPE   NH358861  15.649  19.767  18.496  0.1451 -0.0667  0.0116
 3084DPPE   PO458862  15.842  20.196  18.286  0.1595  0.2105 -0.0103
 3084DPPE   GL158863  15.450  20.143  18.135 -0.2132  0.3370  0.2484
 3084DPPE   GL258864  15.605  19.866  17.935 -0.1286 -0.0078 -0.2156
 3084DPPE   C1A58865  14.963  20.209  18.137 -0.2564  0.2502 -0.0384
 3084DPPE   C2A58866  14.564  20.265  17.918 -0.2254 -0.3542  0.2863
 3084DPPE   C3A58867  14.443  20.058  17.661  0.0644  0.1405  0.4555
 3084DPPE   C4A58868  14.286  19.617  17.609 -0.0730  0.3260 -0.2282
 3084DPPE   C1B58869  15.156  20.035  17.721  0.0368  0.1007  0.2208
 3084DPPE   C2B58870  14.908  20.294  17.533  0.1621 -0.1079 -0.0263
 3084DPPE   C3B58871  14.823  20.496  17.161  0.0916  0.0863  0.0885
 3084DPPE   C4B58872  14.582  20.823  17.101  0.1222  0.1773 -0.0950
 3085DPPE   NH358873   2.276   6.235  10.524  0.1198 -0.1353  0.2017
 3085DPPE   PO458874   1.923   6.410  10.919  0.1734 -0.0645 -0.2048
 3085DPPE   GL158875   1.875   6.856  11.107 -0.1394  0.2511  0.1172
 3085DPPE   GL258876   2.187   6.799  11.195  0.0770  0.0231  0.1406
 3085DPPE   C1A58877   1.881   7.218  11.308  0.2294 -0.0107 -0.2248
 3085DPPE   C2A58878   1.829   7.671  11.253  0.0559 -0.4504 -0.2420
 3085DPPE   C3A58879   1.763   8.120  11.399 -0.1044 -0.0129 -0.0031
 3085DPPE   C4A58880   2.097   8.438  11.539  0.1612  0.0803 -0.1273
 3085DPPE   C1B58881   2.307   7.129  11.484  0.0667 -0.2344 -0.2567
 3085DPPE   C2B58882   2.415   7.492  11.929 -0.2713 -0.1844 -0.2825
 3085DPPE   C3B58883   2.318   7.818  12.176  0.0301 -0.0348 -0.1178
 3085DPPE   C4B58884   2.144   7.885  12.529 -0.0132  0.2685  0.1073
 3086DPPE   NH358885  30.411  23.297   5.351  0.2728 -0.0303  0.2705
 3086DPPE   PO458886  30.510  22.880   5.061 -0.0454  0.0449 -0.1083
 3086DPPE   GL158887  30.941  22.675   5.120  0.2105 -0.1934  0.3204
 3086DPPE   GL258888  30.997  22.753   5.334 -0.1239  0.1055 -0.2208
 3086DPPE   C1A58889  31.373  22.496   5.164  0.0646 -0.2598 -0.2637
 3086DPPE   C2A58890  31.706  22.530   5.023 -0.0441  0.3133  0.0719
 3086DPPE   C3A58891  32.120  22.443   5.149  0.0877  0.0470  0.3760
 3086DPPE   C4A58892  32.433  22.192   5.185 -0.0639  0.1640  0.1395
 3086DPPE   C1B58893  31.133  22.802   5.712 -0.0038  0.1400 -0.1577
 3086DPPE   C2B58894  31.407  22.889   5.985 -0.0078  0.1028 -0.0993
 3086DPPE   C3B58895  31.741  22.868   6.037  0.1009  0.2466  0.0899
 3086DPPE   C4B58896  32.030  23.211   6.214  0.3823 -0.0527 -0.1284
 3087DPPE   NH358897  36.497  24.510  18.831 -0.2468 -0.0079  0.0142
 3087DPPE   PO458898  36.700  24.499  18.518 -0.0004  0.0560  0.2625
 3087DPPE   GL158899  36.896  24.325  18.327  0.2215 -0.0693 -0.1657
 3087DPPE   GL258900  36.917  24.616  18.067  0.2983  0.1173  0.1492
 3087DPPE   C1A58901  36.891  23.985  18.234  0.0365 -0.1492 -0.1688
 3087DPPE   C2A58902  37.086  23.509  18.238 -0.0923 -0.1427  0.0765
 3087DPPE   C3A58903  37.368  23.155  17.916  0.3169 -0.1084  0.1079
 3087DPPE   C4A58904  37.553  22.764  17.861  0.0376 -0.2417 -0.3000
 3087DPPE   C1B58905  37.209  24.657  17.731 -0.0488 -0.0950 -0.2137
 3087DPPE   C2B58906  37.525  24.521  17.539  0.1890  0.2051  0.0224
 3087DPPE   C3B58907  37.830  24.197  17.640 -0.0350 -0.1439  0.0462
 3087DPPE   C4B58908  38.035  24.010  17.426 -0.1779 -0.0373 -0.0694
 3088DPPE   NH358909   3.102  10.621   1.840 -0.0589 -0.2213 -0.0543
 3088DPPE   PO458910   3.135  10.904   1.441 -0.3874  0.3136  0.1122
 3088DPPE   GL158911   2.763  11.022   1.733 -0.0190  0.0393 -0.4186
 3088DPPE   GL258912   2.715  11.374   1.828 -0.2509 -0.1902  0.2847
 3088DPPE   C1A58913   2.504  10.781   2.026  0.0707  0.2563  0.1478
 3088DPPE   C2A58914   2.571  10.701   2.520  0.0624  0.3997 -0.1253
 3088DPPE   C3A58915   2.468  10.868   2.940  0.1867  0.0320  0.3923
 3088DPPE   C4A58916   2.298  11.166   3.171 -0.0019 -0.2624 -0.0073
 3088DPPE   C1B58917   2.866  11.382   2.295  0.2688  0.0818  0.3126
 3088DPPE   C2B58918   2.996  11.736   2.562  0.1794 -0.1065  0.3814
 3088DPPE   C3B58919   2.819  12.098   2.501 -0.5095 -0.3014  0.0149
 3088DPPE   C4B58920   2.454  12.098   2.521  0.1416 -0.2809  0.1715
 3089DPPE   NH358921  31.064  13.403  14.621 -0.3323 -0.2928 -0.1046
 3089DPPE   PO458922  31.223  13.648  14.770 -0.0495 -0.0420  0.1033
 3089DPPE   GL158923  31.465  13.963  14.616  0.0550  0.1692 -0.1623
 3089DPPE   GL258924  31.317  14.262  14.505  0.1214 -0.1956 -0.4463
 3089DPPE   C1A58925  31.880  14.148  14.592  0.4714 -0.1150 -0.2458
 3089DPPE   C2A58926  32.283  14.214  14.483 -0.2799  0.0387  0.1309
 3089DPPE   C3A58927  32.534  14.592  14.279  0.3597 -0.0304 -0.0030
 3089DPPE   C4A58928  32.854  14.819  13.993  0.5404 -0.0198 -0.4921
 3089DPPE   C1B58929  31.642  14.532  14.705  0.2485  0.2391 -0.0391
 3089DPPE   C2B58930  32.071  14.622  14.633 -0.3110 -0.0373 -0.1034
 3089DPPE   C3B58931  32.361  14.963  14.529  0.3946  0.2057 -0.1754
 3089DPPE   C4B58932  32.593  15.200  14.390  0.3713  0.1035  0.1187
 3090DPPE   NH358933  29.355  20.526  10.963  0.1402 -0.0285 -0.1759
 3090DPPE   PO458934  29.329  20.896  11.164 -0.1641  0.0926  0.0848
 3090DPPE   GL158935  29.595  21.155  11.131  0.1220  0.0928 -0.0339
 3090DPPE   GL258936  29.501  21.512  11.011  0.0904 -0.2632 -0.1525
 3090DPPE   C1A58937  29.943  21.208  10.922 -0.2668 -0.3277  0.2059
 3090DPPE   C2A58938  30.346  21.060  10.880 -0.0675 -0.1040 -0.0572
 3090DPPE   C3A58939  30.440  20.833  10.535 -0.2650  0.0302  0.0740
 3090DPPE   C4A58940  30.491  20.411  10.392 -0.0921  0.1294 -0.1652
 3090DPPE   C1B58941  29.968  21.609  11.126  0.4231 -0.1613  0.0234
 3090DPPE   C2B58942  30.322  21.474  11.225  0.3457 -0.1229  0.0512
 3090DPPE   C3B58943  30.695  21.427  11.063  0.0432  0.2003  0.0403
 3090DPPE   C4B58944  30.864  21.086  10.781 -0.0848 -0.3752  0.1576
 3091DPPE   NH358945  14.674  12.900   5.756 -0.5789  0.2556  0.0940
 3091DPPE   PO458946  14.704  12.911   5.348  0.1190  0.1200 -0.0237
 3091DPPE   GL158947  14.207  12.855   5.466  0.1529 -0.1014  0.3983
 3091DPPE   GL258948  14.088  13.121   5.278  0.1851  0.3580 -0.1411
 3091DPPE   C1A58949  13.829  13.009   5.685  0.2707 -0.0946  0.3245
 3091DPPE   C2A58950  13.411  13.125   5.961 -0.3910  0.2459 -0.4414
 3091DPPE   C3A58951  13.166  13.042   6.283  0.1826 -0.0152 -0.0206
 3091DPPE   C4A58952  13.001  13.263   6.680 -0.4062  0.3504 -0.1214
 3091DPPE   C1B58953  13.829  13.454   5.373  0.0745 -0.0501 -0.0657
 3091DPPE   C2B58954  13.486  13.706   5.537 -0.2407 -0.2397  0.1244
 3091DPPE   C3B58955  13.108  13.599   5.747  0.0421 -0.1018 -0.2945
 3091DPPE   C4B58956  12.984  13.460   6.129  0.0674  0.1114 -0.0144
 3092DPPE   NH358957  10.236  19.040  17.641 -0.1715 -0.2400 -0.1034
 3092DPPE   PO458958  10.622  18.944  17.362  0.1700  0.0203 -0.0474
 3092DPPE   GL158959  10.715  18.458  17.425 -0.1825 -0.1760 -0.0688
 3092DPPE   GL258960  10.538  18.347  17.730  0.2061  0.3821 -0.1704
 3092DPPE   C1A58961  10.989  18.256  17.576 -0.1274 -0.1522  0.0067
 3092DPPE   C2A58962  11.120  17.824  17.657  0.1237  0.0099 -0.1568
 3092DPPE   C3A58963  11.421  17.477  17.747  0.0130  0.2782 -0.1166
 3092DPPE   C4A58964  11.580  17.324  18.089  0.0343 -0.0296  0.0378
 3092DPPE   C1B58965  10.754  18.301  18.095  0.3183 -0.2344  0.3205
 3092DPPE   C2B58966  11.042  18.336  18.413  0.0050 -0.1691 -0.2728
 3092DPPE   C3B58967  11.459  18.557  18.443  0.1528 -0.1360 -0.1919
 3092DPPE   C4B58968  11.720  18.452  18.891  0.0152 -0.0498 -0.1783
 3093DPPE   NH358969   4.014  10.826   2.324 -0.3948 -0.2389  0.3737
 3093DPPE   PO458970   3.691  10.514   2.452 -0.1325  0.1772  0.0634
 3093DPPE   GL158971   3.324  10.519   2.737  0.1070 -0.5776 -0.1667
 3093DPPE   GL258972   3.405  10.855   2.859 -0.0855  0.0005 -0.0377
 3093DPPE   C1A58973   2.948  10.528   2.723 -0.2410 -0.1486 -0.1021
 3093DPPE   C2A58974   2.635  10.228   2.689 -0.1346  0.2294  0.2585
 3093DPPE   C3A58975   2.490  10.027   3.048  0.0755 -0.0063 -0.0378
 3093DPPE   C4A58976   2.577   9.940   3.408 -0.1329  0.2586  0.0268
 3093DPPE   C1B58977   3.225  11.288   3.072  0.0057  0.0225 -0.2426
 3093DPPE   C2B58978   3.176  11.450   3.507 -0.0553 -0.0488  0.0083
 3093DPPE   C3B58979   3.314  11.807   3.731  0.1697 -0.0597  0.3343
 3093DPPE   C4B58980   3.834  11.899   3.664 -0.0204  0.6646 -0.2540
 3094DPPE   NH358981   3.014  20.635  25.197 -0.1635  0.1394 -0.1367
 3094DPPE   PO458982   3.060  20.201  25.285 -0.2120  0.2324  0.0452
 3094DPPE   GL158983   3.255  20.282  25.594  0.0785  0.2120  0.4244
 3094DPPE   GL258984   3.140  20.585  25.718 -0.2450 -0.0228  0.1227
 3094DPPE   C1A58985   3.673  20.204  25.817  0.1165  0.1724 -0.1278
 3094DPPE   C2A58986   3.930  19.850  26.074  0.0967  0.1307  0.1827
 3094DPPE   C3A58987   3.608  19.494  26.150  0.2194 -0.0631  0.2773
 3094DPPE   C4A58988   3.480  19.233  26.569 -0.2851 -0.1749  0.1191
 3094DPPE   C1B58989   3.345  20.505  26.059 -0.1505 -0.0155 -0.1570
 3094DPPE   C2B58990   3.758  20.374  26.370 -0.0193  0.3122  0.1320
 3094DPPE   C3B58991   4.086  20.455  26.560  0.2628  0.1518 -0.1002
 3094DPPE   C4B58992   4.283  20.718  26.803 -0.1842  0.2916  0.2369
 3095DPPE   NH358993  19.484  19.838   9.485  0.1376  0.0517 -0.0002
 3095DPPE   PO458994  19.331  20.143   9.122  0.0386  0.1915 -0.1731
 3095DPPE   GL158995  18.946  20.240   9.231  0.0054  0.2935  0.2283
 3095DPPE   GL258996  18.771  20.036   9.607  0.2250 -0.2361 -0.4192
 3095DPPE   C1A58997  18.633  20.130   9.082 -0.0344 -0.0235 -0.0893
 3095DPPE   C2A58998  18.295  19.900   9.069 -0.0976 -0.2852  0.0683
 3095DPPE   C3A58999  17.902  19.993   8.910  0.1224  0.0289  0.0785
 3095DPPE   C4A59000  17.759  19.816   8.530 -0.2239  0.0304  0.6030
 3095DPPE   C1B59001  18.209  20.025   9.615 -0.3137 -0.1807 -0.1200
 3095DPPE   C2B59002  17.814  20.079   9.388  0.2416  0.1748  0.0172
 3095DPPE   C3B59003  17.523  20.284   9.141 -0.0258  0.0569  0.0017
 3095DPPE   C4B59004  17.457  20.266   8.664 -0.0262  0.0383 -0.1183
 3096DPPE   NH359005  30.991  25.434   8.191 -0.2241  0.0767 -0.0772
 3096DPPE   PO459006  31.304  25.585   7.804  0.1596  0.0714 -0.1022
 3096DPPE   GL159007  31.451  25.237   7.998  0.0256 -0.1809  0.3644
 3096DPPE   GL259008  31.594  25.043   7.832 -0.0028 -0.1506 -0.2333
 3096DPPE   C1A59009  31.559  25.085   8.417 -0.0178 -0.1990  0.1303
 3096DPPE   C2A59010  31.873  24.824   8.642 -0.1347 -0.2777 -0.0759
 3096DPPE   C3A59011  32.291  24.644   8.661 -0.1266 -0.1345  0.0761
 3096DPPE   C4A59012  32.576  24.288   8.548 -0.0811 -0.2736  0.1708
 3096DPPE   C1B59013  32.013  25.113   7.871 -0.0600  0.2903  0.0506
 3096DPPE   C2B59014  32.205  24.937   8.218 -0.2361  0.1302  0.1154
 3096DPPE   C3B59015  32.459  24.559   8.140 -0.0697  0.1295  0.3941
 3096DPPE   C4B59016  32.726  24.270   8.099  0.1282 -0.2841 -0.3759
 3097DPPE   NH359017  17.886  22.781   3.606  0.1685 -0.0381 -0.1255
 3097DPPE   PO459018  17.580  22.766   3.256 -0.0565 -0.1118  0.2995
 3097DPPE   GL159019  17.365  22.581   3.551  0.1040 -0.0146  0.0381
 3097DPPE   GL259020  17.310  22.277   3.511  0.1957 -0.2028  0.3196
 3097DPPE   C1A59021  16.924  22.586   3.685 -0.1197 -0.0715 -0.3349
 3097DPPE   C2A59022  16.680  22.365   4.071  0.0570 -0.2352  0.0742
 3097DPPE   C3A59023  16.459  22.427   4.404 -0.1704  0.3035  0.1732
 3097DPPE   C4A59024  16.071  22.649   4.639  0.2117 -0.3171 -0.0377
 3097DPPE   C1B59025  17.300  21.759   3.443  0.0496 -0.1555 -0.0868
 3097DPPE   C2B59026  17.205  21.510   3.861 -0.0798  0.2283  0.1481
 3097DPPE   C3B59027  17.182  21.078   3.838 -0.0561 -0.1124  0.4531
 3097DPPE   C4B59028  17.003  20.894   3.490 -0.4999 -0.0617  0.1027
 3098DPPE   NH359029  10.923  26.767   7.243  0.0168 -0.0872 -0.2136
 3098DPPE   PO459030  11.295  26.998   7.086 -0.1099 -0.0507  0.0467
 3098DPPE   GL159031  11.771  27.091   7.161  0.0842  0.3105 -0.1005
 3098DPPE   GL259032  11.912  26.852   7.105  0.3727 -0.0855 -0.2388
 3098DPPE   C1A59033  12.185  27.266   7.119 -0.3095 -0.3812  0.1452
 3098DPPE   C2A59034  12.528  27.571   7.235 -0.6244 -0.0899 -0.0017
 3098DPPE   C3A59035  12.749  27.953   7.060  0.1747  0.0361  0.0909
 3098DPPE   C4A59036  13.105  28.212   6.957  0.2558  0.1774 -0.1656
 3098DPPE   C1B59037  12.261  26.750   7.088  0.2151  0.2084 -0.0994
 3098DPPE   C2B59038  12.759  26.752   7.050  0.1946  0.2577 -0.0885
 3098DPPE   C3B59039  13.159  26.984   6.977 -0.4216 -0.0887  0.1312
 3098DPPE   C4B59040  13.472  27.217   6.662  0.1142  0.1515 -0.2223
 3099DPPE   NH359041  11.263  24.641  21.506  0.1941 -0.2356 -0.2597
 3099DPPE   PO459042  11.656  24.493  21.716  0.1722 -0.0763 -0.0979
 3099DPPE   GL159043  11.659  24.278  21.263 -0.1804  0.1758  0.0063
 3099DPPE   GL259044  11.869  24.047  21.122 -0.0155  0.1373  0.0049
 3099DPPE   C1A59045  11.339  24.192  20.941 -0.0149 -0.1840 -0.1618
 3099DPPE   C2A59046  11.288  24.186  20.507 -0.1817 -0.0929 -0.0480
 3099DPPE   C3A59047  11.296  24.091  20.188 -0.0422  0.1922  0.4316
 3099DPPE   C4A59048  11.177  23.623  20.023  0.0225  0.0917  0.0531
 3099DPPE   C1B59049  11.521  23.726  21.211  0.1644  0.3262  0.0765
 3099DPPE   C2B59050  11.127  23.425  21.079  0.2669 -0.1048  0.1211
 3099DPPE   C3B59051  10.736  23.375  20.896  0.3655  0.1125  0.1377
 3099DPPE   C4B59052  10.297  23.475  20.804  0.2180 -0.2345 -0.0543
 3100DPPE   NH359053  19.096  25.278  11.605 -0.0801 -0.0747  0.0347
 3100DPPE   PO459054  18.662  25.138  11.567 -0.1099  0.0730  0.1333
 3100DPPE   GL159055  18.259  24.969  11.758  0.2492  0.3430  0.0645
 3100DPPE   GL259056  18.250  24.739  12.089  0.3497 -0.1782 -0.1085
 3100DPPE   C1A59057  17.981  24.674  11.597  0.1904  0.0471 -0.2522
 3100DPPE   C2A59058  18.090  24.361  11.354 -0.2895  0.1769 -0.0712
 3100DPPE   C3A59059  18.129  23.986  11.251  0.3639  0.1769 -0.1097
 3100DPPE   C4A59060  17.954  23.751  10.889 -0.0372  0.1068  0.0925
 3100DPPE   C1B59061  18.239  24.332  11.926 -0.1593  0.0744 -0.0741
 3100DPPE   C2B59062  17.914  23.940  11.770  0.1879  0.0082 -0.1699
 3100DPPE   C3B59063  17.512  23.735  11.797 -0.1135  0.2251  0.1148
 3100DPPE   C4B59064  17.073  23.672  11.557  0.1099  0.3421 -0.1005
 3101DPPE   NH359065   0.177  29.865  16.056 -0.1583 -0.0536  0.1434
 3101DPPE   PO459066   0.397  29.650  16.417 -0.1187 -0.0998 -0.1508
 3101DPPE   GL159067   0.312  29.341  16.194 -0.1858 -0.0529  0.1179
 3101DPPE   GL259068   0.372  29.127  16.420 -0.0295  0.2315 -0.3807
 3101DPPE   C1A59069   0.558  29.267  15.787 -0.1199  0.1569  0.1012
 3101DPPE   C2A59070   1.105  29.139  15.821  0.0007 -0.1940 -0.0894
 3101DPPE   C3A59071   1.440  28.736  15.899  0.0922  0.1964 -0.0663
 3101DPPE   C4A59072   1.699  28.416  16.043  0.0052 -0.0294  0.2849
 3101DPPE   C1B59073   0.718  29.106  16.332 -0.2716 -0.0509 -0.4014
 3101DPPE   C2B59074   1.087  29.284  16.381 -0.2740 -0.1917  0.1354
 3101DPPE   C3B59075   1.473  29.087  16.274  0.0783 -0.0189 -0.1685
 3101DPPE   C4B59076   1.861  29.217  16.188 -0.2045  0.0712 -0.1299
 3102DPPE   NH359077  34.678   9.474   6.259  0.1227 -0.0229 -0.0812
 3102DPPE   PO459078  34.906   9.085   6.318 -0.1338 -0.2571 -0.0233
 3102DPPE   GL159079  35.179   9.315   6.580  0.0356 -0.0009 -0.1425
 3102DPPE   GL259080  35.348   9.191   6.855  0.2968 -0.0995 -0.0433
 3102DPPE   C1A59081  35.473   9.646   6.601 -0.0210 -0.2632 -0.0345
 3102DPPE   C2A59082  35.543  10.022   6.559 -0.0616 -0.2273 -0.0276
 3102DPPE   C3A59083  35.195  10.305   6.471  0.2627  0.1506  0.0019
 3102DPPE   C4A59084  35.116  10.517   6.074  0.1967 -0.1251  0.1979
 3102DPPE   C1B59085  35.584   9.316   7.087  0.0413 -0.2677 -0.0325
 3102DPPE   C2B59086  35.658   9.563   7.455  0.1097  0.4001 -0.0114
 3102DPPE   C3B59087  35.613   9.931   7.597  0.0195 -0.1325  0.2788
 3102DPPE   C4B59088  35.732  10.325   7.348 -0.2611 -0.3903  0.0622
 3103DPPE   NH359089  34.270  24.373   2.548 -0.2398  0.0868 -0.1875
 3103DPPE   PO459090  34.674  24.122   2.404  0.0756  0.1074  0.2211
 3103DPPE   GL159091  34.564  23.824   2.667 -0.1688 -0.2478 -0.2894
 3103DPPE   GL259092  34.428  23.993   2.892 -0.0056  0.2142 -0.1370
 3103DPPE   C1A59093  34.683  23.512   2.724 -0.1542 -0.3707 -0.2584
 3103DPPE   C2A59094  34.859  23.074   2.569 -0.2008 -0.1316  0.0215
 3103DPPE   C3A59095  34.874  22.744   2.405 -0.1399  0.0249  0.1096
 3103DPPE   C4A59096  34.808  22.326   2.232  0.0438 -0.2708  0.0818
 3103DPPE   C1B59097  34.794  23.841   3.153  0.1963  0.0739 -0.0550
 3103DPPE   C2B59098  35.222  23.880   3.525  0.0680  0.2247 -0.1200
 3103DPPE   C3B59099  35.184  23.822   3.882 -0.2110 -0.0614 -0.1313
 3103DPPE   C4B59100  35.509  23.560   4.107  0.1385 -0.0699  0.4403
 3104DPPE   NH359101   3.354  19.207  22.871  0.1612 -0.0596 -0.0148
 3104DPPE   PO459102   3.244  19.589  22.654  0.1427  0.0930  0.0033
 3104DPPE   GL159103   3.598  19.411  22.336  0.2902 -0.0763 -0.2044
 3104DPPE   GL259104   3.700  19.205  22.018  0.0519  0.0098 -0.2515
 3104DPPE   C1A59105   3.928  19.649  22.253 -0.1607  0.1297 -0.0656
 3104DPPE   C2A59106   4.098  19.865  21.909 -0.1945  0.2453  0.0362
 3104DPPE   C3A59107   4.276  19.930  21.447  0.1374  0.2478 -0.1105
 3104DPPE   C4A59108   4.290  19.849  20.976  0.1156 -0.1310  0.1078
 3104DPPE   C1B59109   3.587  19.684  21.853 -0.2081  0.3064 -0.1715
 3104DPPE   C2B59110   3.748  20.041  21.594 -0.2566  0.0783 -0.0232
 3104DPPE   C3B59111   3.890  20.426  21.408 -0.2319 -0.0927 -0.2060
 3104DPPE   C4B59112   3.755  20.749  21.272 -0.2829  0.0606 -0.2007
 3105DPPE   NH359113  37.437   7.232   7.327  0.0021 -0.2985  0.1224
 3105DPPE   PO459114  37.725   6.865   7.249  0.0797 -0.0082  0.2888
 3105DPPE   GL159115  37.943   7.159   7.414 -0.1989  0.0057  0.0881
 3105DPPE   GL259116  37.884   7.392   7.211  0.0969  0.0896  0.1464
 3105DPPE   C1A59117  38.024   7.396   7.777 -0.1120  0.1534 -0.1336
 3105DPPE   C2A59118  38.406   7.554   7.958  0.1124  0.0891  0.0261
 3105DPPE   C3A59119  38.653   7.922   7.821 -0.1735 -0.1838 -0.0349
 3105DPPE   C4A59120  38.638   8.305   7.764  0.1165 -0.5386  0.0233
 3105DPPE   C1B59121  37.751   7.757   7.413 -0.1125  0.0974 -0.2322
 3105DPPE   C2B59122  37.923   8.154   7.339 -0.0495 -0.0538 -0.0068
 3105DPPE   C3B59123  38.225   8.479   7.216  0.0531 -0.3089  0.0548
 3105DPPE   C4B59124  38.648   8.584   7.363  0.1757 -0.0377 -0.2057
 3106DPPE   NH359125  38.024  23.024   6.934 -0.2444 -0.0007  0.1912
 3106DPPE   PO459126  38.214  23.000   7.388  0.2731  0.1343  0.0785
 3106DPPE   GL159127  37.837  22.978   7.370  0.0921  0.1621 -0.0514
 3106DPPE   GL259128  37.575  23.007   7.621  0.1133  0.1951 -0.0930
 3106DPPE   C1A59129  37.451  23.085   7.108 -0.5148 -0.0854 -0.2229
 3106DPPE   C2A59130  37.232  23.013   6.741 -0.1079 -0.3589 -0.0630
 3106DPPE   C3A59131  37.101  22.890   6.322 -0.4216  0.0379 -0.0246
 3106DPPE   C4A59132  37.011  22.521   6.040  0.2908 -0.1387 -0.3595
 3106DPPE   C1B59133  37.168  22.865   7.514 -0.1210  0.2288  0.0725
 3106DPPE   C2B59134  36.968  22.960   7.153  0.5832  0.3295  0.0249
 3106DPPE   C3B59135  36.710  22.721   7.054 -0.1734  0.2653 -0.1391
 3106DPPE   C4B59136  36.297  22.605   7.259  0.3004 -0.3485 -0.2540
 3107DPPE   NH359137  10.262  26.290   0.412  0.0866  0.2364 -0.0700
 3107DPPE   PO459138   9.864  26.303   0.272  0.1160 -0.0269  0.1307
 3107DPPE   GL159139   9.645  25.924   0.478 -0.1906 -0.0282 -0.2620
 3107DPPE   GL259140   9.780  25.996   0.835 -0.1609 -0.1549 -0.3419
 3107DPPE   C1A59141   9.456  25.506   0.609  0.1733 -0.0180 -0.1205
 3107DPPE   C2A59142   9.485  25.250   1.039  0.0054  0.0303 -0.3353
 3107DPPE   C3A59143   9.691  25.179   1.322  0.3934 -0.0700 -0.2871
 3107DPPE   C4A59144   9.705  25.371   1.678 -0.0273  0.3364  0.0982
 3107DPPE   C1B59145   9.513  25.686   1.212  0.1786 -0.0728 -0.1805
 3107DPPE   C2B59146   9.261  25.745   1.458 -0.0540  0.0941 -0.1492
 3107DPPE   C3B59147   9.389  25.741   1.920 -0.1434  0.2233 -0.1939
 3107DPPE   C4B59148   9.234  26.118   2.229  0.0728 -0.1579  0.1369
 3108DPPE   NH359149   7.067  13.697  13.213 -0.0512  0.1294 -0.2727
 3108DPPE   PO459150   6.767  13.571  13.455 -0.3057  0.0872  0.1585
 3108DPPE   GL159151   6.532  13.253  13.570  0.0154 -0.0337 -0.0955
 3108DPPE   GL259152   6.551  13.083  13.281  0.2132  0.1879  0.1299
 3108DPPE   C1A59153   6.570  12.824  13.706 -0.0597 -0.1863  0.0865
 3108DPPE   C2A59154   6.622  12.520  13.533  0.1919 -0.0156  0.0220
 3108DPPE   C3A59155   6.553  12.225  13.284  0.1243  0.0167 -0.0301
 3108DPPE   C4A59156   6.713  11.946  13.071 -0.2295  0.3131 -0.0913
 3108DPPE   C1B59157   6.276  12.726  13.252 -0.2840  0.0847 -0.1135
 3108DPPE   C2B59158   6.080  12.290  13.239  0.0972  0.0957 -0.0776
 3108DPPE   C3B59159   6.210  11.815  13.169 -0.1160 -0.1535  0.0066
 3108DPPE   C4B59160   6.530  11.557  13.342  0.1354 -0.1107 -0.1062
 3109DPPE   NH359161   2.530  32.405   6.617  0.3595  0.1809  0.0030
 3109DPPE   PO459162   2.361  32.239   7.099 -0.0670 -0.0755 -0.1442
 3109DPPE   GL159163   2.413  31.875   7.368  0.1391  0.1785  0.0771
 3109DPPE   GL259164   2.231  31.777   7.703 -0.1121 -0.1893 -0.1965
 3109DPPE   C1A59165   2.532  31.415   7.378 -0.0518  0.1446  0.1269
 3109DPPE   C2A59166   2.577  30.937   7.317 -0.2510  0.0631  0.1215
 3109DPPE   C3A59167   2.505  30.582   7.441  0.0219  0.0086  0.1692
 3109DPPE   C4A59168   2.483  30.159   7.323  0.1212 -0.2257 -0.3964
 3109DPPE   C1B59169   2.721  31.638   7.766  0.1288 -0.3255  0.2949
 3109DPPE   C2B59170   3.051  31.314   7.717  0.0962 -0.2377 -0.0899
 3109DPPE   C3B59171   3.391  31.079   7.764  0.0943  0.0859  0.1398
 3109DPPE   C4B59172   3.616  30.679   7.846  0.0426  0.0390 -0.0652
 3110DPPE   NH359173   1.664  21.398  25.955 -0.3715  0.0154 -0.0579
 3110DPPE   PO459174   1.583  21.824  25.879 -0.1914  0.1407 -0.1868
 3110DPPE   GL159175   1.855  21.729  26.287 -0.0440  0.0038 -0.0990
 3110DPPE   GL259176   2.024  21.366  26.338  0.1320  0.0535  0.5621
 3110DPPE   C1A59177   2.282  21.736  26.464 -0.0169 -0.2578  0.2759
 3110DPPE   C2A59178   2.352  21.599  26.820 -0.0301 -0.1831  0.1048
 3110DPPE   C3A59179   2.584  21.269  26.973  0.2970 -0.3855  0.1671
 3110DPPE   C4A59180   2.655  20.933  27.238  0.0499  0.0424 -0.1108
 3110DPPE   C1B59181   2.297  21.104  26.580  0.1932 -0.1880  0.1942
 3110DPPE   C2B59182   2.284  20.800  26.916 -0.2921  0.2396  0.0718
 3110DPPE   C3B59183   2.457  20.451  27.234  0.0539  0.0403  0.0987
 3110DPPE   C4B59184   2.414  20.044  27.366 -0.0739 -0.1473 -0.0841
 3111DPPE   NH359185   4.323  29.915   2.630  0.1583  0.0630  0.4225
 3111DPPE   PO459186   3.953  29.939   2.962  0.4237  0.2637  0.1358
 3111DPPE   GL159187   3.934  29.604   3.229 -0.1217 -0.3338 -0.2167
 3111DPPE   GL259188   3.697  29.525   3.155 -0.0370  0.1778  0.0666
 3111DPPE   C1A59189   4.241  29.215   3.320  0.1162 -0.1039  0.0211
 3111DPPE   C2A59190   4.365  28.821   3.425  0.4284 -0.0517 -0.0133
 3111DPPE   C3A59191   4.561  28.655   3.695 -0.2019  0.1115 -0.1190
 3111DPPE   C4A59192   4.829  28.749   3.960  0.0164 -0.1703  0.2490
 3111DPPE   C1B59193   3.556  29.128   3.265  0.0956  0.0451 -0.1085
 3111DPPE   C2B59194   3.580  28.729   3.404  0.0732 -0.0025  0.0853
 3111DPPE   C3B59195   3.728  28.541   3.625 -0.0850 -0.0988  0.1269
 3111DPPE   C4B59196   3.869  28.397   3.992  0.1217 -0.1745 -0.0061
 3112DPPE   NH359197  29.975  15.335  15.383 -0.0205  0.1552  0.0466
 3112DPPE   PO459198  30.213  15.741  15.419 -0.2540 -0.1355 -0.3781
 3112DPPE   GL159199  30.388  15.697  15.069 -0.1949 -0.3246 -0.3214
 3112DPPE   GL259200  30.346  15.975  14.814  0.0108 -0.3343  0.1014
 3112DPPE   C1A59201  30.818  15.863  14.890  0.1539 -0.2364 -0.0553
 3112DPPE   C2A59202  31.268  16.035  14.899 -0.0031 -0.2964  0.0211
 3112DPPE   C3A59203  31.462  16.291  15.203  0.2564  0.2013  0.2354
 3112DPPE   C4A59204  31.676  16.632  15.146  0.2351 -0.3631 -0.0422
 3112DPPE   C1B59205  30.668  16.322  14.656  0.0509 -0.2483 -0.4910
 3112DPPE   C2B59206  31.086  16.501  14.599 -0.4278 -0.1273  0.0402
 3112DPPE   C3B59207  31.526  16.435  14.727  0.2196  0.1959  0.3183
 3112DPPE   C4B59208  31.897  16.352  14.602 -0.2050  0.3257 -0.1571
 3113DPPE   NH359209   7.153   9.148  10.303  0.2190  0.1234  0.1351
 3113DPPE   PO459210   7.190   8.936   9.985  0.0193 -0.2308  0.2393
 3113DPPE   GL159211   7.410   9.333   9.753 -0.1187 -0.0559 -0.0375
 3113DPPE   GL259212   7.235   9.431   9.405 -0.0625 -0.0841  0.0609
 3113DPPE   C1A59213   7.588   9.656   9.729 -0.3769 -0.1255 -0.0026
 3113DPPE   C2A59214   7.733  10.118   9.701 -0.3022  0.0463 -0.0656
 3113DPPE   C3A59215   7.341  10.292   9.509 -0.1859 -0.3045 -0.0700
 3113DPPE   C4A59216   6.961  10.529   9.574 -0.1144  0.0382  0.0713
 3113DPPE   C1B59217   7.350   9.861   9.273  0.0619 -0.1503 -0.0199
 3113DPPE   C2B59218   7.161  10.258   9.033  0.0007  0.1431 -0.0554
 3113DPPE   C3B59219   7.203  10.506   8.630 -0.0727  0.2191 -0.0927
 3113DPPE   C4B59220   7.253  10.727   8.253  0.3145  0.0395  0.1640
 3114DPPE   NH359221  30.568  16.290   6.629 -0.0377 -0.1821  0.0366
 3114DPPE   PO459222  30.806  16.059   6.348 -0.1339  0.0251  0.0352
 3114DPPE   GL159223  31.155  16.118   6.356 -0.0817 -0.3036  0.1302
 3114DPPE   GL259224  31.384  16.042   6.103  0.2670 -0.1308 -0.2431
 3114DPPE   C1A59225  31.510  15.933   6.690  0.2563 -0.0140 -0.0981
 3114DPPE   C2A59226  31.804  16.134   6.818  0.1063  0.3687 -0.1135
 3114DPPE   C3A59227  32.060  16.177   7.169  0.1392 -0.1630 -0.1454
 3114DPPE   C4A59228  32.337  15.981   7.403 -0.2114 -0.1890 -0.4096
 3114DPPE   C1B59229  31.614  16.306   6.340 -0.0366 -0.2205  0.0215
 3114DPPE   C2B59230  31.984  16.554   6.252 -0.1182 -0.1402  0.1506
 3114DPPE   C3B59231  32.385  16.464   6.442  0.1729 -0.2725  0.1171
 3114DPPE   C4B59232  32.427  16.384   6.851  0.1382  0.0752  0.1062
 3115DPPE   NH359233   1.093   9.667   1.496  0.0311  0.0206 -0.2997
 3115DPPE   PO459234   0.940   9.499   1.803 -0.1000  0.0904  0.1329
 3115DPPE   GL159235   0.701   9.779   2.120 -0.1014 -0.0614  0.0122
 3115DPPE   GL259236   0.458   9.892   2.045  0.2253  0.1471  0.0308
 3115DPPE   C1A59237   0.583  10.133   2.464 -0.4295 -0.0764 -0.3278
 3115DPPE   C2A59238   0.343  10.324   2.842 -0.0645 -0.2546  0.2153
 3115DPPE   C3A59239   0.447  10.428   3.240  0.1130 -0.4285  0.2076
 3115DPPE   C4A59240   0.557  10.782   3.469  0.1398  0.0852  0.0733
 3115DPPE   C1B59241   0.259  10.254   2.199 -0.1689  0.1507  0.0127
 3115DPPE   C2B59242   0.098  10.544   2.439 -0.3678 -0.0113 -0.2674
 3115DPPE   C3B59243  -0.007  10.964   2.597  0.1483  0.1485 -0.2692
 3115DPPE   C4B59244   0.279  11.328   2.714 -0.3478  0.1767 -0.0505
 3116DPPE   NH359245  32.531  20.415  19.240 -0.1608  0.0344  0.1032
 3116DPPE   PO459246  32.316  20.132  18.905 -0.2313  0.0550  0.1001
 3116DPPE   GL159247  32.311  19.734  18.859 -0.3710  0.3288  0.0740
 3116DPPE   GL259248  32.133  19.554  18.596 -0.1082 -0.0083  0.3166
 3116DPPE   C1A59249  32.761  19.494  18.747 -0.0785  0.1372 -0.0238
 3116DPPE   C2A59250  33.040  19.686  18.475 -0.0061 -0.2214 -0.0160
 3116DPPE   C3A59251  33.560  19.763  18.578  0.3582  0.0186  0.0081
 3116DPPE   C4A59252  33.869  19.860  18.340 -0.0835  0.0615 -0.3256
 3116DPPE   C1B59253  32.554  19.613  18.311 -0.0124 -0.3454 -0.1946
 3116DPPE   C2B59254  32.790  19.912  18.069  0.0901  0.2418  0.0247
 3116DPPE   C3B59255  32.618  20.236  17.940  0.1581  0.2320 -0.0786
 3116DPPE   C4B59256  32.675  20.646  17.799  0.2201  0.1499  0.0294
 3117DPPE   NH359257   9.092  32.353  13.509  0.0409 -0.0426 -0.2936
 3117DPPE   PO459258   8.748  32.720  13.464  0.0229  0.0637  0.0817
 3117DPPE   GL159259   8.507  32.258  13.340  0.0470  0.0519  0.0246
 3117DPPE   GL259260   8.740  32.312  12.992 -0.3619  0.0834 -0.0939
 3117DPPE   C1A59261   8.147  32.060  13.286 -0.0291 -0.0847  0.1294
 3117DPPE   C2A59262   8.093  31.646  13.164  0.1241  0.0606 -0.1802
 3117DPPE   C3A59263   8.036  31.234  13.191  0.0490  0.2877 -0.0048
 3117DPPE   C4A59264   8.182  30.864  13.157 -0.3273 -0.2891  0.0620
 3117DPPE   C1B59265   8.665  31.793  13.251  0.2536  0.1155 -0.1516
 3117DPPE   C2B59266   9.044  31.500  13.144  0.2173 -0.5246  0.0976
 3117DPPE   C3B59267   9.326  31.102  13.058  0.0924  0.1980 -0.0727
 3117DPPE   C4B59268   9.691  31.096  12.818 -0.3274  0.2831 -0.3782
 3118DPPE   NH359269  31.593  19.158  19.000  0.0865  0.2028 -0.0627
 3118DPPE   PO459270  31.670  19.508  18.749  0.0260 -0.2263 -0.2793
 3118DPPE   GL159271  31.791  19.301  18.283  0.2795  0.4381  0.0455
 3118DPPE   GL259272  31.711  19.135  18.062 -0.0532 -0.0663  0.0133
 3118DPPE   C1A59273  32.190  19.389  18.114  0.1342 -0.0626  0.4074
 3118DPPE   C2A59274  32.453  19.257  17.794  0.6446  0.4642 -0.1186
 3118DPPE   C3A59275  32.469  19.104  17.395 -0.2191  0.0816  0.3053
 3118DPPE   C4A59276  32.687  18.873  17.004  0.1268  0.0865 -0.0212
 3118DPPE   C1B59277  31.993  18.986  17.889  0.1797 -0.0980  0.0074
 3118DPPE   C2B59278  32.296  18.760  17.746 -0.2470 -0.0186 -0.1290
 3118DPPE   C3B59279  32.690  18.455  17.628 -0.2347  0.2292  0.1487
 3118DPPE   C4B59280  33.080  18.383  17.675  0.0371  0.1527  0.0350
 3119DPPE   NH359281  36.614  29.398   8.139  0.2245  0.1931  0.0782
 3119DPPE   PO459282  36.590  29.314   7.690 -0.1870 -0.1162 -0.2298
 3119DPPE   GL159283  36.698  29.004   7.862 -0.0057 -0.1501  0.0995
 3119DPPE   GL259284  36.660  28.935   8.255  0.4585  0.0418  0.1093
 3119DPPE   C1A59285  36.657  28.581   7.718 -0.0392 -0.2349 -0.0786
 3119DPPE   C2A59286  36.675  28.239   7.876  0.0273 -0.1288  0.3506
 3119DPPE   C3A59287  36.309  27.848   7.812  0.2341  0.1908  0.1266
 3119DPPE   C4A59288  36.361  27.623   8.215  0.1819 -0.0228 -0.1583
 3119DPPE   C1B59289  36.946  28.622   8.105  0.1673 -0.1983 -0.0593
 3119DPPE   C2B59290  37.115  28.206   8.122 -0.2986 -0.0140  0.0538
 3119DPPE   C3B59291  37.555  27.975   7.951 -0.0406 -0.0132 -0.0361
 3119DPPE   C4B59292  37.984  27.911   7.853  0.1075  0.1449 -0.0539
 3120DPPE   NH359293  11.259   9.926  10.096  0.2029 -0.2425 -0.3178
 3120DPPE   PO459294  10.987   9.543  10.093  0.0383 -0.2655 -0.0114
 3120DPPE   GL159295  10.679   9.844  10.152  0.0032 -0.0436 -0.0232
 3120DPPE   GL259296  10.355   9.799  10.188 -0.0969 -0.0123 -0.0177
 3120DPPE   C1A59297  10.545  10.154  10.464  0.0398 -0.1627  0.0585
 3120DPPE   C2A59298  10.443  10.596  10.765 -0.0760 -0.2253 -0.3141
 3120DPPE   C3A59299  10.038  10.744  10.877 -0.1277  0.0541 -0.1641
 3120DPPE   C4A59300   9.638  10.975  10.636  0.1280 -0.4724 -0.0277
 3120DPPE   C1B59301  10.194  10.110   9.873  0.0441 -0.2580  0.0936
 3120DPPE   C2B59302  10.087  10.525   9.852  0.0800  0.0797 -0.2453
 3120DPPE   C3B59303   9.883  10.583  10.306 -0.0228 -0.1364  0.2224
 3120DPPE   C4B59304   9.557  10.499  10.607  0.1792  0.0357 -0.3037
 3121DPPE   NH359305  15.318  20.274   8.612  0.0591 -0.3244  0.0646
 3121DPPE   PO459306  15.332  20.627   8.909 -0.2458 -0.0749  0.0396
 3121DPPE   GL159307  15.733  20.416   8.998  0.0436  0.1326 -0.0161
 3121DPPE   GL259308  15.887  20.652   9.086 -0.0052  0.1299  0.1325
 3121DPPE   C1A59309  15.848  20.166   9.311 -0.2605 -0.4387 -0.0147
 3121DPPE   C2A59310  15.973  19.813   9.508 -0.2163  0.2717 -0.3427
 3121DPPE   C3A59311  16.269  19.526   9.729 -0.1381 -0.5247 -0.1785
 3121DPPE   C4A59312  16.632  19.430   9.807 -0.0616 -0.1413 -0.2054
 3121DPPE   C1B59313  16.254  20.616   9.183 -0.1396 -0.0302 -0.0956
 3121DPPE   C2B59314  16.760  20.631   9.073 -0.0201  0.2397 -0.3293
 3121DPPE   C3B59315  17.075  20.441   9.157  0.0707  0.0743  0.3750
 3121DPPE   C4B59316  17.169  19.983   9.032 -0.1231 -0.0146  0.0859
 3122DPPE   NH359317  18.270  21.316  14.631  0.0949  0.0656  0.5151
 3122DPPE   PO459318  18.124  21.206  15.036 -0.0334 -0.0041 -0.0794
 3122DPPE   GL159319  17.781  21.221  14.901  0.1588 -0.4328  0.0613
 3122DPPE   GL259320  17.717  21.070  14.663 -0.3452 -0.1227  0.0100
 3122DPPE   C1A59321  17.330  21.325  14.923  0.1144  0.0671 -0.1684
 3122DPPE   C2A59322  16.998  21.504  14.709 -0.2781 -0.2264 -0.0665
 3122DPPE   C3A59323  16.613  21.636  14.529  0.0318 -0.1482 -0.0088
 3122DPPE   C4A59324  16.139  21.711  14.593 -0.1525  0.0682 -0.0178
 3122DPPE   C1B59325  17.406  21.243  14.388 -0.0113 -0.3693 -0.0589
 3122DPPE   C2B59326  17.070  21.521  14.209  0.0743 -0.0949  0.0380
 3122DPPE   C3B59327  17.066  21.857  13.901 -0.3053  0.2119  0.3668
 3122DPPE   C4B59328  16.962  22.130  13.579 -0.1657 -0.1999 -0.0189
 3123DPPE   NH359329  34.990  18.974  26.416 -0.2240 -0.0176  0.1398
 3123DPPE   PO459330  34.764  19.281  26.430  0.1566  0.1947 -0.0198
 3123DPPE   GL159331  35.096  19.416  26.770 -0.4784 -0.0378 -0.1704
 3123DPPE   GL259332  35.336  19.638  26.704  0.0126 -0.2952  0.1897
 3123DPPE   C1A59333  35.052  19.143  27.161 -0.1265 -0.4150 -0.2571
 3123DPPE   C2A59334  34.928  18.878  27.444  0.2116  0.2155 -0.2504
 3123DPPE   C3A59335  34.806  18.499  27.662 -0.1374 -0.1020  0.1440
 3123DPPE   C4A59336  34.487  18.300  27.789 -0.2686 -0.1649 -0.0508
 3123DPPE   C1B59337  35.591  19.345  26.923  0.0875  0.0626  0.2431
 3123DPPE   C2B59338  35.677  19.044  27.196  0.2383  0.0183 -0.0785
 3123DPPE   C3B59339  35.587  18.604  27.250 -0.1935 -0.1490  0.0747
 3123DPPE   C4B59340  35.749  18.257  27.365  0.2270 -0.1749  0.1300
 3124DPPE   NH359341  12.740  25.804   0.740  0.2325  0.0583  0.2616
 3124DPPE   PO459342  12.530  25.494   0.936  0.1951  0.0024  0.3339
 3124DPPE   GL159343  12.170  25.477   1.144  0.0937  0.0734 -0.0221
 3124DPPE   GL259344  11.972  25.214   0.955 -0.1101 -0.3950 -0.2985
 3124DPPE   C1A59345  11.845  25.252   1.463  0.4062 -0.2042 -0.3457
 3124DPPE   C2A59346  11.551  25.113   1.774  0.0541  0.0304 -0.0042
 3124DPPE   C3A59347  11.447  25.092   2.164 -0.0635 -0.0858 -0.1350
 3124DPPE   C4A59348  11.404  24.566   2.176 -0.2367  0.3223 -0.1333
 3124DPPE   C1B59349  11.920  24.885   1.082 -0.0500  0.0355  0.3398
 3124DPPE   C2B59350  11.553  24.693   1.197  0.0364  0.1753 -0.1746
 3124DPPE   C3B59351  11.124  24.651   1.275  0.1893  0.0375  0.3112
 3124DPPE   C4B59352  10.846  24.301   1.168 -0.0361 -0.1098 -0.0595
 3125DPPE   NH359353  33.511  10.307  11.461 -0.0173 -0.1756 -0.2588
 3125DPPE   PO459354  33.700   9.982  11.145 -0.1418 -0.2058  0.4796
 3125DPPE   GL159355  34.047  10.158  11.341 -0.1036  0.1575 -0.0992
 3125DPPE   GL259356  34.001  10.439  11.491 -0.1711  0.0208 -0.4081
 3125DPPE   C1A59357  34.435  10.433  11.332 -0.1133  0.2772 -0.1239
 3125DPPE   C2A59358  34.722  10.661  11.553  0.1527 -0.1371 -0.0069
 3125DPPE   C3A59359  35.166  10.894  11.716 -0.0082 -0.1661  0.0155
 3125DPPE   C4A59360  35.191  11.253  11.691 -0.2325 -0.1662 -0.0632
 3125DPPE   C1B59361  33.949  10.881  11.255  0.2084  0.0815 -0.1857
 3125DPPE   C2B59362  33.673  11.193  11.160  0.0782 -0.0197 -0.0205
 3125DPPE   C3B59363  33.586  11.591  11.269  0.2798 -0.1321  0.0409
 3125DPPE   C4B59364  33.650  12.026  11.204  0.0200  0.0610 -0.1278
 3126DPPE   NH359365  29.061  21.209  10.758  0.2641 -0.0768 -0.2755
 3126DPPE   PO459366  29.034  21.410  10.254  0.0250 -0.0319 -0.1048
 3126DPPE   GL159367  29.408  21.384  10.417 -0.2220 -0.1982  0.2172
 3126DPPE   GL259368  29.537  21.156  10.624 -0.0779 -0.2307  0.1345
 3126DPPE   C1A59369  29.820  21.563  10.601  0.2252 -0.0760  0.0829
 3126DPPE   C2A59370  30.274  21.744  10.723 -0.0137 -0.1003  0.2159
 3126DPPE   C3A59371  30.473  21.895  11.097 -0.2182 -0.3690 -0.0150
 3126DPPE   C4A59372  30.581  22.189  11.382 -0.1503 -0.3233  0.1530
 3126DPPE   C1B59373  29.926  21.041  10.475 -0.1079  0.0648  0.1041
 3126DPPE   C2B59374  30.206  20.838  10.151 -0.0632  0.1328  0.1294
 3126DPPE   C3B59375  30.567  20.622   9.924 -0.0319  0.1111 -0.2475
 3126DPPE   C4B59376  30.511  20.246   9.797 -0.0813 -0.2654  0.0818
 3127DPPE   NH359377  10.970  28.890  19.851 -0.0656 -0.1176 -0.0864
 3127DPPE   PO459378  11.256  28.616  19.605 -0.0916  0.2227  0.1664
 3127DPPE   GL159379  11.388  28.683  19.154 -0.0843  0.2985 -0.0428
 3127DPPE   GL259380  11.180  28.873  18.885  0.0428  0.0110 -0.2082
 3127DPPE   C1A59381  11.712  28.563  18.842 -0.1868 -0.1704  0.1807
 3127DPPE   C2A59382  11.867  28.203  18.644  0.0783  0.2603  0.1808
 3127DPPE   C3A59383  12.166  27.995  18.469  0.0481  0.0426 -0.2342
 3127DPPE   C4A59384  12.027  27.638  18.216  0.0656 -0.2740  0.0452
 3127DPPE   C1B59385  11.152  28.555  18.680  0.0289  0.0932 -0.3132
 3127DPPE   C2B59386  11.356  28.139  18.494 -0.3368  0.3025 -0.3166
 3127DPPE   C3B59387  11.630  27.765  18.499  0.0740  0.0050 -0.0122
 3127DPPE   C4B59388  11.916  27.719  18.799 -0.0480  0.2072  0.1172
 3128DPPE   NH359389  15.120  12.621   9.072  0.1790 -0.2093 -0.0644
 3128DPPE   PO459390  15.502  12.705   8.799 -0.2229 -0.0855 -0.3079
 3128DPPE   GL159391  15.187  13.081   8.861 -0.2066 -0.0969  0.3079
 3128DPPE   GL259392  15.446  13.271   8.766  0.2443 -0.0342  0.0491
 3128DPPE   C1A59393  14.837  13.223   8.547  0.1922 -0.3986 -0.0736
 3128DPPE   C2A59394  14.419  13.424   8.490  0.0845 -0.2299  0.0619
 3128DPPE   C3A59395  14.230  13.903   8.532 -0.2554  0.1264  0.1528
 3128DPPE   C4A59396  13.807  14.054   8.319 -0.0448 -0.2626 -0.1695
 3128DPPE   C1B59397  15.363  13.612   8.919 -0.3279  0.1386 -0.0496
 3128DPPE   C2B59398  15.010  13.693   8.908 -0.0357 -0.1660 -0.3357
 3128DPPE   C3B59399  14.714  13.813   8.664  0.1835 -0.0161 -0.0958
 3128DPPE   C4B59400  14.824  13.721   8.226 -0.0268  0.2144  0.0843
 3129DPPE   NH359401   1.589  24.569  21.472 -0.1210  0.2490  0.0259
 3129DPPE   PO459402   1.853  24.298  21.664 -0.0361  0.1151  0.0502
 3129DPPE   GL159403   1.842  24.193  21.213  0.3574  0.0781 -0.0274
 3129DPPE   GL259404   1.916  24.448  20.953 -0.0106  0.1766  0.0306
 3129DPPE   C1A59405   1.982  23.933  20.771 -0.0799  0.1961 -0.0366
 3129DPPE   C2A59406   2.289  23.951  20.461  0.0039 -0.1614 -0.1316
 3129DPPE   C3A59407   2.546  24.085  20.198 -0.0475  0.1643 -0.1460
 3129DPPE   C4A59408   2.729  23.916  19.856  0.1828  0.1440  0.1142
 3129DPPE   C1B59409   2.365  24.460  21.056  0.1917 -0.0993  0.0553
 3129DPPE   C2B59410   2.741  24.772  21.004  0.2340 -0.0527  0.1866
 3129DPPE   C3B59411   3.083  24.571  20.831  0.1900  0.0777  0.1620
 3129DPPE   C4B59412   3.357  24.322  20.458  0.0729 -0.2178  0.4140
 3130DPPE   NH359413   0.040   6.482   8.089 -0.4117 -0.1780 -0.1561
 3130DPPE   PO459414  -0.056   6.653   8.372  0.2015 -0.0565  0.1264
 3130DPPE   GL159415  -0.060   6.880   8.623 -0.0137  0.0641 -0.0145
 3130DPPE   GL259416   0.131   7.069   8.644 -0.1251  0.3028  0.0203
 3130DPPE   C1A59417  -0.217   7.148   9.012 -0.1282  0.0207 -0.1855
 3130DPPE   C2A59418  -0.206   7.465   9.438 -0.3131  0.0331  0.2500
 3130DPPE   C3A59419  -0.297   7.485   9.900  0.2188  0.1943 -0.1204
 3130DPPE   C4A59420  -0.385   7.682  10.180 -0.0989 -0.1746  0.0282
 3130DPPE   C1B59421   0.493   7.405   8.631  0.1562  0.2652  0.1814
 3130DPPE   C2B59422   0.600   7.909   8.737  0.1789  0.2257  0.0343
 3130DPPE   C3B59423   0.726   8.391   8.832  0.0445 -0.0775  0.2644
 3130DPPE   C4B59424   0.956   8.743   9.012  0.1014 -0.1510 -0.0378
 3131DPPE   NH359425   2.678   6.437   7.050  0.2580 -0.2526 -0.1570
 3131DPPE   PO459426   2.381   6.623   7.339  0.1815  0.0067  0.1532
 3131DPPE   GL159427   2.263   7.141   7.336  0.2736  0.2918 -0.0351
 3131DPPE   GL259428   2.261   7.136   7.681  0.1473  0.0226 -0.0413
 3131DPPE   C1A59429   1.988   7.487   7.219  0.1519 -0.2428 -0.2582
 3131DPPE   C2A59430   2.034   7.796   6.819  0.0220  0.0845  0.2392
 3131DPPE   C3A59431   2.282   8.131   6.609 -0.0725 -0.0694 -0.1767
 3131DPPE   C4A59432   2.424   8.495   6.579  0.0217 -0.1065  0.1283
 3131DPPE   C1B59433   2.326   7.478   7.916  0.1239  0.4133  0.1405
 3131DPPE   C2B59434   2.570   7.665   8.359  0.0604  0.2271  0.1179
 3131DPPE   C3B59435   2.792   7.959   8.500  0.2508 -0.1433  0.0187
 3131DPPE   C4B59436   2.960   8.216   8.853 -0.1364 -0.3959  0.2611
 3132DPPE   NH359437   5.004  22.606  24.757 -0.0186  0.0602  0.0875
 3132DPPE   PO459438   5.423  22.347  24.797  0.1041  0.1164  0.3730
 3132DPPE   GL159439   5.789  22.427  25.192  0.0617 -0.2817 -0.1664
 3132DPPE   GL259440   5.635  22.142  25.186  0.2714  0.1244  0.1367
 3132DPPE   C1A59441   5.763  22.518  25.655  0.1848  0.5474  0.2654
 3132DPPE   C2A59442   5.521  22.411  26.005 -0.2435 -0.2083 -0.0144
 3132DPPE   C3A59443   5.291  22.584  26.340 -0.0733  0.0075  0.0127
 3132DPPE   C4A59444   4.918  22.599  26.390 -0.1105 -0.0437 -0.0538
 3132DPPE   C1B59445   5.549  21.999  25.635  0.0162  0.2543 -0.0821
 3132DPPE   C2B59446   5.536  21.539  25.780  0.1382 -0.0797 -0.0942
 3132DPPE   C3B59447   5.646  21.256  25.612  0.2188 -0.2428  0.1007
 3132DPPE   C4B59448   6.076  21.243  25.531 -0.0136  0.2264 -0.0580
 3133DPPE   NH359449  33.359  26.340   6.751 -0.0693  0.1115  0.1635
 3133DPPE   PO459450  33.695  26.467   7.024  0.0544 -0.0772  0.4122
 3133DPPE   GL159451  33.851  26.165   7.155  0.0341 -0.0261 -0.4072
 3133DPPE   GL259452  34.065  26.173   7.395 -0.1561  0.1921 -0.0094
 3133DPPE   C1A59453  33.913  25.725   7.275 -0.1813  0.1243  0.1725
 3133DPPE   C2A59454  33.833  25.341   7.072 -0.1158  0.0028 -0.0089
 3133DPPE   C3A59455  33.677  24.978   7.266 -0.0105 -0.3112  0.2363
 3133DPPE   C4A59456  33.583  24.500   7.373  0.2157  0.0843 -0.1679
 3133DPPE   C1B59457  34.305  25.884   7.606 -0.3015 -0.0623  0.4238
 3133DPPE   C2B59458  34.484  25.567   7.910  0.1150  0.0823  0.1066
 3133DPPE   C3B59459  34.655  25.157   7.727  0.0425 -0.1360 -0.1506
 3133DPPE   C4B59460  34.559  24.712   7.944 -0.1847  0.3495 -0.0068
 3134DPPE   NH359461   3.909  14.874   6.142 -0.1464  0.1934  0.1214
 3134DPPE   PO459462   4.156  14.549   6.339 -0.0774  0.2374 -0.2255
 3134DPPE   GL159463   3.957  14.367   6.084 -0.1138  0.0931  0.1725
 3134DPPE   GL259464   3.595  14.470   6.009  0.2080 -0.0915  0.1610
 3134DPPE   C1A59465   3.901  14.003   5.895  0.0522 -0.3298  0.2084
 3134DPPE   C2A59466   3.923  13.909   5.487  0.0770 -0.0156  0.0105
 3134DPPE   C3A59467   4.072  13.528   5.328 -0.5205 -0.1694  0.2611
 3134DPPE   C4A59468   4.138  13.304   5.006 -0.2959  0.0963  0.0603
 3134DPPE   C1B59469   3.744  14.441   5.437  0.3171  0.3259 -0.1003
 3134DPPE   C2B59470   3.570  14.094   5.161 -0.0408  0.2629  0.3409
 3134DPPE   C3B59471   3.557  13.608   5.279  0.3181 -0.2059 -0.0362
 3134DPPE   C4B59472   3.645  13.234   5.039  0.1202  0.2927 -0.1940
 3135DPPE   NH359473  32.188  14.655  17.999 -0.6092 -0.1593 -0.0313
 3135DPPE   PO459474  31.957  15.149  17.985  0.0654  0.1343  0.2208
 3135DPPE   GL159475  32.317  15.193  17.914 -0.1388 -0.2632  0.0411
 3135DPPE   GL259476  32.353  14.978  17.680  0.1888 -0.0996  0.2491
 3135DPPE   C1A59477  32.778  15.258  17.720 -0.1846 -0.1203  0.0918
 3135DPPE   C2A59478  33.142  15.115  17.770 -0.3408  0.0484 -0.0261
 3135DPPE   C3A59479  33.505  14.881  17.744 -0.0351  0.1991  0.1345
 3135DPPE   C4A59480  33.808  14.520  17.648 -0.0087 -0.4387  0.0635
 3135DPPE   C1B59481  32.805  14.839  17.467  0.0811 -0.0469  0.1710
 3135DPPE   C2B59482  33.168  15.002  17.245 -0.1265 -0.0037  0.0054
 3135DPPE   C3B59483  33.619  14.750  17.245 -0.1952  0.1712  0.1189
 3135DPPE   C4B59484  34.007  14.726  16.999 -0.1596 -0.1949  0.0741
 3136DPPE   NH359485  31.139  14.414   7.444  0.0339  0.1109  0.1907
 3136DPPE   PO459486  31.341  14.739   7.277  0.1817  0.2387  0.0759
 3136DPPE   GL159487  31.651  14.601   7.587 -0.3258 -0.4827  0.1520
 3136DPPE   GL259488  31.781  14.711   7.965 -0.1054 -0.3228  0.1094
 3136DPPE   C1A59489  32.130  14.606   7.569 -0.1677 -0.2785 -0.1372
 3136DPPE   C2A59490  32.437  14.936   7.346  0.2076 -0.2271  0.1796
 3136DPPE   C3A59491  32.850  14.965   7.047 -0.0002  0.4852  0.1244
 3136DPPE   C4A59492  33.062  15.098   6.760 -0.0259 -0.0316  0.2161
 3136DPPE   C1B59493  31.940  15.182   8.177  0.0207 -0.2144 -0.0777
 3136DPPE   C2B59494  32.270  15.429   7.937 -0.0048 -0.2342 -0.0596
 3136DPPE   C3B59495  32.706  15.629   7.902 -0.0212  0.2984 -0.1376
 3136DPPE   C4B59496  33.062  15.882   8.001  0.1663  0.0226  0.0531
 3137DPPE   NH359497   2.115  32.569   8.517 -0.1426 -0.0284  0.1530
 3137DPPE   PO459498   2.277  32.551   8.053 -0.0401  0.3839  0.1115
 3137DPPE   GL159499   2.481  32.110   8.117  0.1139 -0.2480  0.1929
 3137DPPE   GL259500   2.295  31.897   8.299 -0.2417  0.1488 -0.1229
 3137DPPE   C1A59501   2.758  31.803   8.265 -0.2211 -0.0989 -0.3971
 3137DPPE   C2A59502   2.809  31.371   8.217  0.0635 -0.1113 -0.2549
 3137DPPE   C3A59503   3.037  31.048   8.180 -0.0683 -0.3397 -0.0538
 3137DPPE   C4A59504   3.175  30.643   8.033  0.2620  0.3126 -0.2340
 3137DPPE   C1B59505   2.335  31.462   8.241 -0.0432  0.1569 -0.2740
 3137DPPE   C2B59506   2.501  31.013   8.287  0.1741 -0.0277 -0.0416
 3137DPPE   C3B59507   2.717  30.674   8.394 -0.1594  0.1308  0.0421
 3137DPPE   C4B59508   3.026  30.450   8.454  0.0649  0.0018  0.2299
 3138DPPE   NH359509   9.064  15.386  20.760  0.6093 -0.1301 -0.1200
 3138DPPE   PO459510   9.370  15.398  20.934  0.2768  0.1770 -0.0449
 3138DPPE   GL159511   9.427  15.751  20.683 -0.1121 -0.3072  0.1657
 3138DPPE   GL259512   9.211  15.715  20.401 -0.0254  0.1931  0.1225
 3138DPPE   C1A59513   9.563  16.105  20.457  0.0028  0.0678 -0.2270
 3138DPPE   C2A59514   9.300  16.355  20.123  0.1238  0.0694 -0.2801
 3138DPPE   C3A59515   9.018  16.674  19.814 -0.1618  0.1822 -0.0446
 3138DPPE   C4A59516   8.753  16.771  19.505 -0.0613 -0.1539  0.2038
 3138DPPE   C1B59517   9.512  15.833  20.035  0.1989  0.1779 -0.0764
 3138DPPE   C2B59518   9.664  15.894  19.624  0.0212  0.2120 -0.2045
 3138DPPE   C3B59519   9.468  15.975  19.256  0.1944  0.0398 -0.2673
 3138DPPE   C4B59520   9.319  16.212  19.017  0.1436  0.1181 -0.2219
 3139DPPE   NH359521   7.381  32.936   9.426  0.0296  0.1749  0.0315
 3139DPPE   PO459522   7.595  32.636   9.112 -0.0434  0.0098  0.2528
 3139DPPE   GL159523   7.839  32.325   9.196  0.3356 -0.0694  0.1526
 3139DPPE   GL259524   7.972  32.401   9.452  0.0134  0.0496  0.0304
 3139DPPE   C1A59525   7.967  31.996   8.894 -0.2636 -0.0941 -0.1541
 3139DPPE   C2A59526   8.301  31.582   8.761 -0.1564 -0.1158  0.1280
 3139DPPE   C3A59527   8.435  31.197   8.516 -0.0399 -0.1214  0.3169
 3139DPPE   C4A59528   8.343  30.853   8.507 -0.0262  0.1210 -0.0884
 3139DPPE   C1B59529   8.269  32.393   9.686 -0.1430  0.0077  0.1964
 3139DPPE   C2B59530   8.385  32.203  10.023  0.2625  0.1711  0.2765
 3139DPPE   C3B59531   8.427  31.663  10.207  0.3510  0.1453 -0.2452
 3139DPPE   C4B59532   8.114  31.265  10.332  0.0887  0.1051 -0.1082
 3140DPPE   NH359533  30.649  24.673   6.660  0.0455 -0.2671 -0.1005
 3140DPPE   PO459534  30.547  24.949   6.993  0.1468 -0.1770 -0.1510
 3140DPPE   GL159535  30.965  24.669   7.089  0.0678  0.1759  0.0734
 3140DPPE   GL259536  31.034  24.660   7.523  0.2114  0.0653  0.2537
 3140DPPE   C1A59537  31.127  24.237   7.219  0.1058  0.0756  0.0329
 3140DPPE   C2A59538  31.519  24.082   7.206  0.2973 -0.2252 -0.1358
 3140DPPE   C3A59539  31.813  23.764   7.161 -0.3416 -0.2892 -0.1711
 3140DPPE   C4A59540  31.937  23.671   7.503  0.3773 -0.2513  0.0495
 3140DPPE   C1B59541  31.508  24.633   7.284  0.0558 -0.3335  0.1071
 3140DPPE   C2B59542  31.516  24.473   6.835  0.2338 -0.2687  0.2042
 3140DPPE   C3B59543  31.589  24.428   6.403  0.0942 -0.1574 -0.0562
 3140DPPE   C4B59544  31.893  24.417   6.037 -0.3813 -0.1716  0.0621
 3141DPPE   NH359545   4.617  27.822   6.645 -0.1483  0.2758 -0.1676
 3141DPPE   PO459546   4.291  27.811   6.914 -0.2637 -0.0047 -0.0848
 3141DPPE   GL159547   4.277  28.208   6.696 -0.1316  0.0373 -0.0695
 3141DPPE   GL259548   4.380  28.290   6.348 -0.0804  0.0320  0.0461
 3141DPPE   C1A59549   4.116  28.623   6.647 -0.1092  0.1149 -0.3198
 3141DPPE   C2A59550   3.848  28.968   6.498 -0.2436  0.0872 -0.2117
 3141DPPE   C3A59551   3.722  29.279   6.217 -0.0544  0.0129  0.1596
 3141DPPE   C4A59552   3.765  29.325   5.765 -0.2322 -0.0485  0.1730
 3141DPPE   C1B59553   4.613  28.634   6.537  0.1648 -0.1653 -0.2267
 3141DPPE   C2B59554   4.839  29.070   6.689 -0.0970  0.0559  0.0992
 3141DPPE   C3B59555   4.804  29.431   6.539  0.0910  0.1558 -0.0120
 3141DPPE   C4B59556   4.706  29.538   6.064  0.0944 -0.2403  0.0888
 3142DPPE   NH359557  17.125  27.528  13.225 -0.2872 -0.1599  0.2762
 3142DPPE   PO459558  17.054  27.172  13.072 -0.1558  0.2278 -0.0837
 3142DPPE   GL159559  16.737  26.956  12.968 -0.0906 -0.2747 -0.1673
 3142DPPE   GL259560  16.697  26.969  12.691 -0.2923 -0.0084  0.2521
 3142DPPE   C1A59561  16.435  26.546  12.848  0.2392  0.1139 -0.0221
 3142DPPE   C2A59562  16.143  26.342  12.608 -0.0394 -0.0424 -0.0522
 3142DPPE   C3A59563  15.929  25.985  12.423  0.0201 -0.0652 -0.0455
 3142DPPE   C4A59564  15.435  26.013  12.441  0.4220 -0.2395 -0.3062
 3142DPPE   C1B59565  16.382  26.976  12.490 -0.1075 -0.0578 -0.1248
 3142DPPE   C2B59566  16.021  26.858  12.597 -0.0079 -0.0655  0.3110
 3142DPPE   C3B59567  15.735  26.830  12.858 -0.1094 -0.1778  0.2725
 3142DPPE   C4B59568  15.543  26.534  13.133 -0.1260 -0.0913 -0.0097
 3143DPPE   NH359569  13.144  23.777  15.202 -0.0480 -0.0197 -0.0476
 3143DPPE   PO459570  13.327  23.439  15.409 -0.0296 -0.0305 -0.4445
 3143DPPE   GL159571  13.527  23.334  15.814 -0.1710 -0.0863 -0.1317
 3143DPPE   GL259572  13.351  23.193  15.963 -0.1027  0.0724  0.1088
 3143DPPE   C1A59573  13.789  23.516  16.057 -0.3612  0.0647  0.3714
 3143DPPE   C2A59574  14.078  23.667  16.267  0.1546 -0.1300 -0.2686
 3143DPPE   C3A59575  14.430  23.653  16.540 -0.0488  0.1044 -0.1244
 3143DPPE   C4A59576  14.814  23.766  16.364 -0.1120  0.0296  0.1269
 3143DPPE   C1B59577  13.550  23.147  16.363 -0.0272  0.2137  0.3131
 3143DPPE   C2B59578  13.771  23.505  16.607 -0.2046 -0.0333  0.1344
 3143DPPE   C3B59579  14.003  23.856  16.774  0.0326 -0.1616 -0.1626
 3143DPPE   C4B59580  14.247  24.257  16.993  0.0967 -0.0310  0.2119
 3144DPPE   NH359581   2.164  18.774   6.529 -0.0114 -0.0950 -0.1177
 3144DPPE   PO459582   1.864  18.978   6.702  0.1337 -0.1094  0.2078
 3144DPPE   GL159583   1.509  18.865   6.800 -0.3080 -0.2228 -0.1737
 3144DPPE   GL259584   1.225  19.061   6.909  0.2180 -0.1531  0.1735
 3144DPPE   C1A59585   1.260  18.556   6.738 -0.0365  0.0954 -0.3889
 3144DPPE   C2A59586   0.894  18.669   6.562  0.0273  0.0351 -0.0947
 3144DPPE   C3A59587   0.530  18.690   6.324 -0.0752 -0.0241 -0.2412
 3144DPPE   C4A59588   0.412  18.842   5.944  0.0950  0.5100  0.1630
 3144DPPE   C1B59589   0.759  19.104   6.830 -0.1792  0.1571 -0.0141
 3144DPPE   C2B59590   0.328  19.295   6.609 -0.1619  0.1737 -0.2361
 3144DPPE   C3B59591   0.324  19.291   6.112 -0.1191  0.1361 -0.1743
 3144DPPE   C4B59592   0.311  19.255   5.680  0.1408 -0.1535  0.0507
 3145DPPE   NH359593  16.263  27.785  15.392  0.1534 -0.2482  0.2072
 3145DPPE   PO459594  15.891  27.625  15.255  0.0221 -0.0255  0.1144
 3145DPPE   GL159595  15.800  27.241  15.169 -0.0116  0.0145  0.0304
 3145DPPE   GL259596  16.130  27.108  15.143  0.1918 -0.1278 -0.0617
 3145DPPE   C1A59597  15.622  27.178  14.722  0.0570 -0.0659  0.2074
 3145DPPE   C2A59598  15.706  26.907  14.398 -0.0978  0.3057 -0.1066
 3145DPPE   C3A59599  15.532  26.924  13.971 -0.3388  0.2476 -0.0359
 3145DPPE   C4A59600  15.698  26.860  13.507  0.1492 -0.1879 -0.2349
 3145DPPE   C1B59601  16.126  27.159  14.658  0.3209 -0.1259 -0.0720
 3145DPPE   C2B59602  16.200  27.137  14.264 -0.2296 -0.0575  0.2224
 3145DPPE   C3B59603  16.165  27.179  13.715 -0.3763  0.2165  0.2813
 3145DPPE   C4B59604  15.847  27.395  13.386  0.1561  0.0465 -0.2377
 3146DPPE   NH359605  35.086  25.894   3.846 -0.0687 -0.4119 -0.2255
 3146DPPE   PO459606  34.761  25.745   4.100  0.2113 -0.0186 -0.0629
 3146DPPE   GL159607  34.882  25.466   4.357 -0.0533  0.0445  0.1782
 3146DPPE   GL259608  35.158  25.624   4.533 -0.1272  0.0678 -0.0466
 3146DPPE   C1A59609  34.762  25.213   4.698  0.0076  0.0200 -0.2071
 3146DPPE   C2A59610  34.977  25.027   5.049  0.0258 -0.3385 -0.3496
 3146DPPE   C3A59611  35.290  25.118   5.475 -0.3105 -0.1433  0.0162
 3146DPPE   C4A59612  35.344  25.592   5.593  0.2537  0.1137  0.1662
 3146DPPE   C1B59613  35.292  25.266   4.699  0.0471 -0.1988  0.0735
 3146DPPE   C2B59614  35.429  24.889   5.015  0.1389  0.0632 -0.1005
 3146DPPE   C3B59615  35.690  24.649   5.314  0.0555 -0.2376  0.1366
 3146DPPE   C4B59616  35.987  24.667   5.664  0.2417  0.0650  0.1418
 3147DPPE   NH359617   8.585  12.675  18.394 -0.0006  0.2122 -0.0702
 3147DPPE   PO459618   8.757  12.671  18.190  0.1239  0.1874  0.2654
 3147DPPE   GL159619   8.787  12.786  17.735 -0.0713 -0.0482 -0.1798
 3147DPPE   GL259620   9.100  12.783  17.645  0.0694 -0.0618 -0.3323
 3147DPPE   C1A59621   8.528  12.724  17.323  0.3048 -0.0392  0.1916
 3147DPPE   C2A59622   8.381  12.666  16.896  0.0953 -0.3192 -0.1239
 3147DPPE   C3A59623   8.159  12.701  16.408  0.1419 -0.1872 -0.0240
 3147DPPE   C4A59624   8.098  12.629  16.019 -0.1150 -0.0866  0.4847
 3147DPPE   C1B59625   9.381  12.912  17.237 -0.3425 -0.0723 -0.2228
 3147DPPE   C2B59626   9.148  13.241  16.915 -0.0975  0.2042 -0.1832
 3147DPPE   C3B59627   8.908  13.370  16.627 -0.2180  0.1300 -0.4128
 3147DPPE   C4B59628   8.545  13.679  16.534  0.0033 -0.0049  0.0156
 3148DPPE   NH359629   1.801  16.517  10.123  0.2649  0.0389  0.0823
 3148DPPE   PO459630   1.948  16.678   9.666 -0.3049  0.0996 -0.0070
 3148DPPE   GL159631   1.827  16.329   9.564 -0.2249 -0.0726  0.0066
 3148DPPE   GL259632   1.905  16.188   9.314  0.0558  0.2248 -0.2391
 3148DPPE   C1A59633   1.371  16.149   9.629 -0.0026 -0.0831 -0.2752
 3148DPPE   C2A59634   0.971  15.994   9.733 -0.1341 -0.1126 -0.1739
 3148DPPE   C3A59635   0.694  15.683   9.647  0.0033  0.0639 -0.0621
 3148DPPE   C4A59636   0.556  15.304   9.824 -0.1750  0.1530  0.1363
 3148DPPE   C1B59637   1.739  15.901   9.237 -0.1415  0.1491  0.2791
 3148DPPE   C2B59638   1.527  15.600   9.066  0.1398 -0.1121  0.1787
 3148DPPE   C3B59639   1.535  15.044   9.095  0.1677 -0.1604  0.2665
 3148DPPE   C4B59640   1.331  14.711   8.871  0.1366 -0.1150  0.1303
 3149DPPE   NH359641  10.870  22.716  24.956 -0.1222 -0.0449 -0.2028
 3149DPPE   PO459642  10.499  22.895  25.103  0.0637 -0.3336 -0.0193
 3149DPPE   GL159643  10.323  23.004  25.512  0.2652  0.3990 -0.2611
 3149DPPE   GL259644  10.549  23.162  25.731  0.0115  0.2014  0.1919
 3149DPPE   C1A59645  10.062  22.994  25.849  0.1442  0.4666  0.1176
 3149DPPE   C2A59646   9.991  22.829  26.272  0.0772 -0.1302 -0.3213
 3149DPPE   C3A59647   9.763  22.896  26.803  0.1308 -0.4460  0.0384
 3149DPPE   C4A59648   9.701  22.652  27.105  0.2713 -0.2843 -0.0060
 3149DPPE   C1B59649  10.489  22.829  26.055  0.1874  0.0570 -0.0393
 3149DPPE   C2B59650  10.588  22.758  26.504 -0.2576 -0.0154 -0.0288
 3149DPPE   C3B59651  10.453  22.608  26.888  0.0216  0.0295  0.2543
 3149DPPE   C4B59652  10.197  22.768  27.045 -0.3095  0.4506  0.1241
 3150DPPE   NH359653   5.270  17.705  22.033  0.2408 -0.2046 -0.0560
 3150DPPE   PO459654   5.145  18.091  21.814  0.0247  0.5582 -0.5746
 3150DPPE   GL159655   4.921  18.222  21.545 -0.0210  0.0776 -0.3243
 3150DPPE   GL259656   4.944  18.591  21.416  0.1116  0.0054 -0.2044
 3150DPPE   C1A59657   4.925  18.113  21.143  0.5584 -0.0838  0.0588
 3150DPPE   C2A59658   5.171  17.945  20.813 -0.0202 -0.0837  0.1074
 3150DPPE   C3A59659   5.517  17.992  20.547 -0.0598 -0.0112 -0.0799
 3150DPPE   C4A59660   5.667  18.351  20.296 -0.2564 -0.3414  0.1361
 3150DPPE   C1B59661   4.585  18.467  21.248 -0.0251 -0.1886  0.2804
 3150DPPE   C2B59662   4.339  18.334  20.821  0.0729 -0.3457 -0.0608
 3150DPPE   C3B59663   4.126  18.545  20.461  0.3445  0.2287 -0.0602
 3150DPPE   C4B59664   3.869  18.379  20.070 -0.4350 -0.2079 -0.0462
 3151DPPE   NH359665  37.769  16.896  25.648  0.0722  0.2841 -0.1700
 3151DPPE   PO459666  37.477  16.532  25.689  0.0880  0.0290 -0.1456
 3151DPPE   GL159667  37.617  16.511  26.051  0.0597  0.3454  0.2494
 3151DPPE   GL259668  37.582  16.843  26.134  0.1823 -0.0117  0.3093
 3151DPPE   C1A59669  37.881  16.469  26.462  0.0793  0.1745  0.1860
 3151DPPE   C2A59670  38.060  16.473  26.806 -0.2518 -0.0772  0.1006
 3151DPPE   C3A59671  38.352  16.535  27.076  0.0873 -0.0386 -0.0999
 3151DPPE   C4A59672  38.531  16.333  27.474  0.1630  0.2079  0.1600
 3151DPPE   C1B59673  37.666  17.177  26.505 -0.2010 -0.4671 -0.6218
 3151DPPE   C2B59674  37.365  17.385  26.809 -0.0758 -0.0642 -0.1888
 3151DPPE   C3B59675  37.246  17.597  27.179 -0.2730  0.1889 -0.2313
 3151DPPE   C4B59676  37.272  17.902  27.505  0.0102  0.1503  0.0936
 3152DPPE   NH359677   9.364  13.910   6.761 -0.1066  0.0170 -0.2244
 3152DPPE   PO459678   9.446  14.288   6.503  0.2230 -0.1390 -0.0579
 3152DPPE   GL159679   9.742  14.202   6.211 -0.1628  0.3650  0.3455
 3152DPPE   GL259680   9.533  14.195   5.919 -0.0626  0.1045  0.0187
 3152DPPE   C1A59681  10.137  14.154   5.953 -0.4211 -0.4325  0.2261
 3152DPPE   C2A59682  10.398  13.963   5.609 -0.2656  0.2114  0.0383
 3152DPPE   C3A59683  10.287  13.609   5.378  0.1266 -0.0704  0.0638
 3152DPPE   C4A59684   9.988  13.418   5.467  0.0304  0.1539 -0.1595
 3152DPPE   C1B59685   9.299  13.876   5.711  0.5668  0.1061  0.1563
 3152DPPE   C2B59686   9.426  13.462   5.449 -0.1209 -0.1457  0.1721
 3152DPPE   C3B59687   9.621  13.058   5.289 -0.1232  0.0954 -0.2753
 3152DPPE   C4B59688   9.928  12.797   5.215  0.4437  0.0173 -0.2387
 3153DPPE   NH359689  19.016  23.180   9.888 -0.4671 -0.2813 -0.0233
 3153DPPE   PO459690  18.904  23.107  10.339  0.1263 -0.2329  0.0791
 3153DPPE   GL159691  18.546  22.826  10.420 -0.2848  0.1446 -0.2058
 3153DPPE   GL259692  18.719  22.632  10.663 -0.0415  0.0739 -0.1532
 3153DPPE   C1A59693  18.053  23.000  10.502  0.0067 -0.2279 -0.0372
 3153DPPE   C2A59694  17.693  22.792  10.641  0.1338 -0.0966 -0.0580
 3153DPPE   C3A59695  17.444  22.826  10.910 -0.3228 -0.1652  0.1736
 3153DPPE   C4A59696  17.252  22.843  11.333  0.1188 -0.2659 -0.0012
 3153DPPE   C1B59697  18.213  22.683  10.808  0.0677 -0.0015 -0.0871
 3153DPPE   C2B59698  17.854  22.406  10.909  0.1736  0.1075  0.1244
 3153DPPE   C3B59699  17.446  22.326  10.838 -0.2400 -0.1582  0.0595
 3153DPPE   C4B59700  17.068  22.534  10.971 -0.1843  0.1433 -0.0319
 3154DPPE   NH359701  14.226  14.934  17.986 -0.4018  0.2556  0.1186
 3154DPPE   PO459702  13.987  15.111  17.700  0.2609 -0.0105 -0.3383
 3154DPPE   GL159703  13.637  15.426  17.598 -0.0076 -0.1160 -0.1425
 3154DPPE   GL259704  13.529  15.334  17.278  0.0814 -0.1993  0.2858
 3154DPPE   C1A59705  13.539  15.880  17.362  0.2220  0.2105  0.0006
 3154DPPE   C2A59706  13.166  16.049  17.574  0.2686 -0.4528  0.4642
 3154DPPE   C3A59707  12.694  15.952  17.341  0.0794  0.2767  0.1905
 3154DPPE   C4A59708  12.485  15.710  17.048 -0.0288  0.3457 -0.0677
 3154DPPE   C1B59709  13.792  15.432  16.951  0.0903  0.1929  0.1001
 3154DPPE   C2B59710  13.918  15.599  16.577  0.0032 -0.2750  0.0594
 3154DPPE   C3B59711  13.741  15.739  16.173  0.1873 -0.1899 -0.1215
 3154DPPE   C4B59712  13.469  15.840  15.785  0.0237 -0.1540 -0.3443
 3155DPPE   NH359713  14.048  15.841  17.800 -0.3444 -0.0446  0.1024
 3155DPPE   PO459714  14.056  16.259  17.816  0.2040 -0.2841 -0.0367
 3155DPPE   GL159715  13.657  16.263  17.613  0.1332  0.3894  0.0941
 3155DPPE   GL259716  13.899  16.501  17.347 -0.0604 -0.1684 -0.0305
 3155DPPE   C1A59717  13.407  16.653  17.333 -0.3035 -0.3713  0.0441
 3155DPPE   C2A59718  13.014  16.923  17.358  0.1685  0.2812  0.0543
 3155DPPE   C3A59719  12.652  16.979  17.149 -0.5526  0.0650  0.0433
 3155DPPE   C4A59720  12.293  16.968  16.947 -0.3871 -0.0950  0.0546
 3155DPPE   C1B59721  13.617  16.310  17.098  0.0878 -0.0458  0.1043
 3155DPPE   C2B59722  13.391  16.377  16.736 -0.0500  0.1376 -0.0053
 3155DPPE   C3B59723  12.954  16.149  16.558 -0.1554 -0.0640 -0.1690
 3155DPPE   C4B59724  12.592  16.028  16.610 -0.0040 -0.1344 -0.0744
 3156DPPE   NH359725   5.516  31.087  17.311 -0.0934 -0.0624 -0.2232
 3156DPPE   PO459726   5.516  30.900  17.675 -0.2185  0.2279  0.0627
 3156DPPE   GL159727   5.587  30.588  17.360 -0.3024 -0.3878  0.0182
 3156DPPE   GL259728   5.578  30.266  17.513  0.0959  0.0985 -0.0561
 3156DPPE   C1A59729   5.432  30.369  17.036  0.0457  0.0233  0.2199
 3156DPPE   C2A59730   5.825  30.270  16.735  0.1736 -0.0582  0.1939
 3156DPPE   C3A59731   6.051  30.198  16.295 -0.0067  0.1614  0.0145
 3156DPPE   C4A59732   6.304  29.903  16.165 -0.0159  0.3062 -0.4876
 3156DPPE   C1B59733   5.892  29.881  17.692  0.1194  0.1838  0.4365
 3156DPPE   C2B59734   5.833  29.463  17.527  0.0567 -0.0041 -0.2203
 3156DPPE   C3B59735   6.102  29.554  17.276  0.0347  0.2312 -0.4784
 3156DPPE   C4B59736   6.359  29.935  17.228  0.1063  0.1078  0.0528
 3157DPPE   NH359737  17.711  26.457  12.443  0.1022 -0.0532 -0.0937
 3157DPPE   PO459738  17.540  26.213  12.032 -0.0643 -0.0993  0.1908
 3157DPPE   GL159739  17.424  25.912  11.936  0.0098 -0.0313 -0.0809
 3157DPPE   GL259740  17.656  25.639  11.807 -0.0507 -0.1555 -0.0341
 3157DPPE   C1A59741  17.149  25.642  12.053  0.0935  0.2086 -0.1352
 3157DPPE   C2A59742  16.805  25.603  12.027 -0.1564 -0.1373 -0.3067
 3157DPPE   C3A59743  16.387  25.579  12.192  0.1044  0.1845 -0.1537
 3157DPPE   C4A59744  15.975  25.769  11.981  0.0755  0.1235 -0.0845
 3157DPPE   C1B59745  17.317  25.430  11.658 -0.1958 -0.1423 -0.0645
 3157DPPE   C2B59746  16.969  25.171  11.553 -0.1260 -0.1294 -0.0605
 3157DPPE   C3B59747  16.467  24.898  11.436 -0.0272 -0.0457  0.1333
 3157DPPE   C4B59748  16.544  24.485  11.376 -0.1032 -0.1009 -0.3176
 3158DPPE   NH359749   6.511  21.110  24.661 -0.0028  0.1375 -0.1011
 3158DPPE   PO459750   6.800  21.522  24.581 -0.3613  0.1793 -0.0440
 3158DPPE   GL159751   6.551  21.500  24.994 -0.2227 -0.1246  0.0276
 3158DPPE   GL259752   6.711  21.260  25.140  0.2193 -0.1031  0.2101
 3158DPPE   C1A59753   6.845  21.728  25.277 -0.3664 -0.1581  0.0590
 3158DPPE   C2A59754   6.928  21.702  25.776  0.3541 -0.2796  0.0739
 3158DPPE   C3A59755   6.794  21.625  26.143  0.0648  0.1122  0.2090
 3158DPPE   C4A59756   6.769  21.401  26.562 -0.4517  0.1453  0.2331
 3158DPPE   C1B59757   6.607  21.338  25.512 -0.1594  0.0977 -0.1212
 3158DPPE   C2B59758   6.438  21.326  25.928  0.2751 -0.1561  0.1380
 3158DPPE   C3B59759   6.444  21.030  26.310  0.0600  0.0893 -0.1103
 3158DPPE   C4B59760   6.579  20.974  26.623  0.4382  0.2458  0.3911
 3159DPPE   NH359761  37.851  13.207  21.146 -0.0974  0.1809 -0.1746
 3159DPPE   PO459762  37.917  13.606  21.321 -0.0898 -0.0376 -0.1661
 3159DPPE   GL159763  37.775  13.905  20.951  0.1811 -0.1736  0.1548
 3159DPPE   GL259764  37.586  14.153  21.139  0.1279 -0.0767 -0.0677
 3159DPPE   C1A59765  37.873  14.092  20.556 -0.1341 -0.2189 -0.1964
 3159DPPE   C2A59766  37.785  14.489  20.403 -0.1813  0.1938  0.0444
 3159DPPE   C3A59767  37.760  14.750  20.132  0.0735  0.1333 -0.2264
 3159DPPE   C4A59768  37.547  14.878  19.754 -0.2853  0.2249 -0.2528
 3159DPPE   C1B59769  37.923  14.395  20.930  0.0192  0.3774 -0.3899
 3159DPPE   C2B59770  38.206  14.700  20.645 -0.2109 -0.2897 -0.0250
 3159DPPE   C3B59771  38.585  14.676  20.408 -0.1097 -0.0920 -0.1780
 3159DPPE   C4B59772  39.002  14.627  20.379 -0.0399 -0.1874  0.1611
 3160DPPE   NH359773  36.695  27.049   4.079 -0.1509  0.1108  0.0760
 3160DPPE   PO459774  36.767  26.728   3.661 -0.1164  0.3584 -0.0603
 3160DPPE   GL159775  37.157  26.604   3.871  0.4254 -0.0812  0.0749
 3160DPPE   GL259776  37.289  26.298   3.657  0.3103 -0.1028 -0.1067
 3160DPPE   C1A59777  37.326  26.507   4.255 -0.0301 -0.1580 -0.2923
 3160DPPE   C2A59778  37.736  26.359   4.375 -0.0197 -0.1912  0.3378
 3160DPPE   C3A59779  38.162  26.126   4.455 -0.0260  0.0079  0.1862
 3160DPPE   C4A59780  38.503  25.784   4.581  0.3442 -0.2140  0.2161
 3160DPPE   C1B59781  37.348  25.919   4.003 -0.2520 -0.3495  0.1099
 3160DPPE   C2B59782  37.599  25.660   4.328 -0.1162 -0.0421  0.2732
 3160DPPE   C3B59783  37.605  25.216   4.458 -0.3240  0.1787  0.0702
 3160DPPE   C4B59784  37.797  25.060   4.705  0.1753 -0.0273  0.1925
 3161DPPE   NH359785   6.667  14.327   5.058 -0.2112  0.1638 -0.2486
 3161DPPE   PO459786   6.645  14.055   4.742 -0.0454 -0.1661  0.1160
 3161DPPE   GL159787   6.882  13.731   4.413 -0.1894  0.1118 -0.0608
 3161DPPE   GL259788   7.129  13.545   4.574  0.2201  0.0677 -0.2424
 3161DPPE   C1A59789   6.927  13.308   4.145  0.0867  0.0691 -0.2483
 3161DPPE   C2A59790   6.969  12.966   3.910 -0.0246  0.0235  0.0126
 3161DPPE   C3A59791   6.978  12.569   3.613 -0.0321  0.0290  0.3158
 3161DPPE   C4A59792   7.128  12.179   3.413 -0.1625  0.1454 -0.1090
 3161DPPE   C1B59793   7.384  13.309   4.295 -0.4671 -0.3682 -0.1202
 3161DPPE   C2B59794   7.798  13.597   4.066  0.0747  0.1973 -0.0502
 3161DPPE   C3B59795   7.751  13.763   3.744 -0.2399  0.1305 -0.0123
 3161DPPE   C4B59796   7.891  13.826   3.294  0.0759 -0.0400 -0.0412
 3162DPPE   NH359797  38.020  23.366   7.639  0.0566  0.0420 -0.2610
 3162DPPE   PO459798  38.166  23.462   7.252 -0.1055 -0.3154  0.0789
 3162DPPE   GL159799  37.628  23.486   7.269 -0.3353 -0.1063  0.3473
 3162DPPE   GL259800  37.438  23.693   7.083  0.1079  0.0115  0.0591
 3162DPPE   C1A59801  37.266  23.421   7.515 -0.0298  0.1240  0.0558
 3162DPPE   C2A59802  37.107  23.206   7.869 -0.2773  0.0813  0.4059
 3162DPPE   C3A59803  36.858  23.009   8.170  0.0550 -0.0573  0.2312
 3162DPPE   C4A59804  36.867  22.803   8.678 -0.0206  0.1539  0.1742
 3162DPPE   C1B59805  37.092  23.400   7.036 -0.2366  0.3187  0.2735
 3162DPPE   C2B59806  36.736  23.309   6.820 -0.0366  0.0655  0.2374
 3162DPPE   C3B59807  36.666  22.871   6.548  0.0148 -0.0494  0.0859
 3162DPPE   C4B59808  36.924  22.599   6.650 -0.1349  0.0087 -0.0571
 3163DPPE   NH359809  17.626  17.289   4.231  0.1939 -0.0690 -0.2014
 3163DPPE   PO459810  17.365  16.881   4.131  0.0531 -0.0215  0.0559
 3163DPPE   GL159811  16.954  16.827   4.423 -0.0101  0.1288 -0.0526
 3163DPPE   GL259812  16.980  16.589   4.743  0.2894  0.0709 -0.1229
 3163DPPE   C1A59813  16.519  16.891   4.569 -0.3864  0.1937  0.0779
 3163DPPE   C2A59814  16.214  16.756   4.856  0.0260  0.0495  0.0550
 3163DPPE   C3A59815  15.779  16.897   4.987 -0.2067 -0.0800 -0.1633
 3163DPPE   C4A59816  15.548  17.149   4.750  0.0083  0.0963  0.2641
 3163DPPE   C1B59817  16.730  16.596   5.073 -0.1928 -0.3947  0.0339
 3163DPPE   C2B59818  16.443  16.757   5.342 -0.1692  0.0321  0.1071
 3163DPPE   C3B59819  16.203  17.066   5.260  0.0299  0.2884 -0.2227
 3163DPPE   C4B59820  16.036  17.352   5.118 -0.2086  0.2636  0.0749
 3164DPPE   NH359821  34.695  24.054  16.883 -0.3120 -0.0540  0.3685
 3164DPPE   PO459822  34.460  23.858  17.197  0.1652  0.2706  0.1392
 3164DPPE   GL159823  34.916  23.690  17.123  0.0634 -0.0146  0.1788
 3164DPPE   GL259824  34.963  23.514  17.367  0.1732  0.1182 -0.0297
 3164DPPE   C1A59825  35.311  23.598  16.844  0.0768  0.1163  0.0556
 3164DPPE   C2A59826  35.475  23.447  16.430  0.0016 -0.1504  0.3147
 3164DPPE   C3A59827  35.432  23.177  16.136  0.3971  0.1282 -0.2327
 3164DPPE   C4A59828  35.411  22.796  16.101 -0.1139 -0.1942 -0.2749
 3164DPPE   C1B59829  35.215  23.192  17.124 -0.0647 -0.0621  0.0575
 3164DPPE   C2B59830  35.354  22.906  16.823 -0.0942 -0.0200  0.0381
 3164DPPE   C3B59831  35.616  22.524  16.764  0.0287  0.1108 -0.2734
 3164DPPE   C4B59832  35.691  22.157  16.958 -0.2319  0.0373 -0.1820
 3165DPPE   NH359833   9.201  20.756   2.572 -0.2902 -0.0120 -0.3467
 3165DPPE   PO459834   8.813  20.506   2.409 -0.1813  0.3664 -0.2241
 3165DPPE   GL159835   8.790  20.419   2.040 -0.5153  0.0058  0.1126
 3165DPPE   GL259836   8.487  20.311   2.115 -0.0746  0.0114 -0.0471
 3165DPPE   C1A59837   8.655  20.471   1.661  0.0697 -0.0406  0.2915
 3165DPPE   C2A59838   8.924  20.729   1.347 -0.2807 -0.0029 -0.2334
 3165DPPE   C3A59839   9.116  20.816   0.954 -0.1582 -0.1655  0.2763
 3165DPPE   C4A59840   9.447  20.805   0.786  0.1194  0.4372  0.0343
 3165DPPE   C1B59841   8.365  20.071   1.810  0.3319  0.1932  0.5002
 3165DPPE   C2B59842   8.387  19.958   1.454  0.0066  0.4016  0.1017
 3165DPPE   C3B59843   8.510  19.863   1.022 -0.3165 -0.3624  0.0655
 3165DPPE   C4B59844   8.391  19.961   0.620  0.0069 -0.1712  0.1142
 3166DPPE   NH359845  29.691  18.664   6.876 -0.2332  0.0762  0.0952
 3166DPPE   PO459846  29.512  19.090   6.771  0.1246  0.0303 -0.1813
 3166DPPE   GL159847  29.882  19.047   6.463  0.1118 -0.2248 -0.1433
 3166DPPE   GL259848  29.884  19.362   6.142  0.1930 -0.0594 -0.0642
 3166DPPE   C1A59849  30.402  19.086   6.336  0.0769 -0.2359 -0.4023
 3166DPPE   C2A59850  30.858  19.068   6.494  0.1866 -0.2153  0.3501
 3166DPPE   C3A59851  31.312  19.193   6.689  0.1392 -0.1086  0.0738
 3166DPPE   C4A59852  31.590  19.430   6.963  0.0065 -0.1886 -0.1480
 3166DPPE   C1B59853  30.118  19.500   6.554 -0.0382  0.0580 -0.1177
 3166DPPE   C2B59854  30.496  19.342   6.712 -0.1047  0.1818 -0.2622
 3166DPPE   C3B59855  30.926  19.330   6.913  0.2301  0.0355  0.0319
 3166DPPE   C4B59856  31.280  19.187   7.210  0.4447 -0.4558 -0.0439
 3167DPPE   NH359857  29.714  24.121   9.915 -0.1645  0.2280  0.0579
 3167DPPE   PO459858  29.626  23.851  10.271  0.1961  0.3423  0.0967
 3167DPPE   GL159859  29.867  23.643  10.195 -0.0760 -0.4063  0.4236
 3167DPPE   GL259860  30.076  23.820  10.061  0.1134 -0.1879 -0.0931
 3167DPPE   C1A59861  29.899  23.338   9.853  0.0418  0.0296 -0.1752
 3167DPPE   C2A59862  30.038  23.122   9.476 -0.0489 -0.0391 -0.0272
 3167DPPE   C3A59863  30.497  22.887   9.412  0.0468 -0.0820 -0.0114
 3167DPPE   C4A59864  30.908  22.912   9.549  0.3553  0.1991  0.0826
 3167DPPE   C1B59865  30.316  23.763  10.379 -0.2771 -0.1465 -0.1315
 3167DPPE   C2B59866  30.677  23.789  10.464  0.0640  0.0762 -0.3178
 3167DPPE   C3B59867  31.016  23.653  10.191 -0.0562  0.2653 -0.2600
 3167DPPE   C4B59868  31.117  23.539   9.801 -0.0372  0.0270 -0.0389
 3168DPPE   NH359869  30.202  15.183  11.817 -0.0748 -0.1187 -0.3837
 3168DPPE   PO459870  30.321  14.833  11.988 -0.2022  0.1050 -0.0211
 3168DPPE   GL159871  30.706  15.001  11.928 -0.0838 -0.0848  0.0589
 3168DPPE   GL259872  30.675  15.327  11.655  0.2879  0.0456 -0.2620
 3168DPPE   C1A59873  31.124  15.142  11.928 -0.2130  0.3519  0.1738
 3168DPPE   C2A59874  31.496  15.349  11.988 -0.2153  0.2388  0.1514
 3168DPPE   C3A59875  31.660  15.660  12.067  0.0079 -0.0970 -0.0898
 3168DPPE   C4A59876  31.700  15.887  11.687  0.2133  0.1229 -0.2532
 3168DPPE   C1B59877  30.836  15.722  11.458  0.0800 -0.3354  0.5308
 3168DPPE   C2B59878  31.158  15.902  11.509  0.0112  0.1480 -0.0341
 3168DPPE   C3B59879  31.392  16.311  11.518 -0.0871 -0.1986 -0.1200
 3168DPPE   C4B59880  31.657  16.605  11.349 -0.0365  0.1763  0.3197
 3169DPPE   NH359881  36.363  24.796  18.111  0.5064  0.3320 -0.1605
 3169DPPE   PO459882  36.632  24.996  18.009 -0.3276  0.1141 -0.0670
 3169DPPE   GL159883  36.962  25.112  17.789 -0.0534  0.0972 -0.2180
 3169DPPE   GL259884  37.123  25.071  18.034  0.1369 -0.0337  0.0709
 3169DPPE   C1A59885  37.020  24.976  17.395 -0.0959 -0.1862 -0.2285
 3169DPPE   C2A59886  37.044  25.002  17.008 -0.2269  0.0203 -0.0388
 3169DPPE   C3A59887  36.899  24.941  16.661 -0.1756 -0.0282 -0.0154
 3169DPPE   C4A59888  36.923  24.562  16.534  0.1537 -0.1328 -0.3651
 3169DPPE   C1B59889  37.557  24.895  18.047 -0.1361 -0.4384  0.1230
 3169DPPE   C2B59890  37.911  24.615  17.987 -0.0134  0.1477  0.1953
 3169DPPE   C3B59891  37.949  24.279  18.192  0.0521 -0.0396  0.2270
 3169DPPE   C4B59892  37.994  23.819  18.434  0.2136 -0.1156  0.2354
 3170DPPE   NH359893  32.864  14.484  18.845 -0.2795 -0.2228 -0.1404
 3170DPPE   PO459894  32.856  14.606  19.225  0.0856  0.2158 -0.1343
 3170DPPE   GL159895  33.073  14.929  19.026 -0.0271  0.2224 -0.2727
 3170DPPE   GL259896  32.840  15.169  18.915 -0.2118  0.0974  0.0246
 3170DPPE   C1A59897  33.437  14.869  18.717 -0.3616 -0.0252 -0.0691
 3170DPPE   C2A59898  33.810  14.895  18.548 -0.0553  0.0876  0.1489
 3170DPPE   C3A59899  34.285  14.688  18.589  0.1091  0.0417 -0.1152
 3170DPPE   C4A59900  34.458  14.365  18.168  0.0729  0.1945 -0.1804
 3170DPPE   C1B59901  33.119  15.339  18.574 -0.1958  0.1737 -0.0414
 3170DPPE   C2B59902  33.249  15.065  18.293  0.1991  0.0420 -0.3033
 3170DPPE   C3B59903  33.465  14.746  18.232  0.1308  0.1808  0.2037
 3170DPPE   C4B59904  33.513  14.349  18.043 -0.1837 -0.0772  0.1149
 3171DPPE   NH359905   2.735   8.527   3.406 -0.1311  0.0858 -0.0827
 3171DPPE   PO459906   3.189   8.826   3.347 -0.0257  0.4644 -0.1343
 3171DPPE   GL159907   2.904   9.009   3.688 -0.0274  0.1299 -0.0080
 3171DPPE   GL259908   2.639   8.975   3.628  0.1961 -0.2506 -0.1528
 3171DPPE   C1A59909   2.778   9.083   4.193  0.0164 -0.0086  0.2335
 3171DPPE   C2A59910   2.832   9.056   4.727  0.0544  0.1837  0.1444
 3171DPPE   C3A59911   3.153   9.033   5.100 -0.1107 -0.2233 -0.3232
 3171DPPE   C4A59912   3.407   8.725   5.230  0.0852  0.1383  0.0630
 3171DPPE   C1B59913   2.506   9.460   3.634  0.1438 -0.0676  0.0348
 3171DPPE   C2B59914   2.695   9.761   3.830  0.1584  0.0803 -0.1716
 3171DPPE   C3B59915   2.841  10.117   4.179 -0.2551  0.0237 -0.2338
 3171DPPE   C4B59916   2.772  10.246   4.601  0.1025  0.0261 -0.1265
 3172DPPE   NH359917  38.238  20.928  15.660  0.2273  0.2110 -0.0023
 3172DPPE   PO459918  38.444  20.803  16.011 -0.0642 -0.2965 -0.0439
 3172DPPE   GL159919  38.262  20.453  15.926  0.0125 -0.0870 -0.3086
 3172DPPE   GL259920  38.621  20.357  16.054 -0.2025  0.1721 -0.1855
 3172DPPE   C1A59921  38.186  20.011  16.045  0.0390 -0.2327  0.1327
 3172DPPE   C2A59922  37.926  19.646  16.112  0.2615 -0.0224 -0.1454
 3172DPPE   C3A59923  37.778  19.352  16.290  0.0685  0.1697  0.2663
 3172DPPE   C4A59924  37.482  19.213  16.564  0.1991 -0.3059 -0.1676
 3172DPPE   C1B59925  38.680  19.957  15.955 -0.2870  0.2429  0.0266
 3172DPPE   C2B59926  38.468  19.664  15.732 -0.1839  0.2595 -0.0881
 3172DPPE   C3B59927  38.316  19.325  16.040 -0.0052 -0.0735  0.0612
 3172DPPE   C4B59928  38.029  18.958  16.182 -0.2998  0.0519  0.0314
 3173DPPE   NH359929  32.251  26.826   9.257 -0.1781  0.0416  0.0082
 3173DPPE   PO459930  32.483  26.800   8.890  0.0039 -0.0981 -0.2200
 3173DPPE   GL159931  32.557  26.449   8.981 -0.0954  0.3404  0.0248
 3173DPPE   GL259932  32.766  26.492   9.346 -0.2849  0.2277 -0.0587
 3173DPPE   C1A59933  32.663  26.044   8.672  0.0910  0.1675 -0.0165
 3173DPPE   C2A59934  32.607  25.646   8.511 -0.1523  0.0693  0.0554
 3173DPPE   C3A59935  32.652  25.241   8.816  0.2401 -0.0844 -0.0836
 3173DPPE   C4A59936  32.719  24.711   8.860 -0.0963 -0.0610  0.1113
 3173DPPE   C1B59937  33.045  26.180   9.108  0.0319 -0.2555 -0.1278
 3173DPPE   C2B59938  33.208  25.779   9.209 -0.0276 -0.1131  0.0657
 3173DPPE   C3B59939  33.471  25.409   9.187  0.0106 -0.1174  0.0457
 3173DPPE   C4B59940  33.636  24.982   9.065  0.1462  0.0900  0.1490
 3174DPPE   NH359941   4.876  25.061  25.460 -0.2440  0.0986  0.1119
 3174DPPE   PO459942   4.648  24.712  25.681 -0.2187 -0.0551 -0.0825
 3174DPPE   GL159943   4.385  24.376  25.898  0.1499 -0.0011  0.0100
 3174DPPE   GL259944   4.287  23.993  25.824 -0.3850 -0.2949 -0.0343
 3174DPPE   C1A59945   4.204  24.180  26.300  0.1340  0.1417 -0.4546
 3174DPPE   C2A59946   4.331  24.294  26.670 -0.0096  0.1142  0.0375
 3174DPPE   C3A59947   4.214  24.563  26.953  0.2932 -0.1361  0.2085
 3174DPPE   C4A59948   3.826  24.589  26.886 -0.1200  0.1065  0.2230
 3174DPPE   C1B59949   4.174  23.667  26.148  0.1382  0.3148 -0.5872
 3174DPPE   C2B59950   3.899  23.555  26.559 -0.0778  0.0079  0.3331
 3174DPPE   C3B59951   3.797  23.316  26.995 -0.0131  0.0193  0.0224
 3174DPPE   C4B59952   3.817  23.194  27.476 -0.0143 -0.2340 -0.2006
 3175DPPE   NH359953  37.738  24.347  19.879  0.4427  0.0100  0.0405
 3175DPPE   PO459954  37.370  24.497  19.782 -0.0457 -0.0786 -0.0987
 3175DPPE   GL159955  37.361  24.191  19.429  0.0945 -0.1750 -0.2020
 3175DPPE   GL259956  37.723  24.049  19.385 -0.1085 -0.2935 -0.3280
 3175DPPE   C1A59957  37.380  23.914  18.989  0.2946 -0.2258  0.4137
 3175DPPE   C2A59958  37.597  23.615  18.765  0.1013 -0.0194 -0.2627
 3175DPPE   C3A59959  37.968  23.354  18.624  0.2373  0.0688  0.0000
 3175DPPE   C4A59960  38.436  23.183  18.715  0.2464  0.1597 -0.1282
 3175DPPE   C1B59961  37.730  23.502  19.290 -0.0436 -0.0564  0.1334
 3175DPPE   C2B59962  37.685  23.177  18.988 -0.0483  0.1714  0.5038
 3175DPPE   C3B59963  37.711  22.848  18.781  0.1524 -0.0081  0.1645
 3175DPPE   C4B59964  37.968  22.558  18.554  0.1413  0.0371 -0.0169
 3176DPPE   NH359965   1.787  15.922  20.690 -0.0505  0.0395 -0.2409
 3176DPPE   PO459966   2.042  15.563  20.634  0.0569  0.1946 -0.0551
 3176DPPE   GL159967   2.227  15.908  20.455 -0.2455  0.0911  0.1750
 3176DPPE   GL259968   2.476  15.845  20.253  0.0663  0.1687 -0.2567
 3176DPPE   C1A59969   2.130  16.171  20.175  0.1072  0.0641 -0.0890
 3176DPPE   C2A59970   2.101  16.506  19.765 -0.1181  0.0978 -0.2675
 3176DPPE   C3A59971   2.128  16.656  19.310 -0.2081  0.2363 -0.3380
 3176DPPE   C4A59972   2.241  16.799  18.897  0.0723 -0.1581 -0.1202
 3176DPPE   C1B59973   2.618  16.289  20.174 -0.1089  0.0223  0.0449
 3176DPPE   C2B59974   2.868  16.700  20.243 -0.2067 -0.0418 -0.0236
 3176DPPE   C3B59975   3.168  16.860  19.979 -0.0751 -0.0522 -0.1271
 3176DPPE   C4B59976   3.503  16.907  19.664 -0.0860 -0.4870 -0.2078
 3177DPPE   NH359977   4.739   9.774  15.646  0.0049  0.1143 -0.0765
 3177DPPE   PO459978   4.828   9.871  16.022 -0.0612  0.2201 -0.3436
 3177DPPE   GL159979   4.762  10.336  16.113 -0.0781  0.3021 -0.2591
 3177DPPE   GL259980   4.514  10.447  16.242 -0.0892 -0.1573 -0.0741
 3177DPPE   C1A59981   4.598  10.851  15.938  0.1585 -0.2198  0.1543
 3177DPPE   C2A59982   4.360  11.275  16.018  0.1940  0.3234 -0.0912
 3177DPPE   C3A59983   4.613  11.514  16.251 -0.1374 -0.0390  0.1340
 3177DPPE   C4A59984   4.836  11.832  16.037 -0.0905 -0.4050  0.1855
 3177DPPE   C1B59985   4.355  10.335  15.728 -0.2228 -0.2623 -0.1022
 3177DPPE   C2B59986   4.182  10.308  15.357 -0.2076  0.1106 -0.0557
 3177DPPE   C3B59987   3.769  10.097  15.149 -0.0070  0.0197 -0.2717
 3177DPPE   C4B59988   3.729   9.698  14.983 -0.2895  0.0931  0.1471
 3178DPPE   NH359989  12.803  26.096   1.701 -0.0052 -0.1185 -0.3352
 3178DPPE   PO459990  12.785  26.023   1.238  0.2511 -0.2135 -0.0017
 3178DPPE   GL159991  12.734  25.587   1.520 -0.1100 -0.0637 -0.1584
 3178DPPE   GL259992  12.578  25.315   1.434  0.2013 -0.1723 -0.0159
 3178DPPE   C1A59993  12.321  25.490   1.797 -0.1111 -0.1909 -0.0381
 3178DPPE   C2A59994  11.998  25.195   1.923  0.1765 -0.1518 -0.1755
 3178DPPE   C3A59995  11.883  24.799   2.068  0.1934 -0.0203  0.2621
 3178DPPE   C4A59996  11.859  24.325   1.916 -0.1761 -0.0269 -0.2680
 3178DPPE   C1B59997  12.354  24.964   1.439  0.0961 -0.0435 -0.2175
 3178DPPE   C2B59998  11.904  24.794   1.551 -0.1279 -0.1119  0.1752
 3178DPPE   C3B59999  11.750  24.365   1.447 -0.1985 -0.1903 -0.0910
 3178DPPE   C4B60000  11.697  23.952   1.491  0.0989  0.3037  0.0412
 3179DPPE   NH360001  32.521  23.745   2.878  0.1006 -0.0239  0.1717
 3179DPPE   PO460002  32.691  23.903   2.527  0.1004  0.0752 -0.3104
 3179DPPE   GL160003  32.979  23.502   2.641  0.1482 -0.2104 -0.0121
 3179DPPE   GL260004  33.059  23.515   3.055  0.2728 -0.0407 -0.0230
 3179DPPE   C1A60005  32.996  23.107   2.845  0.0802  0.0145 -0.2284
 3179DPPE   C2A60006  32.889  22.841   3.303  0.0664  0.0030 -0.1740
 3179DPPE   C3A60007  32.797  22.517   3.654 -0.0474 -0.2429  0.1570
 3179DPPE   C4A60008  33.084  22.235   3.924  0.3182  0.2215 -0.2239
 3179DPPE   C1B60009  33.316  23.393   3.345 -0.2037  0.0497 -0.2255
 3179DPPE   C2B60010  33.589  23.050   3.520  0.0336 -0.1679  0.1347
 3179DPPE   C3B60011  33.801  22.608   3.437 -0.2855 -0.0126  0.1214
 3179DPPE   C4B60012  34.133  22.322   3.482 -0.0809  0.3490  0.2319
 3180DPPE   NH360013  12.134  15.188   7.855  0.1853 -0.1441  0.1770
 3180DPPE   PO460014  12.056  15.539   8.185 -0.0655  0.2972  0.0726
 3180DPPE   GL160015  12.274  15.106   8.330 -0.2894  0.0690  0.5362
 3180DPPE   GL260016  12.108  15.075   8.660 -0.0443  0.4958  0.0715
 3180DPPE   C1A60017  12.599  14.759   8.394  0.0395  0.0220 -0.0445
 3180DPPE   C2A60018  12.921  14.401   8.276 -0.2819  0.2236 -0.1063
 3180DPPE   C3A60019  13.299  14.350   7.963  0.4430  0.1097 -0.2837
 3180DPPE   C4A60020  13.567  14.077   7.851 -0.0093 -0.0737  0.2727
 3180DPPE   C1B60021  12.485  15.072   8.808 -0.1485 -0.3067 -0.0195
 3180DPPE   C2B60022  12.780  14.847   8.892 -0.2600 -0.0668  0.1544
 3180DPPE   C3B60023  13.031  14.483   8.864 -0.0045 -0.2070 -0.4682
 3180DPPE   C4B60024  13.384  14.188   8.878  0.0243  0.1403  0.2908
 3181DPPE   NH360025  15.165  17.727   1.307  0.2187 -0.0364  0.1263
 3181DPPE   PO460026  14.934  17.473   1.167 -0.0965 -0.0988  0.3101
 3181DPPE   GL160027  14.685  17.696   1.437 -0.1225  0.3995  0.3426
 3181DPPE   GL260028  14.826  17.897   1.595  0.1911  0.2692 -0.3393
 3181DPPE   C1A60029  14.459  17.525   1.703 -0.2455 -0.0534 -0.0061
 3181DPPE   C2A60030  14.086  17.422   1.734  0.1085  0.1542  0.4462
 3181DPPE   C3A60031  13.695  17.540   1.504 -0.1965 -0.0348 -0.1704
 3181DPPE   C4A60032  13.170  17.705   1.538  0.3127 -0.0682 -0.0264
 3181DPPE   C1B60033  14.499  18.021   1.881 -0.0673 -0.0013  0.1443
 3181DPPE   C2B60034  14.190  18.205   2.147 -0.0016  0.1215  0.0087
 3181DPPE   C3B60035  13.934  18.255   2.483  0.0731 -0.2852  0.1346
 3181DPPE   C4B60036  13.526  18.427   2.632 -0.1083 -0.1443  0.0803
 3182DPPE   NH360037  33.222  14.908   2.730 -0.0068  0.0784  0.1587
 3182DPPE   PO460038  33.009  15.180   2.411 -0.0119 -0.1970  0.0604
 3182DPPE   GL160039  33.513  15.114   2.354 -0.0085  0.2803 -0.1505
 3182DPPE   GL260040  33.595  15.351   2.667 -0.1528 -0.1176  0.0380
 3182DPPE   C1A60041  33.972  15.325   2.429  0.0459  0.1971 -0.2104
 3182DPPE   C2A60042  34.486  15.378   2.619 -0.0102  0.1371 -0.1027
 3182DPPE   C3A60043  35.000  15.330   2.699 -0.1401 -0.1493  0.1871
 3182DPPE   C4A60044  35.226  15.625   2.758  0.1369  0.0441  0.5935
 3182DPPE   C1B60045  33.923  15.534   2.866 -0.0596 -0.1626 -0.0265
 3182DPPE   C2B60046  34.290  15.783   2.782  0.3032  0.0182 -0.0208
 3182DPPE   C3B60047  34.418  16.213   2.883  0.1823 -0.2229  0.2476
 3182DPPE   C4B60048  34.366  16.599   2.742  0.0729  0.1389  0.1939
 3183DPPE   NH360049   0.399  20.452  15.231  0.0962 -0.2022  0.0473
 3183DPPE   PO460050   0.036  20.403  15.467 -0.2115  0.1382 -0.0493
 3183DPPE   GL160051  -0.207  20.022  15.494 -0.0153  0.0417  0.0059
 3183DPPE   GL260052  -0.194  19.835  15.195 -0.1913  0.1719 -0.1466
 3183DPPE   C1A60053  -0.434  19.627  15.529 -0.3809 -0.3506  0.0232
 3183DPPE   C2A60054  -0.592  19.199  15.459 -0.2657  0.4829 -0.0028
 3183DPPE   C3A60055  -0.932  19.165  15.190  0.0913 -0.0361  0.1241
 3183DPPE   C4A60056  -1.423  19.145  15.018  0.0493 -0.3670  0.0462
 3183DPPE   C1B60057  -0.551  19.562  15.011  0.1901 -0.1559 -0.2128
 3183DPPE   C2B60058  -1.056  19.554  14.859 -0.0283  0.1355  0.2225
 3183DPPE   C3B60059  -1.407  19.502  14.573 -0.1176 -0.2058  0.0418
 3183DPPE   C4B60060  -1.423  19.427  14.130 -0.3316  0.3663  0.3020
 3184DPPE   NH360061   6.484  27.385   0.261  0.0110 -0.1310 -0.0999
 3184DPPE   PO460062   6.635  27.594   0.570  0.2342  0.2298 -0.0095
 3184DPPE   GL160063   6.731  27.591   1.012  0.0170 -0.0493 -0.1927
 3184DPPE   GL260064   7.003  27.678   0.962  0.2413  0.3057  0.0378
 3184DPPE   C1A60065   6.727  27.604   1.413 -0.0421 -0.0871 -0.3586
 3184DPPE   C2A60066   6.645  27.440   1.751 -0.0749 -0.0161  0.0899
 3184DPPE   C3A60067   6.419  27.030   1.872  0.1744  0.3008  0.0184
 3184DPPE   C4A60068   6.562  26.711   2.160 -0.1775  0.5191  0.1164
 3184DPPE   C1B60069   7.252  27.557   1.280 -0.3629  0.2787 -0.4273
 3184DPPE   C2B60070   7.266  27.535   1.617  0.5265  0.3690 -0.4115
 3184DPPE   C3B60071   7.247  27.376   1.986  0.0554  0.4853  0.0225
 3184DPPE   C4B60072   7.098  27.301   2.428 -0.1513 -0.2088 -0.1749
 3185DPPE   NH360073  30.036  15.326  14.003 -0.0645  0.1593  0.0519
 3185DPPE   PO460074  30.246  15.140  13.670 -0.2628  0.0766 -0.1212
 3185DPPE   GL160075  30.568  15.301  13.802 -0.1204  0.0416 -0.1695
 3185DPPE   GL260076  30.540  15.536  14.006  0.3722 -0.1126  0.0404
 3185DPPE   C1A60077  30.976  15.400  13.877  0.1844  0.1400  0.1767
 3185DPPE   C2A60078  31.162  15.880  13.923 -0.0283  0.1000 -0.3530
 3185DPPE   C3A60079  31.248  16.407  13.777  0.0543 -0.0668  0.0078
 3185DPPE   C4A60080  31.331  16.641  13.444 -0.0472  0.0915 -0.0632
 3185DPPE   C1B60081  30.824  15.471  14.319  0.2120 -0.0268 -0.0825
 3185DPPE   C2B60082  31.097  15.784  14.432 -0.2766 -0.2123 -0.1711
 3185DPPE   C3B60083  31.423  16.114  14.393  0.1908 -0.0008  0.0563
 3185DPPE   C4B60084  31.533  16.574  14.223 -0.1891 -0.2517  0.1694
 3186DPPE   NH360085   0.003  19.172  11.533  0.2369 -0.0242 -0.0768
 3186DPPE   PO460086   0.069  19.372  11.095 -0.3803 -0.1312  0.0759
 3186DPPE   GL160087  -0.262  19.134  11.006  0.1646 -0.0217  0.0886
 3186DPPE   GL260088  -0.076  18.798  11.117  0.3060  0.0013 -0.1984
 3186DPPE   C1A60089  -0.745  19.197  11.000 -0.0119  0.0804 -0.1382
 3186DPPE   C2A60090  -1.175  19.163  11.056  0.1213  0.0495 -0.1116
 3186DPPE   C3A60091  -1.577  19.200  11.031  0.0308 -0.0983 -0.1472
 3186DPPE   C4A60092  -2.030  19.119  11.029 -0.0141 -0.1175  0.2026
 3186DPPE   C1B60093  -0.591  18.722  11.141  0.1067  0.0562 -0.3244
 3186DPPE   C2B60094  -1.030  18.633  11.053  0.1039 -0.0145 -0.3310
 3186DPPE   C3B60095  -1.406  18.606  10.920  0.0117 -0.4334 -0.3329
 3186DPPE   C4B60096  -1.801  18.699  10.879 -0.0706 -0.0467  0.1280
 3187DPPE   NH360097  15.611  17.314  17.344  0.1717 -0.3319 -0.0165
 3187DPPE   PO460098  15.400  16.910  17.300 -0.1643 -0.0552 -0.1844
 3187DPPE   GL160099  15.201  17.276  17.063 -0.0719 -0.0337 -0.0140
 3187DPPE   GL260100  14.845  17.265  17.081 -0.2397 -0.0839 -0.3256
 3187DPPE   C1A60101  15.069  17.671  16.784  0.2128 -0.2313 -0.2411
 3187DPPE   C2A60102  14.764  17.934  16.779 -0.0695  0.0143  0.3360
 3187DPPE   C3A60103  14.505  18.084  16.867  0.0679 -0.1730  0.3230
 3187DPPE   C4A60104  14.027  18.230  16.936  0.0598 -0.0780  0.1903
 3187DPPE   C1B60105  14.535  17.443  16.805 -0.1178  0.0630 -0.1304
 3187DPPE   C2B60106  14.227  17.748  16.540 -0.0218 -0.0532  0.3644
 3187DPPE   C3B60107  14.032  18.067  16.420 -0.1716  0.2616 -0.0536
 3187DPPE   C4B60108  14.065  18.503  16.520  0.1317 -0.0818 -0.1265
 3188DPPE   NH360109   2.397   7.348   5.666 -0.1885 -0.2166 -0.0151
 3188DPPE   PO460110   2.239   7.292   5.245 -0.0330 -0.1311  0.0203
 3188DPPE   GL160111   2.406   7.665   5.294 -0.2200  0.1025  0.0450
 3188DPPE   GL260112   2.623   7.768   5.224  0.1044  0.0666 -0.1056
 3188DPPE   C1A60113   2.192   8.128   5.249  0.4838 -0.1828  0.0188
 3188DPPE   C2A60114   2.382   8.452   5.357  0.2790  0.0246 -0.0166
 3188DPPE   C3A60115   2.072   8.844   5.320  0.1373 -0.3904  0.2756
 3188DPPE   C4A60116   2.015   9.229   5.423 -0.0012  0.3920 -0.0478
 3188DPPE   C1B60117   2.721   8.138   5.494 -0.0849 -0.0052  0.0525
 3188DPPE   C2B60118   2.678   8.506   5.756  0.2467  0.1430 -0.0773
 3188DPPE   C3B60119   2.632   8.870   5.855  0.1678  0.0799 -0.0642
 3188DPPE   C4B60120   2.948   9.140   6.042 -0.1282 -0.1781 -0.3538
 3189DPPE   NH360121  12.768  24.160  20.723  0.3099 -0.0823  0.1884
 3189DPPE   PO460122  12.920  23.718  20.797  0.0246  0.0700  0.0144
 3189DPPE   GL160123  12.980  23.433  20.349 -0.1689  0.0461  0.3073
 3189DPPE   GL260124  12.970  23.542  19.997 -0.0851 -0.4338 -0.3904
 3189DPPE   C1A60125  12.708  23.165  20.018  0.4749  0.3305 -0.2519
 3189DPPE   C2A60126  12.481  23.223  19.585  0.2436 -0.1254 -0.1349
 3189DPPE   C3A60127  12.430  23.444  19.117  0.0476  0.1665 -0.1531
 3189DPPE   C4A60128  12.678  23.434  18.670 -0.0120 -0.2792 -0.1811
 3189DPPE   C1B60129  12.881  23.575  19.555 -0.1138 -0.2237  0.1737
 3189DPPE   C2B60130  12.664  23.902  19.294 -0.3960  0.1393  0.0042
 3189DPPE   C3B60131  12.152  23.856  19.351 -0.2290 -0.1001  0.3841
 3189DPPE   C4B60132  11.741  23.834  19.347  0.3158  0.0704 -0.4779
 3190DPPE   NH360133  33.670  11.914   3.719 -0.0327 -0.2813 -0.0858
 3190DPPE   PO460134  33.421  12.189   3.568 -0.0296 -0.1290  0.0396
 3190DPPE   GL160135  33.636  12.438   3.830  0.0151  0.2131  0.1060
 3190DPPE   GL260136  33.954  12.310   3.591 -0.1181  0.0587 -0.1212
 3190DPPE   C1A60137  33.681  12.692   4.117 -0.0488  0.0266  0.0516
 3190DPPE   C2A60138  34.022  12.838   4.246 -0.6511  0.2400 -0.1949
 3190DPPE   C3A60139  34.351  13.002   4.399  0.0680  0.2524  0.1734
 3190DPPE   C4A60140  34.591  13.328   4.557 -0.0484 -0.1636  0.0651
 3190DPPE   C1B60141  34.474  12.226   3.617 -0.2103 -0.1290  0.0843
 3190DPPE   C2B60142  34.758  12.055   3.773 -0.1995  0.0570 -0.1787
 3190DPPE   C3B60143  34.907  12.305   4.213  0.0810  0.0623  0.0375
 3190DPPE   C4B60144  35.196  12.532   4.275  0.0304  0.0072 -0.0434
 3191DPPE   NH360145   2.958  18.495  21.709  0.0288  0.2145 -0.0066
 3191DPPE   PO460146   2.576  18.263  21.836 -0.1615  0.0355  0.3563
 3191DPPE   GL160147   2.593  18.482  21.387 -0.0456  0.0325  0.2410
 3191DPPE   GL260148   2.447  18.657  21.351  0.2573 -0.1686  0.2816
 3191DPPE   C1A60149   2.759  18.773  20.966  0.3276 -0.1473 -0.1678
 3191DPPE   C2A60150   2.812  18.977  20.578 -0.1609  0.4218 -0.2481
 3191DPPE   C3A60151   2.977  19.054  20.097 -0.1082  0.0804  0.2288
 3191DPPE   C4A60152   3.139  19.303  19.721 -0.1740 -0.0442  0.0102
 3191DPPE   C1B60153   2.266  18.721  20.948  0.3090  0.1102 -0.2850
 3191DPPE   C2B60154   1.988  18.589  20.575  0.1276 -0.1126 -0.2088
 3191DPPE   C3B60155   2.011  18.329  20.193 -0.1906  0.0376  0.0345
 3191DPPE   C4B60156   1.763  18.295  19.808  0.0461 -0.1605 -0.4250
 3192DPPE   NH360157  16.821  17.285   2.926 -0.0821 -0.2687 -0.1623
 3192DPPE   PO460158  16.515  17.064   3.182 -0.0252 -0.3357 -0.1186
 3192DPPE   GL160159  16.474  17.221   3.549 -0.2981 -0.2371  0.2384
 3192DPPE   GL260160  16.255  17.131   3.800 -0.0690 -0.3220  0.0042
 3192DPPE   C1A60161  16.508  17.540   3.879  0.0843  0.0431 -0.4211
 3192DPPE   C2A60162  16.306  17.867   3.988  0.1299 -0.2011  0.1577
 3192DPPE   C3A60163  16.170  18.305   4.034  0.2034 -0.0136 -0.0383
 3192DPPE   C4A60164  15.938  18.618   4.319  0.0315 -0.4870 -0.1240
 3192DPPE   C1B60165  16.117  17.085   4.229 -0.6457 -0.0817 -0.2138
 3192DPPE   C2B60166  16.190  17.252   4.686 -0.1546 -0.3145  0.0131
 3192DPPE   C3B60167  16.544  17.351   4.960  0.1613  0.2190  0.0225
 3192DPPE   C4B60168  16.820  17.013   4.915  0.0982  0.1408  0.3825
 3193DPPE   NH360169   2.330  13.094  20.174 -0.0933  0.0443 -0.1102
 3193DPPE   PO460170   1.984  12.989  20.234 -0.0846  0.1351 -0.1015
 3193DPPE   GL160171   1.974  13.012  19.747 -0.0495 -0.0099 -0.2013
 3193DPPE   GL260172   2.106  12.696  19.581 -0.3004 -0.0264  0.0423
 3193DPPE   C1A60173   1.825  13.033  19.398 -0.0726 -0.2506 -0.1839
 3193DPPE   C2A60174   2.054  13.315  19.047 -0.0568  0.2143  0.1587
 3193DPPE   C3A60175   2.358  13.274  18.705  0.1084 -0.2586 -0.1732
 3193DPPE   C4A60176   2.626  13.298  18.356 -0.2904 -0.2578  0.0737
 3193DPPE   C1B60177   1.957  12.598  19.164 -0.2445 -0.1948  0.0307
 3193DPPE   C2B60178   1.626  12.683  19.050  0.0246  0.1588  0.1604
 3193DPPE   C3B60179   1.181  12.890  19.080  0.0009  0.1517  0.4273
 3193DPPE   C4B60180   0.908  13.127  19.260  0.1417 -0.0685 -0.0576
 3194DPPE   NH360181   4.637  13.774   6.501 -0.1060  0.0626 -0.0822
 3194DPPE   PO460182   4.288  13.725   6.808  0.0165 -0.0287  0.3309
 3194DPPE   GL160183   4.127  13.340   6.960 -0.0461  0.3599  0.2897
 3194DPPE   GL260184   4.129  13.202   7.186 -0.1362  0.2162  0.2393
 3194DPPE   C1A60185   3.940  12.889   6.760  0.1867  0.2036 -0.1731
 3194DPPE   C2A60186   3.709  12.514   6.843  0.1473 -0.1037 -0.2370
 3194DPPE   C3A60187   3.971  12.219   6.983  0.4920  0.0722 -0.2240
 3194DPPE   C4A60188   4.242  11.960   7.026  0.2705 -0.0691  0.0468
 3194DPPE   C1B60189   4.050  13.086   7.651 -0.0815 -0.1088 -0.0675
 3194DPPE   C2B60190   3.670  13.050   7.875 -0.1668 -0.0110 -0.1347
 3194DPPE   C3B60191   3.217  12.804   7.807  0.0436 -0.1853  0.0196
 3194DPPE   C4B60192   2.919  13.098   7.532  0.2702  0.1813  0.4003
 3195DPPE   NH360193  33.763  11.108  15.680 -0.1647  0.0561 -0.1516
 3195DPPE   PO460194  33.814  10.809  16.077  0.0380  0.0337 -0.0007
 3195DPPE   GL160195  33.998  11.215  16.132  0.0401 -0.0388 -0.0133
 3195DPPE   GL260196  34.103  11.428  15.840  0.1544  0.0251  0.0955
 3195DPPE   C1A60197  34.429  11.404  16.190  0.0902 -0.2282  0.0037
 3195DPPE   C2A60198  34.893  11.539  16.164  0.2403 -0.0710 -0.0836
 3195DPPE   C3A60199  35.266  11.564  15.862 -0.1481 -0.1497 -0.2367
 3195DPPE   C4A60200  35.450  11.831  15.493  0.0880  0.1111 -0.0378
 3195DPPE   C1B60201  34.094  11.831  16.021 -0.1443  0.0413  0.0016
 3195DPPE   C2B60202  34.471  12.140  15.903  0.1309  0.1980 -0.0499
 3195DPPE   C3B60203  34.603  12.199  15.581  0.1715  0.0765  0.2059
 3195DPPE   C4B60204  34.435  12.162  15.153 -0.1933 -0.2532  0.1109
 3196DPPE   NH360205   0.425  18.917  11.180 -0.3326  0.3337 -0.1947
 3196DPPE   PO460206   0.303  18.806  11.542 -0.0399  0.2716  0.0831
 3196DPPE   GL160207  -0.148  18.719  11.583 -0.3291  0.2120  0.1412
 3196DPPE   GL260208  -0.152  18.511  11.891 -0.1105  0.1839  0.3890
 3196DPPE   C1A60209  -0.551  18.702  11.660  0.2545 -0.0425  0.2146
 3196DPPE   C2A60210  -0.910  18.436  11.605 -0.2338 -0.2318  0.0564
 3196DPPE   C3A60211  -1.334  18.363  11.463 -0.1619  0.1471  0.5186
 3196DPPE   C4A60212  -1.774  18.357  11.291  0.1459 -0.6985 -0.0102
 3196DPPE   C1B60213  -0.553  18.335  12.012  0.1066 -0.0671  0.0748
 3196DPPE   C2B60214  -0.886  18.366  12.167 -0.0243 -0.1225  0.6042
 3196DPPE   C3B60215  -1.114  18.672  12.376 -0.1767 -0.0355  0.1703
 3196DPPE   C4B60216  -1.303  18.475  12.682 -0.2403  0.1879  0.1289
 3197DPPE   NH360217  31.256  15.497   5.239 -0.0623 -0.0764  0.2457
 3197DPPE   PO460218  31.329  15.958   5.179  0.0409  0.0915 -0.1777
 3197DPPE   GL160219  31.336  15.940   5.596  0.0746  0.0817 -0.1702
 3197DPPE   GL260220  31.510  15.685   5.713  0.3267 -0.0096 -0.1153
 3197DPPE   C1A60221  31.685  16.228   5.771  0.0712 -0.4073  0.0906
 3197DPPE   C2A60222  31.950  16.175   5.940 -0.4603 -0.0720  0.0043
 3197DPPE   C3A60223  32.345  16.392   5.905 -0.1215 -0.0153  0.0153
 3197DPPE   C4A60224  32.674  16.635   6.002 -0.0637  0.3652  0.1391
 3197DPPE   C1B60225  31.840  15.701   5.956 -0.0437 -0.0061  0.3130
 3197DPPE   C2B60226  32.076  15.473   5.946 -0.1461  0.1102 -0.0827
 3197DPPE   C3B60227  32.482  15.385   5.957 -0.0155 -0.0655  0.0028
 3197DPPE   C4B60228  32.691  15.193   5.684 -0.1379  0.1326 -0.0683
 3198DPPE   NH360229  37.751  10.583   1.124 -0.0353  0.0214  0.0523
 3198DPPE   PO460230  37.985  10.857   1.449  0.2215 -0.1002 -0.3528
 3198DPPE   GL160231  38.170  11.111   1.625 -0.1482  0.0456  0.2591
 3198DPPE   GL260232  38.309  11.296   1.392 -0.0735 -0.2638  0.1228
 3198DPPE   C1A60233  38.193  11.201   2.053  0.4122  0.0362  0.1498
 3198DPPE   C2A60234  38.210  11.369   2.424 -0.1489 -0.0203 -0.0413
 3198DPPE   C3A60235  38.146  11.528   2.815 -0.3162 -0.0051  0.3529
 3198DPPE   C4A60236  38.017  11.692   3.261  0.1163 -0.0753  0.1790
 3198DPPE   C1B60237  38.458  11.492   1.715  0.1838 -0.0054 -0.2250
 3198DPPE   C2B60238  38.390  11.735   2.024  0.2746  0.2929 -0.1925
 3198DPPE   C3B60239  38.499  12.186   2.124 -0.0761  0.2072  0.1041
 3198DPPE   C4B60240  38.355  12.358   2.511  0.0528 -0.0430 -0.0278
 3199DPPE   NH360241  35.387  22.431  18.528 -0.1178  0.0995 -0.0229
 3199DPPE   PO460242  35.099  22.147  18.896  0.0464  0.2419  0.1507
 3199DPPE   GL160243  35.012  21.954  18.430 -0.3865 -0.1999 -0.1017
 3199DPPE   GL260244  34.855  22.175  18.276 -0.0700 -0.1443 -0.2025
 3199DPPE   C1A60245  35.036  21.708  17.968  0.1539  0.0484  0.2181
 3199DPPE   C2A60246  35.059  21.697  17.541 -0.3242  0.1589  0.1288
 3199DPPE   C3A60247  35.241  21.793  17.150 -0.1070 -0.0681  0.1747
 3199DPPE   C4A60248  35.081  21.653  16.801 -0.1421 -0.0571  0.0833
 3199DPPE   C1B60249  34.889  22.191  17.876  0.1320 -0.3851 -0.1338
 3199DPPE   C2B60250  35.154  22.186  17.565 -0.0930 -0.2549 -0.1092
 3199DPPE   C3B60251  35.276  22.317  17.173 -0.0740  0.1056  0.2253
 3199DPPE   C4B60252  35.250  22.120  16.750 -0.2256 -0.0391 -0.2913
 3200DPPE   NH360253  15.182  13.221  12.001 -0.2377 -0.0387 -0.1845
 3200DPPE   PO460254  15.041  12.880  11.706 -0.3281  0.1435 -0.2584
 3200DPPE   GL160255  14.899  13.266  11.591 -0.0975  0.0212 -0.1785
 3200DPPE   GL260256  14.814  13.266  11.262 -0.3187  0.5073  0.0494
 3200DPPE   C1A60257  14.589  13.672  11.621  0.1417  0.0889 -0.0877
 3200DPPE   C2A60258  14.349  14.106  11.516  0.1103 -0.3632 -0.0987
 3200DPPE   C3A60259  14.286  14.544  11.573 -0.0001  0.1650  0.3753
 3200DPPE   C4A60260  14.138  15.001  11.596 -0.1660  0.1000  0.1858
 3200DPPE   C1B60261  14.395  13.419  11.185  0.1205 -0.0346 -0.0855
 3200DPPE   C2B60262  13.975  13.705  11.130 -0.3626  0.2133  0.0770
 3200DPPE   C3B60263  13.560  13.974  10.924  0.1331 -0.0842  0.1660
 3200DPPE   C4B60264  13.148  14.239  10.988  0.0502  0.2429 -0.0825
 3201DPPE   NH360265   3.219   7.339   5.506  0.0054  0.2084 -0.0563
 3201DPPE   PO460266   2.829   7.314   5.371  0.0001 -0.0856  0.0626
 3201DPPE   GL160267   2.775   7.637   5.671 -0.2314 -0.2506  0.0895
 3201DPPE   GL260268   3.058   7.797   5.570 -0.2158  0.0819  0.2235
 3201DPPE   C1A60269   2.773   7.979   5.956 -0.3705 -0.1136 -0.2121
 3201DPPE   C2A60270   2.480   8.225   6.154  0.2369  0.1995  0.0184
 3201DPPE   C3A60271   2.261   8.581   6.073  0.0481  0.1946 -0.2956
 3201DPPE   C4A60272   2.034   8.925   5.880 -0.0199  0.2299  0.1310
 3201DPPE   C1B60273   3.232   8.121   5.954  0.0872  0.1577 -0.1637
 3201DPPE   C2B60274   3.054   8.445   6.020 -0.1832 -0.1508  0.2935
 3201DPPE   C3B60275   2.785   8.667   6.266 -0.1857  0.1800 -0.1995
 3201DPPE   C4B60276   2.622   8.954   6.520  0.0686 -0.4854 -0.1279
 3202DPPE   NH360277   6.696   9.137   9.135 -0.2057 -0.0385  0.0666
 3202DPPE   PO460278   6.192   9.131   9.203  0.1824 -0.1132 -0.0071
 3202DPPE   GL160279   6.002   9.437   8.894  0.1285 -0.0825 -0.1850
 3202DPPE   GL260280   6.033   9.599   8.574 -0.2131  0.1872 -0.1791
 3202DPPE   C1A60281   5.955   9.859   9.002 -0.0648  0.1203 -0.2669
 3202DPPE   C2A60282   5.804  10.167   9.126  0.2664 -0.0027 -0.2713
 3202DPPE   C3A60283   5.733  10.543   9.256  0.2450 -0.1282 -0.2287
 3202DPPE   C4A60284   5.855  10.878   9.056 -0.1319 -0.0334 -0.0837
 3202DPPE   C1B60285   5.926  10.107   8.486  0.1961 -0.1433 -0.1536
 3202DPPE   C2B60286   5.802  10.524   8.667 -0.2799  0.1034  0.2141
 3202DPPE   C3B60287   5.430  10.778   8.753 -0.3471  0.0367  0.2586
 3202DPPE   C4B60288   5.121  10.926   8.607  0.0019 -0.0064 -0.0503
 3203DPPE   NH360289   1.304  21.250  16.871 -0.3361  0.1095 -0.2352
 3203DPPE   PO460290   1.192  21.260  16.548 -0.1939 -0.0041  0.5225
 3203DPPE   GL160291   0.876  21.512  16.870  0.0550  0.1060 -0.1033
 3203DPPE   GL260292   0.968  21.479  17.186 -0.3402  0.1261 -0.0471
 3203DPPE   C1A60293   0.446  21.400  17.051  0.0526 -0.4000 -0.0739
 3203DPPE   C2A60294   0.087  21.398  17.293  0.1973  0.2824 -0.1003
 3203DPPE   C3A60295  -0.257  21.341  17.457  0.3519  0.1584 -0.0063
 3203DPPE   C4A60296  -0.660  21.470  17.421 -0.0748  0.2146  0.2988
 3203DPPE   C1B60297   0.729  21.715  17.359 -0.3780  0.2490 -0.1422
 3203DPPE   C2B60298   0.396  22.078  17.620 -0.0715  0.0216 -0.1389
 3203DPPE   C3B60299   0.389  21.911  18.089 -0.0048 -0.1083 -0.2169
 3203DPPE   C4B60300   0.185  21.737  18.364 -0.0832  0.0171  0.0055
 3204DPPE   NH360301   3.790  15.235  10.717  0.0902 -0.1333 -0.2410
 3204DPPE   PO460302   3.685  15.119  11.151  0.0193 -0.1389 -0.1942
 3204DPPE   GL160303   3.508  14.793  11.125  0.2464 -0.0857  0.0089
 3204DPPE   GL260304   3.152  14.813  11.139  0.0337  0.1996  0.0365
 3204DPPE   C1A60305   3.240  14.442  10.868  0.1306 -0.1755  0.1487
 3204DPPE   C2A60306   2.837  14.189  10.880  0.1924  0.3561 -0.2173
 3204DPPE   C3A60307   2.919  13.777  11.112 -0.0534 -0.1125  0.0074
 3204DPPE   C4A60308   2.734  13.362  11.134 -0.1214 -0.1091  0.1078
 3204DPPE   C1B60309   3.244  14.779  11.589  0.2564  0.3055 -0.0025
 3204DPPE   C2B60310   3.344  14.569  11.988  0.0395 -0.3102  0.0625
 3204DPPE   C3B60311   3.091  14.581  12.331 -0.0150 -0.1414  0.1339
 3204DPPE   C4B60312   2.785  14.226  12.293  0.1710 -0.0364 -0.2657
 3205DPPE   NH360313   1.389  27.705   1.682  0.0561  0.0124 -0.0358
 3205DPPE   PO460314   1.211  27.731   2.048  0.2402 -0.1314 -0.0904
 3205DPPE   GL160315   1.551  27.453   2.070  0.1420  0.0191 -0.4045
 3205DPPE   GL260316   1.633  27.283   1.905 -0.0575 -0.1602 -0.1054
 3205DPPE   C1A60317   1.745  27.343   2.468 -0.0454  0.0087  0.1659
 3205DPPE   C2A60318   1.617  27.041   2.813  0.0621  0.3230  0.0593
 3205DPPE   C3A60319   1.553  26.750   3.147 -0.1765  0.0841  0.1611
 3205DPPE   C4A60320   1.662  26.414   3.382  0.1919 -0.1344 -0.0691
 3205DPPE   C1B60321   1.622  26.954   2.103  0.0259 -0.1577 -0.3149
 3205DPPE   C2B60322   1.854  26.825   2.409  0.3366 -0.1711 -0.3587
 3205DPPE   C3B60323   1.853  26.591   2.763  0.0321 -0.0578  0.3257
 3205DPPE   C4B60324   1.892  26.213   2.973  0.2663  0.0202  0.0757
 3206DPPE   NH360325   6.252   9.241   5.930 -0.1582 -0.1528  0.1805
 3206DPPE   PO460326   6.616   9.249   6.128 -0.0693 -0.1882  0.0820
 3206DPPE   GL160327   6.382   9.662   6.295 -0.0410 -0.1247  0.1935
 3206DPPE   GL260328   6.085   9.558   6.311 -0.0776 -0.2120  0.1436
 3206DPPE   C1A60329   6.339  10.107   6.445  0.0561  0.2256  0.1354
 3206DPPE   C2A60330   6.298  10.331   6.890 -0.1282  0.1754 -0.0489
 3206DPPE   C3A60331   6.249  10.630   7.189  0.0560  0.1836  0.1910
 3206DPPE   C4A60332   6.205  11.052   7.262 -0.1709  0.0566 -0.0641
 3206DPPE   C1B60333   5.879   9.988   6.464 -0.0894  0.0477 -0.0566
 3206DPPE   C2B60334   5.648  10.343   6.662  0.0961  0.1902 -0.0041
 3206DPPE   C3B60335   5.810  10.339   7.156 -0.0965 -0.0203 -0.1669
 3206DPPE   C4B60336   6.207  10.190   7.466 -0.0744 -0.0722 -0.0411
 3207DPPE   NH360337  30.172  16.090  10.645  0.0731  0.1637 -0.0300
 3207DPPE   PO460338  29.909  16.444  10.414 -0.2079 -0.0905 -0.1451
 3207DPPE   GL160339  30.267  16.579  10.651  0.2798  0.0957  0.2647
 3207DPPE   GL260340  30.482  16.392  10.916  0.1120  0.1849  0.4403
 3207DPPE   C1A60341  30.518  16.946  10.688  0.2895  0.0969  0.0851
 3207DPPE   C2A60342  30.769  17.161  10.556  0.2781 -0.1087 -0.1092
 3207DPPE   C3A60343  30.971  17.559  10.822 -0.1796 -0.1484  0.0388
 3207DPPE   C4A60344  31.111  18.021  10.928  0.1508 -0.0065  0.2487
 3207DPPE   C1B60345  30.642  16.652  11.193 -0.0176  0.0310 -0.2474
 3207DPPE   C2B60346  30.844  17.009  11.068 -0.0094  0.2771 -0.3058
 3207DPPE   C3B60347  31.233  17.155  11.034 -0.1443 -0.1678 -0.0446
 3207DPPE   C4B60348  31.216  17.090  10.630 -0.0495  0.1697 -0.0939
 3208DPPE   NH360349  38.112  21.154  10.910 -0.0125 -0.3594 -0.2477
 3208DPPE   PO460350  37.902  21.001  10.554 -0.0345 -0.3367  0.2993
 3208DPPE   GL160351  37.678  20.713  10.620 -0.2126 -0.0835 -0.1211
 3208DPPE   GL260352  37.697  20.533  10.813  0.1877  0.1195 -0.1916
 3208DPPE   C1A60353  37.245  20.544  10.539 -0.2466  0.1183 -0.1880
 3208DPPE   C2A60354  36.877  20.617  10.586 -0.0576  0.1564  0.0253
 3208DPPE   C3A60355  36.581  20.926  10.574  0.0717 -0.0958  0.2568
 3208DPPE   C4A60356  36.304  21.153  10.325  0.1573  0.1655  0.0384
 3208DPPE   C1B60357  37.378  20.368  10.997 -0.2249  0.3144  0.1238
 3208DPPE   C2B60358  36.931  20.247  11.063  0.1042  0.1670  0.0044
 3208DPPE   C3B60359  36.567  20.553  11.056 -0.1882 -0.1179 -0.1172
 3208DPPE   C4B60360  36.379  20.807  11.282  0.0470 -0.0733 -0.3159
 3209DPPE   NH360361   3.204  16.569  11.899  0.3741 -0.1097  0.1836
 3209DPPE   PO460362   2.842  16.307  11.661 -0.1346  0.0667  0.3358
 3209DPPE   GL160363   2.660  15.987  11.733 -0.0440  0.2058  0.1093
 3209DPPE   GL260364   2.914  15.769  11.598  0.0526 -0.0354 -0.0987
 3209DPPE   C1A60365   2.405  15.859  12.191 -0.0097  0.1827  0.1244
 3209DPPE   C2A60366   2.208  15.524  12.348  0.2073  0.5017  0.3667
 3209DPPE   C3A60367   2.026  15.132  12.320  0.2002  0.0619  0.2678
 3209DPPE   C4A60368   2.211  14.975  12.639  0.2228 -0.2110  0.2585
 3209DPPE   C1B60369   2.485  15.453  11.557  0.1416 -0.4605  0.0901
 3209DPPE   C2B60370   2.226  15.314  11.393 -0.2579  0.2965 -0.0481
 3209DPPE   C3B60371   2.131  15.042  11.164 -0.0383  0.0420  0.0506
 3209DPPE   C4B60372   1.937  14.838  10.872 -0.0716  0.1362  0.3796
 3210DPPE   NH360373  10.063  30.820  17.815 -0.0276 -0.1278 -0.1818
 3210DPPE   PO460374   9.831  30.464  17.933 -0.0180  0.1420  0.1794
 3210DPPE   GL160375   9.765  30.220  17.599  0.0606  0.0752 -0.1193
 3210DPPE   GL260376   9.429  30.072  17.565 -0.2141 -0.0420 -0.1915
 3210DPPE   C1A60377   9.828  29.993  17.276  0.0199  0.0285  0.1573
 3210DPPE   C2A60378  10.202  29.870  16.980  0.0428 -0.1648  0.0643
 3210DPPE   C3A60379  10.552  29.615  16.821  0.0431 -0.1749 -0.1709
 3210DPPE   C4A60380  10.752  29.331  16.812  0.0486  0.1249  0.0941
 3210DPPE   C1B60381   9.451  30.269  17.086  0.0098 -0.2937 -0.1391
 3210DPPE   C2B60382   9.308  30.031  16.663  0.1316 -0.2803 -0.1531
 3210DPPE   C3B60383   9.259  29.665  16.673 -0.1327  0.3209 -0.0451
 3210DPPE   C4B60384   9.020  29.323  16.736 -0.1361  0.1360 -0.0152
 3211DPPE   NH360385   6.567  25.821  25.764 -0.1275 -0.2820 -0.1771
 3211DPPE   PO460386   6.143  25.885  25.843  0.0215  0.1533  0.0507
 3211DPPE   GL160387   6.342  25.549  26.123  0.2093 -0.3490 -0.2934
 3211DPPE   GL260388   6.126  25.312  26.195 -0.1332  0.3394  0.1400
 3211DPPE   C1A60389   6.563  25.387  26.485  0.2892 -0.2897 -0.0685
 3211DPPE   C2A60390   6.718  25.221  26.868  0.0589 -0.0551 -0.1526
 3211DPPE   C3A60391   6.695  24.868  27.205 -0.0627  0.0436  0.0690
 3211DPPE   C4A60392   6.604  24.911  27.554  0.1058  0.0806  0.0369
 3211DPPE   C1B60393   6.130  25.165  26.546 -0.0842  0.3618 -0.1339
 3211DPPE   C2B60394   6.082  25.013  26.867 -0.4841 -0.0947  0.0926
 3211DPPE   C3B60395   6.180  24.970  27.227  0.0606  0.3492 -0.0819
 3211DPPE   C4B60396   6.031  24.815  27.706  0.0401 -0.1426  0.1788
 3212DPPE   NH360397   0.163   6.890   6.071 -0.1431 -0.0333 -0.1332
 3212DPPE   PO460398  -0.071   6.757   6.506  0.2059  0.0043 -0.1899
 3212DPPE   GL160399   0.072   7.146   6.520 -0.0912 -0.1509  0.1079
 3212DPPE   GL260400   0.063   7.385   6.362 -0.0044  0.1102 -0.2976
 3212DPPE   C1A60401  -0.066   7.356   6.890 -0.1455 -0.2382  0.3058
 3212DPPE   C2A60402  -0.097   7.537   7.353 -0.1507 -0.0848 -0.3632
 3212DPPE   C3A60403  -0.207   7.843   7.639  0.0471 -0.0499 -0.0363
 3212DPPE   C4A60404  -0.520   7.964   7.828 -0.1357  0.0983  0.1337
 3212DPPE   C1B60405   0.248   7.751   6.254  0.1259 -0.1073 -0.0526
 3212DPPE   C2B60406   0.501   8.159   6.379 -0.2104 -0.0497 -0.0117
 3212DPPE   C3B60407   0.763   8.489   6.526 -0.1500  0.0611 -0.0353
 3212DPPE   C4B60408   0.933   8.923   6.718  0.0760  0.0525  0.0411
 3213DPPE   NH360409  34.050   9.550  12.013 -0.1728  0.0136  0.0355
 3213DPPE   PO460410  33.943   9.489  11.660  0.1667 -0.0543 -0.1187
 3213DPPE   GL160411  34.263   9.854  11.656 -0.1095  0.0126 -0.4263
 3213DPPE   GL260412  34.220  10.058  12.037 -0.0071 -0.0800  0.0503
 3213DPPE   C1A60413  34.628  10.121  11.685 -0.2093 -0.1830 -0.1056
 3213DPPE   C2A60414  35.027  10.267  11.539  0.0575 -0.1799 -0.1301
 3213DPPE   C3A60415  35.407  10.365  11.515  0.2029  0.2672 -0.2815
 3213DPPE   C4A60416  35.671  10.657  11.631 -0.1500 -0.0053  0.0866
 3213DPPE   C1B60417  34.584   9.867  12.226 -0.1984 -0.2335 -0.0251
 3213DPPE   C2B60418  35.061   9.755  12.426  0.2979 -0.0439  0.1323
 3213DPPE   C3B60419  35.444   9.882  12.535  0.0691 -0.0748 -0.2176
 3213DPPE   C4B60420  35.330  10.265  12.437  0.1226 -0.0852  0.2598
 3214DPPE   NH360421   2.265  18.095  15.918 -0.0881 -0.3087 -0.0175
 3214DPPE   PO460422   2.490  17.844  16.185 -0.1325  0.0157 -0.2816
 3214DPPE   GL160423   2.080  17.810  16.340 -0.0220  0.0742  0.0720
 3214DPPE   GL260424   2.088  17.913  16.660  0.2346  0.0388 -0.2566
 3214DPPE   C1A60425   1.652  17.689  16.503  0.1682  0.2502  0.0918
 3214DPPE   C2A60426   1.239  17.727  16.418 -0.1109  0.0263 -0.2757
 3214DPPE   C3A60427   1.000  17.473  15.972 -0.1041 -0.0422  0.3424
 3214DPPE   C4A60428   0.631  17.343  15.931 -0.3154 -0.0479  0.1314
 3214DPPE   C1B60429   1.738  17.749  16.965 -0.0339  0.0126  0.1750
 3214DPPE   C2B60430   1.400  17.692  17.165 -0.1051 -0.0161 -0.1406
 3214DPPE   C3B60431   1.106  17.628  17.375  0.0571  0.0244  0.0555
 3214DPPE   C4B60432   0.991  17.828  17.774  0.0584  0.3047  0.0280
 3215DPPE   NH360433  34.773   9.440   9.144 -0.3364 -0.1191 -0.2857
 3215DPPE   PO460434  34.946   9.124   9.265 -0.5108  0.0364 -0.1935
 3215DPPE   GL160435  35.236   9.445   9.381 -0.1206  0.0895 -0.1080
 3215DPPE   GL260436  35.259   9.489   9.773  0.0334 -0.2981 -0.1750
 3215DPPE   C1A60437  35.758   9.280   9.604 -0.0550 -0.1389 -0.0736
 3215DPPE   C2A60438  36.083   8.940   9.752 -0.3167 -0.1726 -0.3172
 3215DPPE   C3A60439  36.411   8.893   9.990 -0.2683 -0.1249  0.4446
 3215DPPE   C4A60440  36.618   9.058  10.351 -0.1280 -0.2891  0.0966
 3215DPPE   C1B60441  35.504   9.821   9.942  0.1000 -0.3309 -0.3145
 3215DPPE   C2B60442  35.588  10.181  10.183 -0.1968 -0.2370  0.0905
 3215DPPE   C3B60443  35.959  10.590  10.281  0.0458 -0.0679 -0.0132
 3215DPPE   C4B60444  35.924  10.776   9.914 -0.0497 -0.2704 -0.0423
 3216DPPE   NH360445   3.021   7.842  15.338  0.1551 -0.1114 -0.1055
 3216DPPE   PO460446   2.698   7.885  15.470  0.0694 -0.0276  0.1381
 3216DPPE   GL160447   2.250   8.004  15.440 -0.3987  0.0991 -0.1479
 3216DPPE   GL260448   2.312   8.353  15.520  0.0747  0.3337  0.2400
 3216DPPE   C1A60449   2.058   8.041  15.082  0.0914  0.0035  0.2679
 3216DPPE   C2A60450   1.748   8.341  14.916 -0.2485 -0.0291  0.0054
 3216DPPE   C3A60451   1.434   8.589  14.599 -0.2649  0.3625 -0.1059
 3216DPPE   C4A60452   1.200   8.947  14.573 -0.3070  0.1904 -0.3348
 3216DPPE   C1B60453   2.316   8.440  15.140 -0.2043  0.1650  0.2644
 3216DPPE   C2B60454   2.070   8.678  14.944 -0.1863 -0.1227 -0.0022
 3216DPPE   C3B60455   1.758   8.863  14.900  0.3403  0.2644 -0.1292
 3216DPPE   C4B60456   1.611   9.192  14.611 -0.1034 -0.1205 -0.0927
 3217DPPE   NH360457   5.743  18.177  24.849 -0.1929  0.1106  0.1583
 3217DPPE   PO460458   5.652  18.648  24.769 -0.0883 -0.1479  0.0625
 3217DPPE   GL160459   5.781  18.869  25.056  0.1378 -0.2077 -0.3691
 3217DPPE   GL260460   6.128  18.883  24.953 -0.0256  0.0161 -0.0726
 3217DPPE   C1A60461   5.986  18.844  25.539 -0.2290  0.1241  0.1251
 3217DPPE   C2A60462   6.077  18.932  26.073  0.0638 -0.0726  0.2228
 3217DPPE   C3A60463   6.354  19.179  26.297  0.0932  0.1029 -0.1002
 3217DPPE   C4A60464   6.714  19.272  26.529  0.2101 -0.0952 -0.0380
 3217DPPE   C1B60465   6.401  19.079  25.324 -0.2099 -0.0681 -0.1513
 3217DPPE   C2B60466   6.581  19.105  25.717  0.8250  0.1508 -0.0783
 3217DPPE   C3B60467   6.815  19.239  26.039 -0.2080 -0.1982  0.1337
 3217DPPE   C4B60468   7.257  19.239  26.185 -0.0019 -0.5046 -0.2792
 3218DPPE   NH360469   1.359  17.807   9.123 -0.2266  0.1026 -0.1984
 3218DPPE   PO460470   1.433  17.861   9.622 -0.1224  0.1318 -0.0856
 3218DPPE   GL160471   1.127  17.455   9.721 -0.1174 -0.1700  0.3163
 3218DPPE   GL260472   0.902  17.525   9.517 -0.2331 -0.0256 -0.0203
 3218DPPE   C1A60473   0.688  17.324   9.841  0.1832 -0.0342 -0.1965
 3218DPPE   C2A60474   0.262  17.227  10.064 -0.3917 -0.0891 -0.0399
 3218DPPE   C3A60475  -0.199  17.199  10.209  0.1767 -0.3058 -0.2416
 3218DPPE   C4A60476  -0.672  17.217  10.307 -0.2122 -0.2785 -0.1561
 3218DPPE   C1B60477   0.416  17.705   9.675  0.0916 -0.1498  0.0384
 3218DPPE   C2B60478  -0.043  17.595   9.771 -0.2190  0.3081 -0.0178
 3218DPPE   C3B60479  -0.402  17.506   9.850  0.2302  0.3239 -0.0284
 3218DPPE   C4B60480  -0.823  17.392   9.658 -0.0428 -0.1002 -0.2665
 3219DPPE   NH360481  33.345  13.339  19.021  0.0440  0.4374  0.1507
 3219DPPE   PO460482  33.540  13.314  18.588  0.1113  0.0323  0.1374
 3219DPPE   GL160483  33.730  13.641  18.358  0.1291  0.2110 -0.0231
 3219DPPE   GL260484  33.717  14.008  18.460  0.4225  0.0927 -0.0348
 3219DPPE   C1A60485  33.705  13.801  17.974  0.0494 -0.0196  0.2880
 3219DPPE   C2A60486  33.934  14.050  17.698  0.1823  0.0606  0.0203
 3219DPPE   C3A60487  34.257  14.255  17.691  0.1754  0.4219  0.1564
 3219DPPE   C4A60488  34.608  14.507  17.766 -0.0609 -0.1443 -0.2015
 3219DPPE   C1B60489  34.143  13.907  18.166 -0.1358  0.1769  0.0771
 3219DPPE   C2B60490  34.527  13.916  17.983  0.0774  0.1237 -0.1134
 3219DPPE   C3B60491  34.846  14.089  17.755 -0.3211  0.1924  0.0322
 3219DPPE   C4B60492  35.336  14.106  17.696  0.2115  0.0113 -0.1453
 3220DPPE   NH360493   4.521   8.363   6.029  0.0054 -0.0271  0.2078
 3220DPPE   PO460494   4.922   8.499   6.241 -0.0789 -0.0839  0.0280
 3220DPPE   GL160495   4.750   8.907   6.270  0.1862 -0.2057 -0.0033
 3220DPPE   GL260496   4.840   9.202   6.467  0.0627 -0.0909  0.1212
 3220DPPE   C1A60497   4.284   9.088   6.344  0.1718  0.0138 -0.2771
 3220DPPE   C2A60498   4.038   9.362   6.077  0.1655 -0.4452 -0.0478
 3220DPPE   C3A60499   3.651   9.375   5.944  0.2372  0.0920  0.1282
 3220DPPE   C4A60500   3.311   9.492   6.190 -0.1157  0.3501  0.0326
 3220DPPE   C1B60501   4.591   9.465   6.659  0.0955  0.2368 -0.0746
 3220DPPE   C2B60502   4.185   9.569   6.566 -0.0316 -0.2213 -0.0766
 3220DPPE   C3B60503   3.831   9.782   6.412 -0.0095 -0.2555 -0.1108
 3220DPPE   C4B60504   3.448   9.929   6.374  0.2596  0.1949 -0.0968
 3221DPPE   NH360505  36.317  10.099  18.252 -0.1446  0.1906 -0.1376
 3221DPPE   PO460506  36.084  10.455  18.139  0.0108 -0.4546  0.1227
 3221DPPE   GL160507  36.272  10.804  18.016 -0.0292 -0.0596 -0.1192
 3221DPPE   GL260508  36.494  11.048  18.095 -0.1212  0.2692  0.0154
 3221DPPE   C1A60509  36.553  10.820  17.645  0.1751  0.0764  0.0804
 3221DPPE   C2A60510  36.786  10.789  17.357  0.1380 -0.1197  0.0886
 3221DPPE   C3A60511  37.340  10.856  17.150 -0.1900  0.1057 -0.1165
 3221DPPE   C4A60512  37.674  10.817  16.847 -0.0422  0.1805  0.2100
 3221DPPE   C1B60513  36.486  11.327  17.725  0.0902 -0.1027  0.2712
 3221DPPE   C2B60514  36.428  11.549  17.309 -0.1261 -0.1401 -0.1699
 3221DPPE   C3B60515  36.520  11.875  17.071  0.1124  0.1783 -0.2707
 3221DPPE   C4B60516  36.386  12.233  16.830 -0.1499  0.3977  0.2976
 3222DPPE   NH360517   7.119  21.249  23.413  0.1019  0.1333  0.1486
 3222DPPE   PO460518   7.024  21.304  22.957 -0.1534 -0.2268 -0.0477
 3222DPPE   GL160519   7.093  21.451  22.478  0.0093  0.1238 -0.0036
 3222DPPE   GL260520   7.388  21.693  22.422  0.1479 -0.0429  0.3038
 3222DPPE   C1A60521   7.120  21.569  22.035 -0.1069  0.2865  0.1266
 3222DPPE   C2A60522   7.293  21.621  21.638  0.1092 -0.1409 -0.0676
 3222DPPE   C3A60523   7.516  21.661  21.275  0.2214 -0.0399 -0.1743
 3222DPPE   C4A60524   7.656  21.410  20.935 -0.1005  0.1144 -0.4104
 3222DPPE   C1B60525   7.615  21.744  22.055  0.2624 -0.0390 -0.1570
 3222DPPE   C2B60526   7.706  21.901  21.735 -0.1819  0.1331  0.0498
 3222DPPE   C3B60527   8.055  21.649  21.460 -0.0624 -0.0088 -0.1565
 3222DPPE   C4B60528   8.141  21.371  21.056  0.0783 -0.2146  0.2590
 3223DPPE   NH360529  29.208  18.065  10.821 -0.3243 -0.3376 -0.3302
 3223DPPE   PO460530  29.552  18.382  10.659 -0.1449  0.0425 -0.1153
 3223DPPE   GL160531  29.805  18.296  10.268  0.0428 -0.0041 -0.1088
 3223DPPE   GL260532  29.754  18.522  10.047  0.1030  0.1321  0.0245
 3223DPPE   C1A60533  30.101  18.075  10.126  0.1566 -0.3249  0.1020
 3223DPPE   C2A60534  30.412  17.783  10.008 -0.2614  0.2415  0.0998
 3223DPPE   C3A60535  30.831  17.637   9.903  0.0165  0.0937  0.1996
 3223DPPE   C4A60536  31.053  17.924   9.610  0.2391  0.1018 -0.0062
 3223DPPE   C1B60537  30.201  18.693  10.124  0.1868 -0.2158  0.1410
 3223DPPE   C2B60538  30.661  18.600  10.042 -0.0295 -0.2474  0.1954
 3223DPPE   C3B60539  31.015  18.412  10.197 -0.4271 -0.3001  0.1022
 3223DPPE   C4B60540  31.282  18.076  10.129  0.0336 -0.0707 -0.0638
 3224DPPE   NH360541  29.532  21.636   8.127 -0.1055 -0.1825  0.1705
 3224DPPE   PO460542  29.422  21.750   7.795 -0.2655  0.3398  0.1767
 3224DPPE   GL160543  29.967  21.702   7.849 -0.2268 -0.1862  0.0058
 3224DPPE   GL260544  30.082  21.411   7.680  0.1993  0.2816  0.0762
 3224DPPE   C1A60545  30.332  21.799   7.988 -0.1420 -0.2420  0.3909
 3224DPPE   C2A60546  30.746  21.921   8.048  0.1858  0.2324  0.2864
 3224DPPE   C3A60547  30.773  22.260   8.276  0.0381 -0.4403 -0.3952
 3224DPPE   C4A60548  30.899  22.251   8.674 -0.3426 -0.3379  0.1740
 3224DPPE   C1B60549  30.509  21.167   7.742 -0.0960  0.1974  0.0196
 3224DPPE   C2B60550  30.586  20.826   8.026 -0.0927  0.1622 -0.2056
 3224DPPE   C3B60551  30.726  20.933   8.435 -0.3006  0.0645 -0.0168
 3224DPPE   C4B60552  30.976  21.327   8.646 -0.1011 -0.1447 -0.0155
 3225DPPE   NH360553  33.226  11.174  15.777 -0.0768 -0.2149 -0.1271
 3225DPPE   PO460554  33.510  11.268  16.124  0.0553  0.0957  0.0653
 3225DPPE   GL160555  33.526  11.589  15.753  0.0267 -0.1320 -0.0121
 3225DPPE   GL260556  33.394  11.865  15.638 -0.1175  0.1991  0.0085
 3225DPPE   C1A60557  33.870  11.784  15.584 -0.0948  0.2545  0.1529
 3225DPPE   C2A60558  34.285  11.837  15.462 -0.1876 -0.0548  0.2199
 3225DPPE   C3A60559  34.635  11.612  15.279  0.1389  0.1784  0.1866
 3225DPPE   C4A60560  34.987  11.531  15.314  0.2181 -0.0426 -0.4313
 3225DPPE   C1B60561  33.583  12.181  15.460  0.2200  0.0149 -0.3690
 3225DPPE   C2B60562  33.785  12.593  15.292  0.0059  0.1442  0.2744
 3225DPPE   C3B60563  34.012  12.831  14.991  0.2593 -0.1248 -0.0273
 3225DPPE   C4B60564  34.261  13.051  14.976 -0.0161  0.2151 -0.0623
 3226DPPE   NH360565   7.023  23.968  25.109 -0.1016  0.0703 -0.2517
 3226DPPE   PO460566   6.963  23.456  24.869 -0.1188  0.2616  0.0197
 3226DPPE   GL160567   6.745  23.445  25.265  0.1008  0.1932 -0.1555
 3226DPPE   GL260568   6.762  23.160  25.292  0.3265 -0.0432 -0.0508
 3226DPPE   C1A60569   6.603  23.707  25.645 -0.0303 -0.0623  0.2113
 3226DPPE   C2A60570   6.509  23.444  26.093 -0.0555  0.0345 -0.5254
 3226DPPE   C3A60571   6.267  23.541  26.495  0.0775 -0.1424 -0.0291
 3226DPPE   C4A60572   5.888  23.404  26.591  0.0124  0.0411  0.1979
 3226DPPE   C1B60573   6.658  22.774  25.496 -0.0919 -0.2743 -0.1347
 3226DPPE   C2B60574   6.946  22.672  25.804  0.0137  0.1485 -0.0048
 3226DPPE   C3B60575   7.273  22.706  26.192  0.0501 -0.1792  0.0403
 3226DPPE   C4B60576   7.458  22.955  26.435  0.4194 -0.0991 -0.0953
 3227DPPE   NH360577  33.534  24.359   1.935 -0.2283 -0.5299  0.0546
 3227DPPE   PO460578  33.841  24.213   2.212  0.1807 -0.4136  0.0621
 3227DPPE   GL160579  33.775  23.826   2.510 -0.3090  0.0181 -0.3058
 3227DPPE   GL260580  34.035  23.751   2.702  0.0125 -0.0354  0.1817
 3227DPPE   C1A60581  33.602  23.429   2.763  0.3685  0.1114  0.1933
 3227DPPE   C2A60582  33.458  23.079   2.978 -0.0447 -0.2486 -0.0979
 3227DPPE   C3A60583  33.357  22.690   3.211 -0.1010 -0.3701  0.0675
 3227DPPE   C4A60584  33.045  22.308   3.237  0.0630 -0.2032  0.1271
 3227DPPE   C1B60585  34.144  23.644   3.044 -0.1008  0.1216 -0.0792
 3227DPPE   C2B60586  34.479  23.490   3.224 -0.0123  0.1220  0.1745
 3227DPPE   C3B60587  34.610  23.089   3.042 -0.1849  0.2402 -0.1951
 3227DPPE   C4B60588  34.935  22.733   3.069  0.2064  0.2512 -0.1335
 3228DPPE   NH360589   3.087   7.656  14.733 -0.0499 -0.0327  0.3686
 3228DPPE   PO460590   2.810   7.525  14.411 -0.2210  0.0695  0.2209
 3228DPPE   GL160591   2.422   7.832  14.561  0.0196  0.0951 -0.1487
 3228DPPE   GL260592   2.121   7.761  14.723  0.2076  0.1325 -0.1519
 3228DPPE   C1A60593   2.282   8.279  14.610  0.1397  0.0167  0.1384
 3228DPPE   C2A60594   2.037   8.589  14.397  0.0209  0.0375 -0.0146
 3228DPPE   C3A60595   2.064   9.055  14.175  0.0114  0.1780 -0.1866
 3228DPPE   C4A60596   1.921   9.458  14.020  0.1471  0.2606 -0.0098
 3228DPPE   C1B60597   1.706   7.983  14.587 -0.0555 -0.0670  0.0447
 3228DPPE   C2B60598   1.551   8.290  14.233  0.1442  0.0065 -0.2795
 3228DPPE   C3B60599   1.474   8.720  14.155 -0.1853 -0.3575  0.1100
 3228DPPE   C4B60600   1.296   9.125  14.136 -0.0499 -0.0771  0.0923
 3229DPPE   NH360601  35.560  22.316   1.392 -0.0355 -0.0656 -0.0133
 3229DPPE   PO460602  35.897  22.510   1.582  0.0075  0.3151  0.2239
 3229DPPE   GL160603  36.196  22.175   1.876 -0.3308  0.0677 -0.0319
 3229DPPE   GL260604  36.605  22.197   1.870 -0.2088 -0.0912 -0.0310
 3229DPPE   C1A60605  36.287  21.778   2.011 -0.1804  0.0735  0.0710
 3229DPPE   C2A60606  36.455  21.556   2.312 -0.3563 -0.1081  0.2415
 3229DPPE   C3A60607  36.382  21.335   2.643 -0.0606 -0.0562  0.0042
 3229DPPE   C4A60608  36.469  20.930   2.883 -0.0046 -0.2182  0.0748
 3229DPPE   C1B60609  36.535  22.059   2.318 -0.3657  0.1298 -0.0411
 3229DPPE   C2B60610  36.586  22.081   2.698 -0.0324 -0.2735  0.0308
 3229DPPE   C3B60611  36.899  22.184   2.929  0.1231 -0.1814  0.0951
 3229DPPE   C4B60612  36.991  22.257   3.207  0.1684 -0.1539 -0.5100
 3230DPPE   NH360613  15.622  15.993   2.795 -0.0058  0.0841  0.2240
 3230DPPE   PO460614  15.499  15.786   3.127 -0.0513 -0.1364  0.2417
 3230DPPE   GL160615  15.131  15.621   3.138  0.0679 -0.3185 -0.4101
 3230DPPE   GL260616  14.987  15.531   3.436 -0.1532  0.0858  0.1055
 3230DPPE   C1A60617  14.715  15.773   3.105 -0.0119 -0.0041  0.2218
 3230DPPE   C2A60618  14.454  16.144   3.165 -0.0400  0.0138 -0.0737
 3230DPPE   C3A60619  14.132  16.372   3.151 -0.1155  0.1584 -0.1149
 3230DPPE   C4A60620  13.706  16.220   3.211 -0.0320 -0.0566 -0.0358
 3230DPPE   C1B60621  14.783  15.698   3.852  0.0343 -0.1314  0.4171
 3230DPPE   C2B60622  14.605  16.068   3.990 -0.0306 -0.0243 -0.3534
 3230DPPE   C3B60623  14.292  16.182   4.187 -0.2320 -0.4851 -0.0365
 3230DPPE   C4B60624  13.895  16.282   4.177 -0.2250 -0.0035  0.0513
 3231DPPE   NH360625  31.341  18.894   2.212  0.3029  0.2074 -0.3682
 3231DPPE   PO460626  31.152  19.172   2.406 -0.2994 -0.1229  0.0756
 3231DPPE   GL160627  31.523  19.351   2.482  0.1587 -0.1941  0.0891
 3231DPPE   GL260628  31.673  19.188   2.472  0.3297 -0.2602  0.1993
 3231DPPE   C1A60629  32.033  19.517   2.409 -0.2554 -0.3360  0.1591
 3231DPPE   C2A60630  32.353  19.562   2.633  0.3379 -0.1719  0.1951
 3231DPPE   C3A60631  32.685  19.710   2.834 -0.1246 -0.2148  0.0983
 3231DPPE   C4A60632  32.872  19.865   3.183  0.0458  0.0710  0.1188
 3231DPPE   C1B60633  31.785  19.641   2.792 -0.1565  0.1053 -0.2009
 3231DPPE   C2B60634  32.051  19.629   3.034  0.0455 -0.1512 -0.5215
 3231DPPE   C3B60635  32.453  19.589   3.285 -0.0015 -0.2072  0.1188
 3231DPPE   C4B60636  32.785  19.377   3.190 -0.1135 -0.0816  0.0471
 3232DPPE   NH360637  36.427   8.246   6.493  0.3131 -0.0992 -0.1729
 3232DPPE   PO460638  36.714   8.379   6.658 -0.0929 -0.4501  0.1291
 3232DPPE   GL160639  36.731   8.712   7.005  0.0102 -0.1125 -0.2523
 3232DPPE   GL260640  36.381   8.779   7.145  0.1303  0.4640 -0.0654
 3232DPPE   C1A60641  36.980   8.864   7.238 -0.2865 -0.0039 -0.1090
 3232DPPE   C2A60642  37.319   8.782   7.476 -0.1459 -0.0066 -0.1669
 3232DPPE   C3A60643  37.476   8.943   7.875  0.2153  0.1990 -0.1981
 3232DPPE   C4A60644  37.483   9.325   8.077  0.0964  0.1208  0.0771
 3232DPPE   C1B60645  36.510   8.723   7.500 -0.0280  0.1913  0.1957
 3232DPPE   C2B60646  36.640   8.467   7.909  0.0196 -0.1119 -0.1145
 3232DPPE   C3B60647  37.167   8.542   7.976 -0.2130  0.1754 -0.0430
 3232DPPE   C4B60648  37.599   8.500   8.044 -0.0073  0.2636  0.3291
 3233DPPE   NH360649  35.521  17.716  26.434  0.2075  0.1031 -0.0704
 3233DPPE   PO460650  35.643  17.726  26.005  0.0918 -0.2147 -0.0318
 3233DPPE   GL160651  36.064  17.635  26.223 -0.1464  0.1220  0.0409
 3233DPPE   GL260652  36.424  17.744  26.035  0.1850 -0.3208  0.1221
 3233DPPE   C1A60653  36.053  17.452  26.568 -0.2956  0.0850  0.0311
 3233DPPE   C2A60654  35.908  17.657  26.924  0.1182 -0.1904  0.0668
 3233DPPE   C3A60655  35.825  17.739  27.323 -0.1739 -0.0735 -0.1455
 3233DPPE   C4A60656  35.909  17.614  27.710 -0.0720  0.1357  0.3732
 3233DPPE   C1B60657  36.804  17.659  26.246 -0.1170  0.0848  0.0388
 3233DPPE   C2B60658  37.255  17.797  26.494 -0.1612 -0.3118  0.2318
 3233DPPE   C3B60659  37.347  18.134  26.856 -0.0493 -0.3381  0.0011
 3233DPPE   C4B60660  37.043  18.282  27.200 -0.2740 -0.1376  0.1373
 3234DPPE   NH360661  12.532  12.956  16.153  0.0643  0.2171  0.0052
 3234DPPE   PO460662  12.251  12.974  16.611  0.1370  0.5186 -0.0660
 3234DPPE   GL160663  11.977  13.021  16.236  0.3925 -0.1571  0.0140
 3234DPPE   GL260664  12.022  12.984  15.900  0.0059  0.3873 -0.0749
 3234DPPE   C1A60665  11.649  13.277  16.094 -0.0134 -0.1780 -0.0569
 3234DPPE   C2A60666  11.333  13.453  15.755 -0.1271  0.0312 -0.0462
 3234DPPE   C3A60667  11.231  13.474  15.338  0.1041  0.0094  0.1707
 3234DPPE   C4A60668  10.944  13.758  15.171 -0.3066  0.0237  0.0393
 3234DPPE   C1B60669  11.794  13.084  15.615 -0.2130  0.3178  0.0411
 3234DPPE   C2B60670  11.358  13.047  15.505  0.0912  0.3717  0.4278
 3234DPPE   C3B60671  10.997  12.823  15.463 -0.2531 -0.1514 -0.0156
 3234DPPE   C4B60672  10.907  12.441  15.424 -0.0369  0.2812 -0.0567
 3235DPPE   NH360673   1.638   8.044   3.904 -0.0196 -0.0364  0.3498
 3235DPPE   PO460674   1.920   8.291   3.641 -0.1526  0.0045  0.0582
 3235DPPE   GL160675   1.808   8.572   3.926 -0.1260 -0.0763  0.1381
 3235DPPE   GL260676   2.070   8.489   4.074 -0.0916  0.1912 -0.0472
 3235DPPE   C1A60677   1.856   8.787   4.381 -0.2267 -0.0713  0.1109
 3235DPPE   C2A60678   1.903   8.966   4.822 -0.3654  0.1764 -0.2111
 3235DPPE   C3A60679   1.581   9.251   5.069  0.1763  0.0437  0.1894
 3235DPPE   C4A60680   1.268   9.408   5.406  0.0300 -0.1052  0.3725
 3235DPPE   C1B60681   2.367   8.613   4.439 -0.1157 -0.2961 -0.3184
 3235DPPE   C2B60682   2.258   9.158   4.581 -0.3426  0.2618 -0.0347
 3235DPPE   C3B60683   2.393   9.586   4.742 -0.1837  0.1434 -0.0019
 3235DPPE   C4B60684   2.352  10.032   4.844  0.1137  0.1617  0.1316
 3236DPPE   NH360685   2.605  16.101   9.752  0.0626  0.1433  0.1995
 3236DPPE   PO460686   2.292  16.423   9.984  0.2281  0.0377  0.1576
 3236DPPE   GL160687   2.152  16.034   9.808  0.0301 -0.0339 -0.1922
 3236DPPE   GL260688   2.114  15.791  10.100 -0.1511  0.1289 -0.2370
 3236DPPE   C1A60689   1.720  15.850   9.725 -0.0324  0.0137 -0.1423
 3236DPPE   C2A60690   1.273  15.669   9.471 -0.1509  0.0276 -0.3502
 3236DPPE   C3A60691   1.061  15.318   9.380 -0.0679  0.0776 -0.1930
 3236DPPE   C4A60692   1.223  14.870   9.411  0.0004  0.1058 -0.0376
 3236DPPE   C1B60693   1.771  15.565  10.172  0.0713  0.1780 -0.1874
 3236DPPE   C2B60694   1.875  15.131  10.101  0.3787  0.0785  0.0689
 3236DPPE   C3B60695   1.730  14.772  10.315 -0.0141 -0.1681 -0.3511
 3236DPPE   C4B60696   1.346  14.632  10.371 -0.1703 -0.0509 -0.0673
 3237DPPE   NH360697  29.796  17.764  15.919  0.2125 -0.0263  0.4079
 3237DPPE   PO460698  29.859  18.162  15.750  0.2398  0.2740  0.2045
 3237DPPE   GL160699  30.250  18.315  15.641 -0.0752  0.2536 -0.1259
 3237DPPE   GL260700  30.332  18.311  16.007  0.0339  0.2716  0.2692
 3237DPPE   C1A60701  30.618  18.206  15.361  0.1285 -0.1279  0.1912
 3237DPPE   C2A60702  30.714  18.262  14.974 -0.1952 -0.0140  0.3172
 3237DPPE   C3A60703  30.822  18.247  14.497 -0.0154 -0.3569  0.0631
 3237DPPE   C4A60704  31.153  18.313  14.157 -0.0386 -0.0739 -0.0186
 3237DPPE   C1B60705  30.652  18.695  15.816 -0.1498 -0.0199 -0.1028
 3237DPPE   C2B60706  31.064  18.881  15.760  0.1321  0.2381 -0.0245
 3237DPPE   C3B60707  31.561  18.967  15.814  0.1662  0.1048  0.0234
 3237DPPE   C4B60708  31.915  18.725  15.569  0.0426  0.0063  0.0997
 3238DPPE   NH360709   3.176   6.533  12.548  0.3177 -0.1951 -0.0439
 3238DPPE   PO460710   3.110   6.325  12.185  0.2226  0.0357  0.0717
 3238DPPE   GL160711   2.963   6.739  12.092  0.4512  0.0789 -0.0195
 3238DPPE   GL260712   2.784   6.694  11.952 -0.2866  0.0309  0.0168
 3238DPPE   C1A60713   3.262   7.109  12.090 -0.1783 -0.0863 -0.4779
 3238DPPE   C2A60714   3.453   7.484  12.002 -0.0170  0.0361  0.0627
 3238DPPE   C3A60715   3.819   7.836  11.946  0.0522 -0.0003  0.0040
 3238DPPE   C4A60716   4.306   7.980  11.979  0.0529  0.2284 -0.2583
 3238DPPE   C1B60717   2.744   7.113  11.816 -0.0776 -0.0662  0.1184
 3238DPPE   C2B60718   2.938   7.510  11.887  0.0936  0.3069  0.0635
 3238DPPE   C3B60719   2.736   7.898  11.830  0.0673  0.2528  0.1853
 3238DPPE   C4B60720   2.523   8.270  11.712 -0.2919 -0.0784 -0.0009
 3239DPPE   NH360721   3.476  16.047  15.302  0.0303  0.0216 -0.1116
 3239DPPE   PO460722   3.734  15.983  15.501  0.0602  0.3325  0.1445
 3239DPPE   GL160723   3.438  15.927  15.785  0.0776  0.0770  0.1273
 3239DPPE   GL260724   3.548  15.701  15.948  0.2617 -0.1644  0.0996
 3239DPPE   C1A60725   3.061  15.710  16.040 -0.1144 -0.1908 -0.2591
 3239DPPE   C2A60726   2.793  15.353  15.891 -0.2114  0.0111 -0.1206
 3239DPPE   C3A60727   2.896  14.981  15.542 -0.1543  0.1852  0.0645
 3239DPPE   C4A60728   2.683  14.782  15.236  0.3592  0.3231 -0.2095
 3239DPPE   C1B60729   3.627  15.425  16.252  0.0753 -0.0763  0.1197
 3239DPPE   C2B60730   3.645  14.982  16.505  0.1436 -0.0420 -0.4829
 3239DPPE   C3B60731   3.664  14.514  16.682  0.0543 -0.0043 -0.2461
 3239DPPE   C4B60732   3.860  14.250  16.869 -0.2686 -0.0809  0.0241
 3240DPPE   NH360733   2.228  17.903  21.914  0.3780 -0.0290 -0.1014
 3240DPPE   PO460734   1.881  17.798  21.639  0.2176  0.0390  0.1679
 3240DPPE   GL160735   1.902  17.943  21.140  0.0080  0.0176  0.1455
 3240DPPE   GL260736   1.930  18.263  20.967  0.1812 -0.3438  0.3765
 3240DPPE   C1A60737   1.752  17.959  20.598  0.0928 -0.2155 -0.0067
 3240DPPE   C2A60738   1.627  17.995  20.192  0.0214  0.0286 -0.0891
 3240DPPE   C3A60739   1.515  18.377  20.261  0.0258 -0.0687  0.1157
 3240DPPE   C4A60740   1.718  18.695  20.147  0.0438 -0.0942  0.0344
 3240DPPE   C1B60741   2.395  18.227  20.991  0.2024  0.0376 -0.3521
 3240DPPE   C2B60742   2.707  17.954  20.885 -0.1223 -0.2679  0.3630
 3240DPPE   C3B60743   2.980  18.030  20.565 -0.0857  0.0990 -0.0330
 3240DPPE   C4B60744   3.362  18.221  20.384  0.0628 -0.2224 -0.0305
 3241DPPE   NH360745  32.888  25.638   5.055  0.1740 -0.2266  0.3610
 3241DPPE   PO460746  32.896  25.783   5.511 -0.1483  0.1870 -0.5023
 3241DPPE   GL160747  33.028  25.509   5.928  0.0544 -0.0248  0.1552
 3241DPPE   GL260748  32.860  25.529   6.087 -0.0464 -0.2125  0.1045
 3241DPPE   C1A60749  33.352  25.276   6.090 -0.1569  0.1730  0.0636
 3241DPPE   C2A60750  33.448  24.823   6.317  0.1485  0.0915  0.0993
 3241DPPE   C3A60751  33.505  24.404   6.544 -0.0753  0.0769 -0.0318
 3241DPPE   C4A60752  33.547  23.924   6.445 -0.0014  0.3118  0.1508
 3241DPPE   C1B60753  32.711  25.065   6.138  0.1081 -0.1333 -0.2281
 3241DPPE   C2B60754  32.973  24.703   6.188  0.3638 -0.1648 -0.1440
 3241DPPE   C3B60755  33.019  24.437   6.520 -0.1489 -0.0607  0.2464
 3241DPPE   C4B60756  33.135  24.068   6.746  0.1628  0.1705 -0.0960
 3242DPPE   NH360757   1.747  27.306   1.405 -0.2257  0.0830 -0.0119
 3242DPPE   PO460758   1.866  27.705   1.573 -0.2020 -0.3195 -0.2304
 3242DPPE   GL160759   2.132  27.409   1.852 -0.1212 -0.0045 -0.0037
 3242DPPE   GL260760   2.098  27.230   2.149  0.0572 -0.1194 -0.2134
 3242DPPE   C1A60761   2.506  27.116   1.825  0.1989 -0.2513  0.0227
 3242DPPE   C2A60762   2.827  26.831   2.061  0.1565  0.3080  0.0606
 3242DPPE   C3A60763   2.717  26.453   2.397  0.0710 -0.0696  0.1251
 3242DPPE   C4A60764   2.963  26.138   2.625 -0.1590 -0.0203  0.1791
 3242DPPE   C1B60765   2.372  27.031   2.464  0.1090  0.1725  0.1122
 3242DPPE   C2B60766   2.342  26.655   2.713 -0.2659  0.2738 -0.2888
 3242DPPE   C3B60767   2.252  26.495   3.128 -0.2098  0.2391 -0.1285
 3242DPPE   C4B60768   2.095  26.110   3.436  0.2785  0.1239  0.2486
 3243DPPE   NH360769  11.289  10.156   9.416  0.0176  0.3224  0.1942
 3243DPPE   PO460770  10.945   9.993   9.743  0.0387  0.1089  0.1989
 3243DPPE   GL160771  10.854  10.311  10.069  0.2930  0.0187  0.0948
 3243DPPE   GL260772  11.111  10.312  10.401 -0.2473 -0.1519 -0.3525
 3243DPPE   C1A60773  10.772  10.652  10.410  0.3399  0.5592 -0.1694
 3243DPPE   C2A60774  10.465  10.955  10.409 -0.0640  0.1652 -0.0074
 3243DPPE   C3A60775  10.139  11.109  10.523  0.1667 -0.1173  0.0275
 3243DPPE   C4A60776   9.934  11.459  10.581 -0.1223  0.0743 -0.1039
 3243DPPE   C1B60777  11.222  10.706  10.278 -0.2116  0.2985  0.1679
 3243DPPE   C2B60778  11.155  11.108  10.473 -0.1201  0.0463 -0.1863
 3243DPPE   C3B60779  10.882  11.479  10.227 -0.0311 -0.2955  0.1711
 3243DPPE   C4B60780  10.458  11.406   9.898 -0.0395  0.2192  0.1583
 3244DPPE   NH360781  10.848  10.168   6.755  0.1501  0.0285 -0.2417
 3244DPPE   PO460782  11.062  10.186   6.422  0.1546  0.1735  0.0555
 3244DPPE   GL160783  10.851  10.554   6.462  0.0685 -0.2375 -0.2414
 3244DPPE   GL260784  10.551  10.577   6.395  0.3561 -0.1942 -0.0653
 3244DPPE   C1A60785  10.853  11.008   6.543 -0.0290 -0.0969  0.1367
 3244DPPE   C2A60786  10.948  11.481   6.496 -0.0021 -0.2722  0.2559
 3244DPPE   C3A60787  10.932  11.916   6.636 -0.0377  0.2127  0.0380
 3244DPPE   C4A60788  10.648  12.214   6.735 -0.0648  0.1417  0.0091
 3244DPPE   C1B60789  10.324  10.952   6.488  0.0598  0.2726 -0.1048
 3244DPPE   C2B60790  10.143  11.287   6.524  0.0104  0.0609  0.2469
 3244DPPE   C3B60791   9.813  11.351   6.854 -0.1341  0.1139  0.0778
 3244DPPE   C4B60792   9.496  10.993   7.079  0.0272 -0.4314 -0.0280
 3245DPPE   NH360793  29.775  22.884   5.851  0.0853  0.2857 -0.1501
 3245DPPE   PO460794  29.899  22.443   5.751  0.0760 -0.1862  0.1858
 3245DPPE   GL160795  30.201  22.511   6.031  0.0638  0.1316 -0.0638
 3245DPPE   GL260796  30.497  22.361   5.820 -0.1843  0.4943 -0.4055
 3245DPPE   C1A60797  30.456  22.626   6.390  0.0661  0.4567  0.0890
 3245DPPE   C2A60798  30.717  22.887   6.513  0.2052  0.4267  0.2752
 3245DPPE   C3A60799  30.710  23.329   6.608  0.2172 -0.4545  0.0513
 3245DPPE   C4A60800  30.795  23.757   6.517  0.1934 -0.0033  0.0004
 3245DPPE   C1B60801  30.718  22.095   6.036 -0.2471  0.2644  0.2016
 3245DPPE   C2B60802  31.006  21.914   6.289 -0.3806  0.4577 -0.1565
 3245DPPE   C3B60803  31.053  21.574   6.633 -0.4864 -0.2065 -0.1317
 3245DPPE   C4B60804  30.857  21.187   6.889 -0.0172  0.2708 -0.0436
 3246DPPE   NH360805  14.518  18.405  19.169  0.0401  0.1608 -0.1291
 3246DPPE   PO460806  14.981  18.493  19.049 -0.2628 -0.2081  0.1018
 3246DPPE   GL160807  14.587  18.433  18.658 -0.1588  0.2784 -0.2350
 3246DPPE   GL260808  14.659  18.800  18.641 -0.0283  0.3335 -0.0724
 3246DPPE   C1A60809  14.215  18.415  18.547  0.0927  0.2734  0.0716
 3246DPPE   C2A60810  13.883  18.603  18.341  0.1641 -0.0176 -0.2571
 3246DPPE   C3A60811  13.765  18.976  18.218 -0.0915  0.0518  0.1428
 3246DPPE   C4A60812  13.616  19.027  17.742  0.0255  0.2411  0.0717
 3246DPPE   C1B60813  14.707  18.763  18.275  0.0731  0.1748  0.2219
 3246DPPE   C2B60814  14.663  18.726  17.841  0.0125  0.2942  0.1281
 3246DPPE   C3B60815  14.634  18.474  17.452 -0.0265  0.1010 -0.1911
 3246DPPE   C4B60816  14.512  18.456  17.116 -0.0582 -0.0742 -0.2693
 3247DPPE   NH360817   2.531  15.569  20.712  0.1513 -0.1362  0.0640
 3247DPPE   PO460818   2.333  15.155  20.581  0.1325 -0.0402 -0.0449
 3247DPPE   GL160819   2.229  15.402  20.158  0.1100 -0.3100 -0.2737
 3247DPPE   GL260820   1.973  15.617  20.115  0.0058 -0.3831  0.0566
 3247DPPE   C1A60821   2.230  15.785  19.756 -0.4519 -0.0188  0.1139
 3247DPPE   C2A60822   2.437  16.178  19.648 -0.3016 -0.0894 -0.3255
 3247DPPE   C3A60823   2.591  16.577  19.626 -0.3192  0.1022 -0.4693
 3247DPPE   C4A60824   2.564  16.901  19.294 -0.1132 -0.1254 -0.1654
 3247DPPE   C1B60825   1.692  15.624  19.836  0.2543  0.0298  0.1196
 3247DPPE   C2B60826   1.533  15.821  19.458 -0.3951 -0.0787  0.2224
 3247DPPE   C3B60827   1.406  16.102  19.117 -0.1560 -0.0000 -0.0737
 3247DPPE   C4B60828   1.329  15.860  18.813 -0.2535  0.1923 -0.1212
 3248DPPE   NH360829   1.899  17.549  12.289 -0.4153 -0.4036 -0.2430
 3248DPPE   PO460830   2.048  17.499  12.699 -0.2989 -0.0973 -0.3068
 3248DPPE   GL160831   1.834  17.079  12.756  0.0186  0.1605 -0.0664
 3248DPPE   GL260832   1.641  16.863  12.547 -0.0035  0.0470  0.0477
 3248DPPE   C1A60833   1.654  16.809  13.088  0.0810  0.1707 -0.0553
 3248DPPE   C2A60834   1.248  16.469  13.152  0.0480  0.1380 -0.0349
 3248DPPE   C3A60835   1.111  16.120  13.364  0.0887 -0.1344 -0.0928
 3248DPPE   C4A60836   1.237  15.727  13.457  0.0748 -0.1062  0.1767
 3248DPPE   C1B60837   1.470  16.531  12.679 -0.2288 -0.2962 -0.0697
 3248DPPE   C2B60838   1.119  16.268  12.677 -0.0086  0.2235 -0.0758
 3248DPPE   C3B60839   0.618  16.184  12.529  0.2483  0.1615 -0.1448
 3248DPPE   C4B60840   0.244  16.334  12.724  0.2064 -0.0313  0.1212
 3249DPPE   NH360841  38.276  21.389  14.552 -0.0271  0.0460 -0.0763
 3249DPPE   PO460842  38.173  21.845  14.489 -0.1656  0.2044  0.1560
 3249DPPE   GL160843  37.850  21.646  14.481  0.1106  0.1142  0.0390
 3249DPPE   GL260844  37.609  21.869  14.287 -0.3595  0.3018 -0.1477
 3249DPPE   C1A60845  37.656  21.339  14.788  0.1998 -0.0747  0.1586
 3249DPPE   C2A60846  37.381  21.238  15.241  0.1580  0.1139  0.1435
 3249DPPE   C3A60847  37.250  21.371  15.643 -0.3366 -0.0986 -0.1215
 3249DPPE   C4A60848  37.114  21.452  16.126  0.0245  0.1980  0.0159
 3249DPPE   C1B60849  37.131  21.860  14.286 -0.0049 -0.1049 -0.0327
 3249DPPE   C2B60850  36.986  21.596  14.579 -0.1480  0.0677 -0.2787
 3249DPPE   C3B60851  36.848  21.437  14.250 -0.0477 -0.0486  0.0181
 3249DPPE   C4B60852  37.090  21.225  13.876 -0.0321  0.3348  0.0107
 3250DPPE   NH360853   1.313  17.837  25.820  0.0741 -0.3175 -0.0099
 3250DPPE   PO460854   1.010  17.683  26.042 -0.1610 -0.0209  0.1439
 3250DPPE   GL160855   0.839  17.804  26.357  0.5254  0.1363 -0.3534
 3250DPPE   GL260856   0.947  17.976  26.496 -0.0921 -0.0080  0.0617
 3250DPPE   C1A60857   0.607  17.702  26.796 -0.2239  0.0782 -0.1145
 3250DPPE   C2A60858   0.624  17.561  27.181  0.4414 -0.2893 -0.2453
 3250DPPE   C3A60859   0.680  17.604  27.669 -0.2170 -0.0571  0.1791
 3250DPPE   C4A60860   0.846  17.726  28.122  0.2462  0.0204 -0.4211
 3250DPPE   C1B60861   1.098  17.721  26.893  0.0443  0.2081 -0.5356
 3250DPPE   C2B60862   1.146  17.724  27.298 -0.0146 -0.0454  0.1651
 3250DPPE   C3B60863   1.158  17.808  27.756 -0.5245  0.0273  0.0023
 3250DPPE   C4B60864   1.366  17.827  28.131  0.1764  0.0511 -0.0987
 3251DPPE   NH360865  36.401  21.141   0.502  0.1109  0.1628  0.2538
 3251DPPE   PO460866  35.925  21.318   0.706 -0.0671 -0.0581 -0.1331
 3251DPPE   GL160867  35.840  21.153   1.124 -0.0339  0.2474  0.0461
 3251DPPE   GL260868  35.641  21.208   1.363  0.1569 -0.1127  0.0489
 3251DPPE   C1A60869  35.963  20.970   1.557 -0.1218  0.1208 -0.0956
 3251DPPE   C2A60870  35.956  20.546   1.823 -0.0963  0.1483 -0.2490
 3251DPPE   C3A60871  35.770  20.236   2.090  0.0750  0.3221 -0.2919
 3251DPPE   C4A60872  35.625  19.827   1.994  0.1723  0.4086 -0.3189
 3251DPPE   C1B60873  35.489  21.008   1.765  0.0383 -0.0351 -0.0540
 3251DPPE   C2B60874  35.503  20.876   2.161  0.1637 -0.1211  0.6268
 3251DPPE   C3B60875  35.551  20.794   2.608 -0.1682 -0.1356 -0.0558
 3251DPPE   C4B60876  35.353  21.025   2.990  0.0284 -0.0113 -0.0935
 3252DPPE   NH360877  29.851  21.879  15.306 -0.0026 -0.0788  0.0095
 3252DPPE   PO460878  30.145  22.226  15.549  0.0804  0.0670  0.0113
 3252DPPE   GL160879  30.413  22.104  15.241  0.0559 -0.0075 -0.2247
 3252DPPE   GL260880  30.536  21.854  15.257 -0.2527 -0.0379  0.0610
 3252DPPE   C1A60881  30.791  22.367  15.202  0.0151  0.2398  0.1082
 3252DPPE   C2A60882  31.078  22.782  15.221  0.3036 -0.3507 -0.0518
 3252DPPE   C3A60883  31.426  23.077  15.334  0.0467 -0.3672 -0.1682
 3252DPPE   C4A60884  31.591  23.512  15.378  0.0498 -0.0042  0.0775
 3252DPPE   C1B60885  30.575  21.447  15.047  0.1856  0.1805  0.0283
 3252DPPE   C2B60886  30.842  21.133  14.776  0.1505  0.1882 -0.2322
 3252DPPE   C3B60887  30.880  20.751  14.525 -0.0922  0.0123  0.1764
 3252DPPE   C4B60888  31.049  20.443  14.562 -0.0815  0.1679  0.1527
 3253DPPE   NH360889  13.484  17.332  11.969  0.0614  0.0655  0.2902
 3253DPPE   PO460890  13.311  17.288  12.310  0.1695 -0.1843 -0.1264
 3253DPPE   GL160891  13.532  16.941  12.484  0.0248 -0.2491 -0.0683
 3253DPPE   GL260892  13.360  16.824  12.695 -0.2852 -0.2816  0.2968
 3253DPPE   C1A60893  13.860  16.687  12.602 -0.2753  0.0869 -0.0231
 3253DPPE   C2A60894  14.065  16.344  12.879 -0.0506  0.2074  0.1676
 3253DPPE   C3A60895  14.326  16.173  13.211  0.0772  0.1110 -0.0680
 3253DPPE   C4A60896  14.726  16.257  13.350  0.3075  0.1445 -0.0116
 3253DPPE   C1B60897  13.483  16.566  13.085 -0.0752 -0.0698 -0.0895
 3253DPPE   C2B60898  13.817  16.289  13.346 -0.0984 -0.1312 -0.3034
 3253DPPE   C3B60899  13.730  16.037  13.626  0.1067  0.0542 -0.0744
 3253DPPE   C4B60900  13.565  15.611  13.783 -0.0901 -0.1692 -0.1064
 3254DPPE   NH360901   9.725  32.882   9.221  0.0195 -0.1026 -0.1306
 3254DPPE   PO460902   9.303  33.207   9.254 -0.0878 -0.0952  0.0112
 3254DPPE   GL160903   9.187  32.762   9.383  0.2436  0.0689 -0.0306
 3254DPPE   GL260904   9.417  32.540   9.407  0.1850  0.0948  0.0935
 3254DPPE   C1A60905   8.999  32.433   9.588  0.0875  0.4877 -0.1446
 3254DPPE   C2A60906   8.958  32.011   9.474  0.1147 -0.2910  0.0546
 3254DPPE   C3A60907   9.122  31.614   9.543 -0.0682  0.0882  0.2605
 3254DPPE   C4A60908   9.571  31.324   9.603 -0.0824 -0.1196 -0.1409
 3254DPPE   C1B60909   9.498  32.044   9.286  0.2210 -0.0682  0.0870
 3254DPPE   C2B60910   9.486  31.678   9.035  0.1633  0.0537 -0.0255
 3254DPPE   C3B60911   9.339  31.447   8.848 -0.1133 -0.2231 -0.0006
 3254DPPE   C4B60912   9.482  31.168   8.506  0.2858 -0.3783 -0.0068
 3255DPPE   NH360913  11.841  31.420   7.920  0.0867 -0.2529 -0.1196
 3255DPPE   PO460914  12.102  31.547   7.515 -0.1103 -0.2437  0.1263
 3255DPPE   GL160915  11.855  31.269   7.470  0.1382 -0.2037  0.3071
 3255DPPE   GL260916  12.133  30.994   7.634 -0.0440 -0.2202 -0.1325
 3255DPPE   C1A60917  11.673  30.818   7.427 -0.0808  0.0657 -0.0909
 3255DPPE   C2A60918  11.636  30.366   7.502  0.0488  0.1873 -0.0522
 3255DPPE   C3A60919  11.583  29.966   7.391 -0.0360  0.2514 -0.3485
 3255DPPE   C4A60920  11.404  29.570   7.546 -0.0039 -0.1218 -0.0691
 3255DPPE   C1B60921  12.112  30.570   7.524  0.0893  0.0908  0.1554
 3255DPPE   C2B60922  12.428  30.113   7.608  0.2641  0.2416  0.4613
 3255DPPE   C3B60923  12.406  29.649   7.412  0.0002  0.1301  0.1408
 3255DPPE   C4B60924  12.365  29.469   6.980 -0.0517  0.0668 -0.0542
 3256DPPE   NH360925  33.527  11.035   7.035  0.0164 -0.1896  0.1827
 3256DPPE   PO460926  33.765  10.775   6.905 -0.2051 -0.0495 -0.0217
 3256DPPE   GL160927  34.006  11.031   7.057  0.1316 -0.1019 -0.2970
 3256DPPE   GL260928  33.856  11.292   7.285 -0.2253  0.3872  0.1199
 3256DPPE   C1A60929  34.366  11.265   7.000 -0.2154 -0.3230 -0.0585
 3256DPPE   C2A60930  34.760  11.008   6.821  0.0556  0.0006 -0.0728
 3256DPPE   C3A60931  34.960  10.599   6.926  0.2159  0.0318  0.1973
 3256DPPE   C4A60932  34.808  10.241   6.819  0.2073 -0.0706  0.1228
 3256DPPE   C1B60933  34.055  11.623   7.123  0.1470 -0.0516  0.5423
 3256DPPE   C2B60934  34.411  11.749   6.821 -0.2781  0.1651 -0.4947
 3256DPPE   C3B60935  34.682  12.141   6.770 -0.1972  0.2455 -0.0198
 3256DPPE   C4B60936  34.946  12.492   6.714 -0.1275 -0.1063  0.0466
 3257DPPE   NH360937   5.608  10.017  15.038  0.1789 -0.4174 -0.1086
 3257DPPE   PO460938   5.486   9.637  14.911  0.1340  0.1501  0.0427
 3257DPPE   GL160939   5.092   9.783  14.693  0.2007  0.2002  0.0496
 3257DPPE   GL260940   5.097   9.653  14.453 -0.1452 -0.3815 -0.1170
 3257DPPE   C1A60941   4.862  10.114  14.637  0.2082  0.1277 -0.1463
 3257DPPE   C2A60942   4.554  10.383  14.822  0.0803 -0.1815 -0.0406
 3257DPPE   C3A60943   4.299  10.652  15.000 -0.2099  0.2743  0.0675
 3257DPPE   C4A60944   4.131  10.943  14.678 -0.0694  0.2271  0.0663
 3257DPPE   C1B60945   5.058  10.045  14.193 -0.0219 -0.0694 -0.1388
 3257DPPE   C2B60946   5.136  10.369  13.898 -0.0191  0.1757 -0.1697
 3257DPPE   C3B60947   5.231  10.677  13.586 -0.2129 -0.0834 -0.1168
 3257DPPE   C4B60948   5.244  10.779  13.151 -0.1164  0.2935  0.3035
 3258DPPE   NH360949   0.150  30.322   6.813 -0.1229 -0.2147 -0.4056
 3258DPPE   PO460950   0.150  30.352   6.485  0.3514  0.2020  0.3005
 3258DPPE   GL160951   0.591  30.105   6.506 -0.1338  0.0873  0.1400
 3258DPPE   GL260952   0.691  30.080   6.890  0.5499  0.1875  0.1487
 3258DPPE   C1A60953   0.947  29.743   6.515 -0.0906  0.0135  0.3679
 3258DPPE   C2A60954   1.182  29.387   6.647 -0.1936 -0.3921  0.2491
 3258DPPE   C3A60955   1.431  29.058   6.509  0.0488 -0.0992  0.1200
 3258DPPE   C4A60956   1.797  28.817   6.414  0.0063 -0.0945  0.1683
 3258DPPE   C1B60957   0.966  29.981   7.139 -0.0971  0.0673 -0.1477
 3258DPPE   C2B60958   1.148  30.133   7.439  0.0487  0.2218  0.0003
 3258DPPE   C3B60959   1.563  29.981   7.496  0.1601 -0.2877 -0.1630
 3258DPPE   C4B60960   1.972  29.867   7.685  0.0887 -0.0330 -0.3204
 3259DPPE   NH360961  11.031  16.796  20.654  0.0739  0.2276  0.2299
 3259DPPE   PO460962  10.854  16.379  20.571  0.0835  0.1819  0.2658
 3259DPPE   GL160963  10.651  16.336  20.129 -0.1755 -0.2544  0.0100
 3259DPPE   GL260964  10.857  16.143  19.997 -0.0311  0.1180 -0.1453
 3259DPPE   C1A60965  10.471  16.458  19.737  0.2687 -0.1053  0.3245
 3259DPPE   C2A60966  10.318  16.426  19.235 -0.0768 -0.2403  0.1876
 3259DPPE   C3A60967  10.077  16.435  18.852  0.3276 -0.0927  0.2348
 3259DPPE   C4A60968   9.755  16.153  18.755  0.1093 -0.0680  0.0968
 3259DPPE   C1B60969  10.777  16.078  19.591 -0.1732 -0.2709  0.2021
 3259DPPE   C2B60970  10.843  16.454  19.266 -0.0264 -0.2306 -0.0677
 3259DPPE   C3B60971  10.858  16.873  19.187  0.0014 -0.0765  0.0081
 3259DPPE   C4B60972  10.659  17.267  19.217  0.4346 -0.0583  0.2137
 3260DPPE   NH360973   3.710   8.357  15.846  0.2909  0.0149  0.2977
 3260DPPE   PO460974   3.342   8.109  15.594 -0.0886 -0.4254 -0.5021
 3260DPPE   GL160975   3.336   8.379  15.240 -0.1475  0.2463  0.0365
 3260DPPE   GL260976   3.593   8.614  15.010 -0.0249  0.0018  0.2491
 3260DPPE   C1A60977   3.123   8.768  15.160  0.2475 -0.0651 -0.0125
 3260DPPE   C2A60978   3.216   9.029  14.756 -0.1818  0.0122 -0.4546
 3260DPPE   C3A60979   3.014   9.402  14.436 -0.0647 -0.1850 -0.0932
 3260DPPE   C4A60980   2.922   9.699  14.182 -0.1351 -0.0239  0.1033
 3260DPPE   C1B60981   3.753   8.998  14.833  0.0402  0.2098 -0.1058
 3260DPPE   C2B60982   3.625   9.311  14.562 -0.3622 -0.3539 -0.1811
 3260DPPE   C3B60983   3.492   9.537  14.191 -0.0668 -0.2983  0.2407
 3260DPPE   C4B60984   3.736   9.472  13.794  0.0773  0.0941  0.0680
 3261DPPE   NH360985  19.347  22.372  10.088 -0.0886  0.1819  0.1917
 3261DPPE   PO460986  19.108  22.637  10.371  0.0481  0.2047  0.0195
 3261DPPE   GL160987  18.829  22.579  10.079 -0.2572 -0.0457  0.1298
 3261DPPE   GL260988  18.668  22.844   9.976  0.0454 -0.0407 -0.2789
 3261DPPE   C1A60989  18.309  22.492   9.987 -0.0816 -0.0856  0.1113
 3261DPPE   C2A60990  18.095  22.206   9.725 -0.1159  0.1017  0.2965
 3261DPPE   C3A60991  17.774  22.000   9.491 -0.1535  0.0851  0.5673
 3261DPPE   C4A60992  17.460  21.786   9.539  0.4036  0.2923  0.0437
 3261DPPE   C1B60993  18.340  23.000   9.697 -0.4557 -0.0970  0.0178
 3261DPPE   C2B60994  17.926  23.140   9.555  0.3836 -0.5369  0.0627
 3261DPPE   C3B60995  17.398  23.223   9.565 -0.0178 -0.0104  0.0855
 3261DPPE   C4B60996  17.071  23.155   9.385  0.0524  0.2431 -0.3370
 3262DPPE   NH360997   2.584  12.118  19.903  0.1117  0.2312  0.1431
 3262DPPE   PO460998   2.400  12.611  19.954  0.0292  0.0080 -0.0365
 3262DPPE   GL160999   2.496  12.979  19.709 -0.2787 -0.2183 -0.0761
 3262DPPE   GL261000   2.568  12.955  19.479 -0.1158 -0.0874  0.1904
 3262DPPE   C1A61001   2.192  13.409  19.549  0.1084 -0.3287  0.0025
 3262DPPE   C2A61002   1.750  13.591  19.298  0.3725  0.0371 -0.0432
 3262DPPE   C3A61003   1.336  13.730  19.188 -0.0801 -0.2044 -0.2700
 3262DPPE   C4A61004   1.021  13.459  18.975 -0.0610 -0.3555  0.1403
 3262DPPE   C1B61005   2.347  12.921  19.092 -0.1260 -0.0233  0.1619
 3262DPPE   C2B61006   1.998  12.902  18.655  0.0824 -0.0262  0.1569
 3262DPPE   C3B61007   1.911  12.896  18.130  0.1142 -0.0502  0.4208
 3262DPPE   C4B61008   1.731  13.300  17.777  0.2635  0.2709  0.2108
 3263DPPE   NH361009   4.569  14.866   6.565 -0.1361  0.2123  0.1054
 3263DPPE   PO461010   4.216  14.902   6.861 -0.0517  0.3064  0.3077
 3263DPPE   GL161011   3.827  14.681   6.699  0.0481 -0.1952 -0.3807
 3263DPPE   GL261012   3.606  14.844   6.531 -0.0936  0.0182  0.0804
 3263DPPE   C1A61013   3.554  14.350   6.490 -0.0314  0.1062  0.1748
 3263DPPE   C2A61014   3.451  13.833   6.234 -0.0730 -0.1264  0.0133
 3263DPPE   C3A61015   3.600  13.566   5.809 -0.0035 -0.1665 -0.0581
 3263DPPE   C4A61016   3.822  13.223   5.692 -0.0266  0.2510 -0.0585
 3263DPPE   C1B61017   3.269  14.684   6.359  0.2529 -0.0240  0.3666
 3263DPPE   C2B61018   3.048  14.302   6.217  0.0035 -0.1683  0.1767
 3263DPPE   C3B61019   3.006  13.808   6.099 -0.3167 -0.0934  0.2534
 3263DPPE   C4B61020   3.269  13.398   6.135  0.1432 -0.0055 -0.1418
 3264DPPE   NH361021  30.895  20.629   3.660 -0.0396 -0.1486 -0.0580
 3264DPPE   PO461022  30.642  20.757   3.990  0.2918  0.1061 -0.0851
 3264DPPE   GL161023  30.964  20.752   4.211  0.2155 -0.1614 -0.2703
 3264DPPE   GL261024  30.878  21.068   4.491 -0.2478  0.4442  0.1652
 3264DPPE   C1A61025  31.320  20.721   4.550 -0.0659 -0.1810 -0.0892
 3264DPPE   C2A61026  31.774  20.850   4.681  0.0942  0.0967  0.0641
 3264DPPE   C3A61027  32.087  21.003   4.891 -0.0701 -0.0557  0.1653
 3264DPPE   C4A61028  32.339  21.334   4.846  0.0756  0.0131 -0.1851
 3264DPPE   C1B61029  30.784  21.243   4.872  0.3240  0.0419 -0.1374
 3264DPPE   C2B61030  30.917  20.904   5.032  0.4970 -0.2366 -0.1450
 3264DPPE   C3B61031  31.328  20.868   5.171 -0.1895  0.2659  0.2564
 3264DPPE   C4B61032  31.753  20.973   5.268 -0.1071 -0.0716 -0.2514
 3265DPPE   NH361033  30.013  19.010  17.194 -0.1000  0.2484  0.1386
 3265DPPE   PO461034  30.208  19.037  16.785 -0.3032  0.1230 -0.3898
 3265DPPE   GL161035  30.389  19.074  16.342 -0.3057  0.2840 -0.0412
 3265DPPE   GL261036  30.284  18.866  16.092 -0.0269  0.1861  0.2904
 3265DPPE   C1A61037  30.783  19.071  16.153  0.1274  0.3584  0.0245
 3265DPPE   C2A61038  31.195  19.334  15.867 -0.2104  0.1602  0.2199
 3265DPPE   C3A61039  31.656  19.415  15.985 -0.1965  0.3189 -0.2848
 3265DPPE   C4A61040  31.744  19.390  16.456  0.0885  0.3769  0.3080
 3265DPPE   C1B61041  30.612  19.216  15.753 -0.3236  0.1137  0.2138
 3265DPPE   C2B61042  30.920  19.234  15.450  0.1554  0.0036  0.0893
 3265DPPE   C3B61043  31.361  19.027  15.300  0.1430 -0.1060 -0.0903
 3265DPPE   C4B61044  31.458  18.675  15.264  0.2304  0.1755 -0.2360
 3266DPPE   NH361045  33.816  10.223  13.268  0.2049 -0.2282  0.1662
 3266DPPE   PO461046  33.441  10.591  13.010 -0.0880  0.2707 -0.4057
 3266DPPE   GL161047  33.623  10.947  13.167 -0.0028  0.2947 -0.1795
 3266DPPE   GL261048  33.768  10.701  13.354 -0.0860  0.1160  0.2831
 3266DPPE   C1A61049  33.991  11.092  13.024 -0.2152  0.2025 -0.4782
 3266DPPE   C2A61050  34.025  11.448  12.917 -0.2002 -0.1986 -0.3894
 3266DPPE   C3A61051  34.122  11.933  12.541 -0.1232 -0.0156 -0.4838
 3266DPPE   C4A61052  34.176  12.327  12.453 -0.2102  0.0453 -0.2574
 3266DPPE   C1B61053  33.719  11.184  13.539  0.4347 -0.1305 -0.1262
 3266DPPE   C2B61054  33.673  11.511  13.769 -0.4319  0.1427 -0.0245
 3266DPPE   C3B61055  33.716  11.811  14.032 -0.1548 -0.0481 -0.2838
 3266DPPE   C4B61056  33.722  12.290  13.781  0.3326 -0.0901  0.2554
 3267DPPE   NH361057  30.309  15.666   7.256  0.2527  0.1449  0.0648
 3267DPPE   PO461058  30.626  16.072   7.175 -0.2960  0.1232 -0.0238
 3267DPPE   GL161059  30.827  16.426   7.219 -0.1086  0.3793  0.3737
 3267DPPE   GL261060  30.924  16.655   6.950  0.3779 -0.0620 -0.3551
 3267DPPE   C1A61061  31.006  16.776   7.458  0.2356  0.1252  0.0593
 3267DPPE   C2A61062  31.106  17.115   7.714 -0.0269  0.0190 -0.0234
 3267DPPE   C3A61063  31.279  17.478   8.030  0.0719 -0.2420  0.0024
 3267DPPE   C4A61064  31.133  17.825   8.239  0.3708  0.1393  0.0140
 3267DPPE   C1B61065  31.331  16.522   7.204 -0.2534  0.0577 -0.1975
 3267DPPE   C2B61066  31.770  16.681   7.226 -0.1032  0.2298  0.0701
 3267DPPE   C3B61067  32.140  16.770   7.255  0.1495  0.1798 -0.2246
 3267DPPE   C4B61068  32.535  16.468   7.333  0.4081  0.3960 -0.0073
 3268DPPE   NH361069   2.615   7.003  14.344  0.2855 -0.3222  0.1537
 3268DPPE   PO461070   2.564   6.758  13.903  0.0993 -0.1610  0.3607
 3268DPPE   GL161071   2.770   7.079  13.767  0.1027 -0.2140  0.1928
 3268DPPE   GL261072   2.786   7.371  13.947 -0.5499  0.0565 -0.1339
 3268DPPE   C1A61073   2.786   7.385  13.390  0.0296  0.0849  0.1521
 3268DPPE   C2A61074   2.658   7.778  13.315 -0.3003  0.1217  0.0898
 3268DPPE   C3A61075   2.733   8.145  13.437 -0.0488  0.0181  0.1635
 3268DPPE   C4A61076   2.516   8.341  13.736 -0.0665 -0.2585 -0.2640
 3268DPPE   C1B61077   2.554   7.792  13.829  0.2814 -0.0656 -0.2819
 3268DPPE   C2B61078   2.255   7.940  13.638  0.4026 -0.1184  0.3820
 3268DPPE   C3B61079   2.137   8.215  13.384  0.0385  0.3618  0.1758
 3268DPPE   C4B61080   2.035   8.622  13.196  0.1347 -0.0601  0.0233
 3269DPPE   NH361081   2.163  28.260  19.432 -0.1419  0.0087 -0.0467
 3269DPPE   PO461082   1.976  27.931  19.547  0.2531 -0.0572  0.0252
 3269DPPE   GL161083   2.102  27.746  19.148  0.0424 -0.0686 -0.1177
 3269DPPE   GL261084   2.149  27.976  18.970 -0.0024 -0.2707 -0.3154
 3269DPPE   C1A61085   2.349  27.545  18.741  0.1000 -0.0465  0.2959
 3269DPPE   C2A61086   2.617  27.665  18.389 -0.0948  0.3242 -0.2099
 3269DPPE   C3A61087   2.775  27.420  17.988 -0.0201  0.0702 -0.3022
 3269DPPE   C4A61088   2.960  27.097  17.766  0.0359 -0.2628  0.0105
 3269DPPE   C1B61089   2.174  27.957  18.544  0.2405 -0.0952  0.1654
 3269DPPE   C2B61090   2.423  28.219  18.168  0.0786  0.1801  0.0853
 3269DPPE   C3B61091   2.704  28.554  18.140 -0.2249 -0.3121  0.1574
 3269DPPE   C4B61092   3.066  28.568  17.883  0.1165 -0.0336  0.0664
 3270DPPE   NH361093   1.413  25.329   0.129  0.0096 -0.1373 -0.1844
 3270DPPE   PO461094   1.698  25.574   0.315 -0.1170  0.2300 -0.0352
 3270DPPE   GL161095   1.764  25.214   0.628 -0.1577 -0.4410  0.0272
 3270DPPE   GL261096   1.540  25.011   0.642  0.1013  0.0334  0.0404
 3270DPPE   C1A61097   1.896  25.055   0.943 -0.1402 -0.0937  0.0475
 3270DPPE   C2A61098   1.995  24.809   1.234  0.3231  0.2083 -0.2471
 3270DPPE   C3A61099   2.342  24.532   1.434  0.0103 -0.0284 -0.0556
 3270DPPE   C4A61100   2.507  24.053   1.546  0.0822 -0.2997  0.1110
 3270DPPE   C1B61101   1.554  24.505   0.609 -0.0871  0.1444  0.0095
 3270DPPE   C2B61102   1.247  24.356   0.855  0.3977  0.0015 -0.0723
 3270DPPE   C3B61103   0.785  24.341   0.872 -0.0967 -0.3235  0.2673
 3270DPPE   C4B61104   0.480  24.273   1.183 -0.1982  0.0962  0.0444
 3271DPPE   NH361105   5.910   9.079  13.209 -0.1186  0.2081 -0.0101
 3271DPPE   PO461106   5.876   9.362  13.425  0.0166 -0.0225 -0.1975
 3271DPPE   GL161107   5.585   9.594  13.248  0.2585 -0.2485  0.1523
 3271DPPE   GL261108   5.748   9.838  13.498  0.0381 -0.1575  0.0128
 3271DPPE   C1A61109   5.297   9.858  13.139 -0.0985 -0.4691  0.2215
 3271DPPE   C2A61110   5.164  10.275  13.014 -0.1134 -0.2748 -0.1879
 3271DPPE   C3A61111   4.754  10.509  12.782  0.0715  0.1540  0.1386
 3271DPPE   C4A61112   4.297  10.366  12.759 -0.4196  0.3793  0.1120
 3271DPPE   C1B61113   5.843  10.073  13.239 -0.0720  0.0854  0.0761
 3271DPPE   C2B61114   5.663  10.499  13.103 -0.2598 -0.1263 -0.3803
 3271DPPE   C3B61115   5.773  10.922  12.999  0.0886 -0.1056 -0.3348
 3271DPPE   C4B61116   5.575  11.132  12.688  0.2761 -0.2137  0.2293
 3272DPPE   NH361117   8.361  29.467  19.399  0.1108  0.0506  0.0427
 3272DPPE   PO461118   7.971  29.635  19.207  0.1208  0.1982  0.0389
 3272DPPE   GL161119   8.080  29.377  18.842  0.2313  0.2010 -0.2480
 3272DPPE   GL261120   7.801  29.376  18.545 -0.3881  0.1369 -0.0544
 3272DPPE   C1A61121   8.026  28.955  18.579 -0.0468 -0.0175 -0.2106
 3272DPPE   C2A61122   8.199  28.648  18.249 -0.0296 -0.0925  0.2051
 3272DPPE   C3A61123   8.037  28.397  17.897 -0.1330  0.4089  0.1784
 3272DPPE   C4A61124   8.007  28.029  18.086  0.1780  0.1438 -0.0854
 3272DPPE   C1B61125   7.618  28.911  18.327 -0.0950  0.1045  0.0861
 3272DPPE   C2B61126   7.662  28.686  17.857  0.3576  0.1736 -0.0304
 3272DPPE   C3B61127   7.711  28.334  17.483 -0.1296  0.0426 -0.0906
 3272DPPE   C4B61128   8.008  28.064  17.104 -0.0054 -0.3340  0.0434
 3273DPPE   NH361129  32.878  11.323  10.533 -0.4018  0.2140 -0.1218
 3273DPPE   PO461130  33.035  10.896  10.620  0.0715 -0.2193  0.2238
 3273DPPE   GL161131  33.315  11.130  10.841  0.1731  0.2815  0.0187
 3273DPPE   GL261132  33.242  11.444  10.904  0.0182 -0.0171 -0.0495
 3273DPPE   C1A61133  33.839  11.128  10.696  0.2863 -0.3484  0.0037
 3273DPPE   C2A61134  34.147  11.299  10.882  0.0165  0.1968  0.1143
 3273DPPE   C3A61135  34.486  11.484  10.894 -0.0020  0.3045 -0.1485
 3273DPPE   C4A61136  34.942  11.596  10.943  0.2130 -0.1213  0.1352
 3273DPPE   C1B61137  33.578  11.574  10.718  0.0068  0.0453  0.0513
 3273DPPE   C2B61138  33.937  11.802  10.818  0.1837  0.0926  0.0230
 3273DPPE   C3B61139  34.107  11.762  11.147  0.1438 -0.0854  0.0982
 3273DPPE   C4B61140  34.448  11.723  11.497 -0.1784 -0.0693  0.0583
 3274DPPE   NH361141   3.323   8.198  16.107  0.1164 -0.0790 -0.0272
 3274DPPE   PO461142   3.325   8.582  16.052  0.1091 -0.3839  0.0478
 3274DPPE   GL161143   3.143   8.705  15.709 -0.1393 -0.0979  0.1001
 3274DPPE   GL261144   2.793   8.743  15.583 -0.2619 -0.3472  0.0299
 3274DPPE   C1A61145   3.160   9.106  15.534  0.1553 -0.3833 -0.2889
 3274DPPE   C2A61146   3.091   9.499  15.671 -0.0748  0.0391  0.0160
 3274DPPE   C3A61147   3.046   9.945  15.666  0.0657  0.3884 -0.1064
 3274DPPE   C4A61148   2.984  10.110  15.980  0.3534 -0.0705  0.1222
 3274DPPE   C1B61149   2.632   8.859  15.263 -0.2481  0.1031 -0.2006
 3274DPPE   C2B61150   2.250   9.093  15.232  0.0828 -0.1931  0.0945
 3274DPPE   C3B61151   1.886   8.850  15.411 -0.0257 -0.2153  0.2148
 3274DPPE   C4B61152   1.867   8.416  15.407  0.3289  0.2565 -0.0396
 3275DPPE   NH361153  30.662  18.338   4.898  0.0276 -0.0158  0.0672
 3275DPPE   PO461154  30.558  18.463   5.219 -0.0188 -0.1602 -0.0665
 3275DPPE   GL161155  30.928  18.440   5.304  0.4115  0.0048 -0.0593
 3275DPPE   GL261156  31.058  18.587   5.027  0.2351  0.0662  0.1074
 3275DPPE   C1A61157  31.342  18.442   5.397 -0.0552 -0.1207 -0.0266
 3275DPPE   C2A61158  31.763  18.350   5.437 -0.4464 -0.1824  0.2681
 3275DPPE   C3A61159  32.159  18.500   5.247 -0.2571 -0.0386 -0.0302
 3275DPPE   C4A61160  32.504  18.749   5.470 -0.2401 -0.2421 -0.0898
 3275DPPE   C1B61161  31.123  18.887   5.304  0.2815 -0.2994  0.1049
 3275DPPE   C2B61162  31.402  19.097   5.566 -0.2363 -0.2701 -0.6007
 3275DPPE   C3B61163  31.697  19.342   5.799  0.0749  0.1004 -0.2271
 3275DPPE   C4B61164  32.037  19.229   5.954  0.0032 -0.2260 -0.3182
 3276DPPE   NH361165  33.568  13.232   3.476 -0.1096  0.0068 -0.3253
 3276DPPE   PO461166  33.487  12.772   3.536  0.2720 -0.3579 -0.1217
 3276DPPE   GL161167  33.931  12.880   3.674 -0.1391  0.1608  0.2686
 3276DPPE   GL261168  34.123  12.933   3.394  0.2439 -0.3463 -0.0423
 3276DPPE   C1A61169  34.039  13.235   3.936 -0.0898  0.0230  0.1106
 3276DPPE   C2A61170  34.327  13.461   4.154 -0.0751  0.1326 -0.3544
 3276DPPE   C3A61171  34.584  13.805   4.332  0.3350  0.0374 -0.2080
 3276DPPE   C4A61172  34.847  13.834   4.677  0.1327 -0.1097  0.0625
 3276DPPE   C1B61173  34.532  13.037   3.725  0.1239  0.2841 -0.0205
 3276DPPE   C2B61174  34.783  13.154   4.097  0.1009  0.0243  0.0717
 3276DPPE   C3B61175  35.050  13.373   4.326  0.5148 -0.1118 -0.0211
 3276DPPE   C4B61176  35.381  13.480   4.375  0.0288  0.3133 -0.0127
 3277DPPE   NH361177  29.053  20.098  13.720 -0.0728  0.3610 -0.0240
 3277DPPE   PO461178  29.036  19.971  14.149 -0.3245  0.0988  0.0720
 3277DPPE   GL161179  29.465  19.865  14.056 -0.1452  0.1984 -0.3753
 3277DPPE   GL261180  29.524  20.014  13.831 -0.0198 -0.0496 -0.3341
 3277DPPE   C1A61181  29.794  19.697  14.072 -0.1544  0.2139  0.0729
 3277DPPE   C2A61182  30.087  19.560  13.864  0.2964 -0.0479  0.0500
 3277DPPE   C3A61183  30.436  19.482  13.568  0.1930  0.1067 -0.1654
 3277DPPE   C4A61184  30.812  19.636  13.602 -0.0791 -0.1442  0.1067
 3277DPPE   C1B61185  29.870  19.994  13.539 -0.0617  0.0962 -0.0785
 3277DPPE   C2B61186  30.349  20.005  13.700  0.0178 -0.4112  0.1483
 3277DPPE   C3B61187  30.764  20.069  13.998 -0.1997  0.1224 -0.3946
 3277DPPE   C4B61188  31.167  20.446  14.057  0.0735  0.0804  0.0112
 3278DPPE   NH361189  35.590  20.874  20.040 -0.4255 -0.1253 -0.0354
 3278DPPE   PO461190  35.238  20.612  20.282  0.1641 -0.0534  0.2831
 3278DPPE   GL161191  35.255  20.330  19.983  0.0796  0.2488  0.2755
 3278DPPE   GL261192  35.060  20.075  20.133 -0.1879 -0.0877  0.2556
 3278DPPE   C1A61193  35.031  20.227  19.642  0.0212 -0.1033  0.0575
 3278DPPE   C2A61194  35.061  20.439  19.220  0.0458 -0.2032 -0.0761
 3278DPPE   C3A61195  35.489  20.527  18.921  0.0329 -0.1025 -0.1265
 3278DPPE   C4A61196  35.897  20.352  19.046 -0.1155  0.1126  0.1505
 3278DPPE   C1B61197  35.338  19.837  19.852 -0.1001 -0.1185  0.0186
 3278DPPE   C2B61198  35.631  19.651  20.143 -0.1353 -0.0331 -0.0295
 3278DPPE   C3B61199  35.906  19.288  20.250  0.1523  0.3795 -0.0612
 3278DPPE   C4B61200  36.153  18.959  20.403 -0.0262  0.0614  0.1993
 3279DPPE   NH361201  33.777  10.624   8.639  0.0925 -0.3021 -0.4146
 3279DPPE   PO461202  33.618  10.956   8.449 -0.2423 -0.0266  0.1588
 3279DPPE   GL161203  34.055  10.884   8.305  0.3943 -0.2628 -0.4728
 3279DPPE   GL261204  34.206  11.188   8.180 -0.2538 -0.1257  0.1196
 3279DPPE   C1A61205  34.590  10.978   8.375 -0.1458 -0.0347 -0.3443
 3279DPPE   C2A61206  35.038  10.852   8.416  0.3154 -0.4439 -0.2053
 3279DPPE   C3A61207  35.479  10.754   8.321  0.1216  0.3461 -0.0196
 3279DPPE   C4A61208  35.970  10.833   8.081  0.0434 -0.0548 -0.2042
 3279DPPE   C1B61209  34.621  11.276   7.905  0.1843  0.0356  0.0726
 3279DPPE   C2B61210  35.000  11.406   7.735  0.0090 -0.2241 -0.0630
 3279DPPE   C3B61211  35.222  11.488   7.423  0.2419  0.1610 -0.0761
 3279DPPE   C4B61212  35.557  11.645   7.069 -0.0461 -0.0496  0.1264
 3280DPPE   NH361213   1.933  11.511   4.663 -0.1349 -0.4964 -0.2725
 3280DPPE   PO461214   2.169  11.801   4.504  0.1998 -0.4745 -0.1397
 3280DPPE   GL161215   2.430  11.603   4.198 -0.0696 -0.1681  0.0567
 3280DPPE   GL261216   2.622  11.387   4.343  0.0643  0.0648 -0.0868
 3280DPPE   C1A61217   2.678  11.647   3.813  0.0160  0.1214  0.2202
 3280DPPE   C2A61218   2.889  12.020   3.746  0.2086 -0.2483 -0.3105
 3280DPPE   C3A61219   3.269  12.160   4.092  0.0294 -0.1331 -0.0497
 3280DPPE   C4A61220   3.639  12.051   4.091  0.0064  0.1820  0.3223
 3280DPPE   C1B61221   2.593  11.143   3.895  0.1427 -0.0353 -0.2942
 3280DPPE   C2B61222   2.654  11.247   3.536 -0.2297 -0.1863  0.2515
 3280DPPE   C3B61223   2.718  11.412   3.261 -0.0061  0.2258 -0.1791
 3280DPPE   C4B61224   2.644  11.441   2.816 -0.0267  0.0861 -0.0262
 3281DPPE   NH361225  37.373  13.814   5.107  0.2934  0.1312  0.2671
 3281DPPE   PO461226  37.485  13.430   5.066 -0.2405 -0.1007  0.4392
 3281DPPE   GL161227  37.151  13.335   4.925  0.2224 -0.3038 -0.0273
 3281DPPE   GL261228  36.970  13.191   5.073  0.1759  0.0729 -0.0225
 3281DPPE   C1A61229  36.856  13.245   4.606 -0.1291  0.0928 -0.1599
 3281DPPE   C2A61230  36.699  13.014   4.362  0.0880 -0.3833 -0.1434
 3281DPPE   C3A61231  36.287  12.891   4.179 -0.2391 -0.2018  0.3521
 3281DPPE   C4A61232  36.123  12.407   4.294  0.0508 -0.1358  0.1207
 3281DPPE   C1B61233  36.547  13.015   5.090  0.0327 -0.4295 -0.0411
 3281DPPE   C2B61234  36.237  12.746   5.186  0.0432 -0.2048 -0.0838
 3281DPPE   C3B61235  36.015  12.345   5.126 -0.0141 -0.0148 -0.0425
 3281DPPE   C4B61236  35.989  11.988   5.011  0.0714  0.0411 -0.1922
 3282DPPE   NH361237   0.368  15.215   4.481  0.0292 -0.2165  0.0272
 3282DPPE   PO461238   0.526  15.145   4.158  0.4369 -0.0457  0.3667
 3282DPPE   GL161239   0.812  15.354   4.507 -0.3376  0.1055 -0.1001
 3282DPPE   GL261240   0.774  15.146   4.775 -0.0567 -0.0037  0.0271
 3282DPPE   C1A61241   1.158  15.662   4.394  0.4173 -0.1108  0.1801
 3282DPPE   C2A61242   1.323  15.877   4.654 -0.2313 -0.1815 -0.0721
 3282DPPE   C3A61243   1.591  15.613   5.053 -0.0002  0.1602 -0.3843
 3282DPPE   C4A61244   2.045  15.633   5.120 -0.1893  0.0675  0.3378
 3282DPPE   C1B61245   1.136  15.302   5.005  0.0241  0.1091  0.1113
 3282DPPE   C2B61246   1.251  15.550   5.411  0.1301  0.0277 -0.1615
 3282DPPE   C3B61247   1.656  15.658   5.605  0.3608  0.3491  0.2069
 3282DPPE   C4B61248   1.971  15.926   5.602  0.1896  0.1977  0.3670
 3283DPPE   NH361249  33.827  17.854  10.098  0.0786 -0.0499  0.3392
 3283DPPE   PO461250  33.531  17.917   9.824  0.1639 -0.0546 -0.4107
 3283DPPE   GL161251  33.161  17.661   9.841 -0.3135  0.0319  0.2466
 3283DPPE   GL261252  33.033  17.806   9.538  0.0270 -0.1010  0.0699
 3283DPPE   C1A61253  33.027  17.298  10.038 -0.2619 -0.0678 -0.1287
 3283DPPE   C2A61254  32.855  16.992   9.942  0.1167  0.1212  0.2665
 3283DPPE   C3A61255  32.612  16.711   9.745 -0.3522  0.1323  0.0802
 3283DPPE   C4A61256  32.158  16.573   9.739  0.1757  0.0682  0.1477
 3283DPPE   C1B61257  32.725  17.627   9.634 -0.0862  0.3277  0.0271
 3283DPPE   C2B61258  32.284  17.546   9.484 -0.3991  0.0545 -0.0861
 3283DPPE   C3B61259  31.778  17.395   9.486  0.0720  0.1420 -0.1258
 3283DPPE   C4B61260  31.395  17.574   9.784 -0.3636  0.1917  0.1070
 3284DPPE   NH361261  36.756  13.662  14.353  0.0896  0.1484 -0.0218
 3284DPPE   PO461262  36.705  13.184  14.484  0.1143 -0.1776  0.2548
 3284DPPE   GL161263  36.470  12.997  14.722 -0.0605  0.1200 -0.1481
 3284DPPE   GL261264  36.792  12.695  14.763 -0.2657  0.2072 -0.1209
 3284DPPE   C1A61265  36.299  12.660  14.884  0.3790  0.2042 -0.0894
 3284DPPE   C2A61266  35.899  12.442  15.048  0.2927  0.1701 -0.3128
 3284DPPE   C3A61267  35.531  12.333  15.385  0.1149  0.2754  0.1715
 3284DPPE   C4A61268  35.053  12.201  15.329  0.0497  0.0880  0.2003
 3284DPPE   C1B61269  36.782  12.249  15.002  0.1233 -0.3075 -0.2071
 3284DPPE   C2B61270  36.593  11.864  15.147 -0.2132 -0.1443  0.1916
 3284DPPE   C3B61271  36.391  11.503  15.101  0.0154 -0.0602 -0.2277
 3284DPPE   C4B61272  36.273  11.259  14.827 -0.0385 -0.1053 -0.1675
 3285DPPE   NH361273  34.738  19.977  13.960 -0.1970 -0.0247  0.1966
 3285DPPE   PO461274  34.626  20.372  14.217 -0.0118  0.0772  0.1715
 3285DPPE   GL161275  34.941  20.543  13.967 -0.0205 -0.3002 -0.2015
 3285DPPE   GL261276  34.813  20.397  13.704  0.0880 -0.3120 -0.2546
 3285DPPE   C1A61277  35.362  20.467  13.973  0.2110 -0.1963 -0.3534
 3285DPPE   C2A61278  35.744  20.746  13.791  0.4253 -0.0613 -0.1996
 3285DPPE   C3A61279  36.153  21.029  13.728  0.0417 -0.0463 -0.0692
 3285DPPE   C4A61280  36.331  21.180  13.351 -0.0499 -0.1123 -0.2504
 3285DPPE   C1B61281  35.189  20.239  13.469 -0.1649 -0.1775 -0.0174
 3285DPPE   C2B61282  35.574  20.014  13.236  0.1567 -0.1382  0.1850
 3285DPPE   C3B61283  35.911  19.909  12.968 -0.3977  0.2036 -0.1514
 3285DPPE   C4B61284  36.190  20.133  12.679  0.2973 -0.1742  0.4010
 3286DPPE   NH361285  38.335  12.194  14.821 -0.1734  0.1564  0.3251
 3286DPPE   PO461286  38.621  12.368  15.045 -0.2506  0.1193  0.3476
 3286DPPE   GL161287  38.510  11.952  15.279  0.1791 -0.0786  0.3810
 3286DPPE   GL261288  38.115  12.034  15.287  0.0956 -0.1714 -0.1021
 3286DPPE   C1A61289  38.425  11.546  15.375 -0.0210 -0.2641 -0.3171
 3286DPPE   C2A61290  38.018  11.370  15.615  0.0285  0.2237 -0.1164
 3286DPPE   C3A61291  37.945  11.075  15.960 -0.0415 -0.0362  0.0448
 3286DPPE   C4A61292  37.943  10.756  16.379  0.0336  0.4447  0.2156
 3286DPPE   C1B61293  37.876  11.813  15.584  0.2212 -0.4233  0.0458
 3286DPPE   C2B61294  37.746  11.775  16.056  0.0666 -0.0705  0.1932
 3286DPPE   C3B61295  37.674  11.463  16.283 -0.0449  0.1054  0.2081
 3286DPPE   C4B61296  37.706  11.188  16.538  0.1021 -0.0358  0.2709
 3287DPPE   NH361297   0.031  11.138   9.026 -0.0981  0.0172 -0.0151
 3287DPPE   PO461298  -0.148  11.436   9.286 -0.1123  0.1506 -0.0752
 3287DPPE   GL161299  -0.366  11.101   9.292 -0.2172 -0.0679  0.0291
 3287DPPE   GL261300  -0.270  10.714   9.170  0.1907  0.2492 -0.3504
 3287DPPE   C1A61301  -0.661  10.752   9.422  0.1534  0.0684  0.2926
 3287DPPE   C2A61302  -0.772  10.407   9.253 -0.0031  0.0253  0.2351
 3287DPPE   C3A61303  -0.907  10.053   9.166  0.0326  0.2177 -0.3678
 3287DPPE   C4A61304  -1.053   9.696   8.958 -0.3264 -0.1807  0.4024
 3287DPPE   C1B61305  -0.258  10.327   9.264 -0.0702  0.0609 -0.0234
 3287DPPE   C2B61306  -0.322   9.896   9.211 -0.0089  0.1856 -0.2276
 3287DPPE   C3B61307  -0.569   9.677   9.198 -0.3748  0.2763  0.2158
 3287DPPE   C4B61308  -0.716   9.287   9.107  0.2448  0.0370 -0.1270
 3288DPPE   NH361309  33.269  22.104   9.876 -0.1474 -0.0370 -0.0727
 3288DPPE   PO461310  33.040  21.798   9.793  0.0341  0.0111 -0.1292
 3288DPPE   GL161311  32.666  21.736   9.502 -0.1795 -0.0842 -0.0070
 3288DPPE   GL261312  32.628  21.819   9.163 -0.3782 -0.2312 -0.3017
 3288DPPE   C1A61313  32.374  22.129   9.490  0.2001  0.2854  0.1961
 3288DPPE   C2A61314  32.006  22.364   9.542 -0.1774 -0.2106  0.1092
 3288DPPE   C3A61315  31.891  22.460   9.945  0.0523 -0.0885  0.1926
 3288DPPE   C4A61316  31.570  22.715  10.242  0.0704 -0.1333  0.1410
 3288DPPE   C1B61317  32.247  22.000   9.007  0.0396 -0.1852  0.3291
 3288DPPE   C2B61318  31.861  22.012   8.693 -0.1617  0.0437 -0.1368
 3288DPPE   C3B61319  31.430  21.881   8.628  0.1082 -0.1438 -0.3095
 3288DPPE   C4B61320  31.079  21.790   8.491  0.1971 -0.1970 -0.1537
 3289DPPE   NH361321  37.857  15.857   2.607 -0.6076  0.0370  0.1780
 3289DPPE   PO461322  37.979  16.331   2.676  0.0160 -0.0295 -0.0473
 3289DPPE   GL161323  37.925  16.301   2.301 -0.1389 -0.1981  0.1121
 3289DPPE   GL261324  38.067  16.570   2.170  0.1898 -0.0319 -0.3113
 3289DPPE   C1A61325  37.965  16.176   1.861  0.0904 -0.1054 -0.3088
 3289DPPE   C2A61326  38.003  15.947   1.552 -0.1397 -0.2900 -0.5175
 3289DPPE   C3A61327  38.285  15.991   1.275  0.3768 -0.2361  0.1579
 3289DPPE   C4A61328  38.714  15.822   1.199 -0.1906 -0.0245  0.1920
 3289DPPE   C1B61329  37.893  16.668   1.837 -0.0367 -0.0690  0.2622
 3289DPPE   C2B61330  37.951  16.939   1.555 -0.0152 -0.2645  0.0032
 3289DPPE   C3B61331  37.917  17.329   1.359 -0.3785  0.1768 -0.4306
 3289DPPE   C4B61332  38.280  17.670   1.319  0.1608 -0.1656  0.0262
 3290DPPE   NH361333  35.196  14.769  10.060  0.2890  0.0245 -0.2550
 3290DPPE   PO461334  35.191  14.710   9.599 -0.1666 -0.0327 -0.1193
 3290DPPE   GL161335  34.788  14.607   9.388  0.0011 -0.0861 -0.0239
 3290DPPE   GL261336  34.727  14.729   9.044  0.5011  0.0880 -0.0893
 3290DPPE   C1A61337  34.360  14.442   9.410  0.1951 -0.2963 -0.3622
 3290DPPE   C2A61338  34.006  14.297   9.183  0.0720 -0.3109  0.0149
 3290DPPE   C3A61339  33.617  14.126   9.226 -0.1196  0.0670  0.0176
 3290DPPE   C4A61340  33.186  13.765   9.350 -0.0641 -0.1578  0.4194
 3290DPPE   C1B61341  34.600  14.331   8.995 -0.0552  0.2432 -0.5022
 3290DPPE   C2B61342  34.480  13.989   8.739  0.2227 -0.0594  0.0370
 3290DPPE   C3B61343  34.211  13.688   8.620  0.1058  0.1150 -0.1956
 3290DPPE   C4B61344  34.023  13.317   8.418 -0.1914 -0.0126  0.0256
 3291DPPE   NH361345   1.225  10.454   8.152  0.0542  0.3462 -0.1059
 3291DPPE   PO461346   0.972  10.582   8.553  0.1274 -0.0260  0.2583
 3291DPPE   GL161347   0.651  10.472   8.273  0.0172 -0.0749 -0.1762
 3291DPPE   GL261348   0.753  10.387   8.003 -0.1687 -0.0982 -0.0688
 3291DPPE   C1A61349   0.299  10.164   7.907 -0.2392  0.2585  0.0399
 3291DPPE   C2A61350   0.085   9.975   7.596 -0.0810 -0.2042 -0.0476
 3291DPPE   C3A61351  -0.273   9.838   7.392  0.0242 -0.0392 -0.0378
 3291DPPE   C4A61352  -0.308   9.872   7.073 -0.0413  0.2249  0.0085
 3291DPPE   C1B61353   0.667   9.882   8.067 -0.4690  0.0683  0.2054
 3291DPPE   C2B61354   0.523   9.515   8.262  0.0810  0.2106 -0.3172
 3291DPPE   C3B61355   0.429   9.103   8.239 -0.0596  0.0386  0.1619
 3291DPPE   C4B61356   0.248   8.726   8.035  0.2585  0.0943 -0.0379
 3292DPPE   NH361357  34.149  23.768   8.843  0.0736 -0.2008 -0.0789
 3292DPPE   PO461358  34.312  23.374   8.981 -0.0192 -0.1203  0.3502
 3292DPPE   GL161359  34.720  23.631   9.183 -0.1631 -0.0684 -0.0076
 3292DPPE   GL261360  34.973  23.436   9.207 -0.2409  0.0383  0.0810
 3292DPPE   C1A61361  34.998  23.964   9.106  0.2056  0.1875  0.3039
 3292DPPE   C2A61362  35.186  24.407   9.085  0.3018 -0.6528 -0.1116
 3292DPPE   C3A61363  35.571  24.556   9.207  0.0068  0.3349  0.1534
 3292DPPE   C4A61364  35.943  24.648   9.408 -0.0603 -0.1917  0.2713
 3292DPPE   C1B61365  35.057  23.741   9.537  0.4682 -0.0382 -0.3190
 3292DPPE   C2B61366  35.297  24.155   9.477  0.1775  0.0213  0.0522
 3292DPPE   C3B61367  35.523  24.429   9.711 -0.0752  0.0075 -0.0812
 3292DPPE   C4B61368  35.810  24.485   9.895 -0.0874 -0.1336  0.1832
 3293DPPE   NH361369  34.615  20.407   4.621  0.2194  0.1669 -0.0538
 3293DPPE   PO461370  34.617  20.001   4.841  0.1265 -0.0416  0.0686
 3293DPPE   GL161371  34.267  19.922   4.642 -0.2807  0.0423 -0.1266
 3293DPPE   GL261372  34.076  19.667   4.702 -0.0224  0.1434  0.0282
 3293DPPE   C1A61373  33.979  20.102   4.481  0.3635  0.0823 -0.0434
 3293DPPE   C2A61374  33.607  19.967   4.336 -0.1303 -0.1677  0.0800
 3293DPPE   C3A61375  33.405  19.830   4.256  0.0830  0.2507  0.1112
 3293DPPE   C4A61376  32.969  19.935   4.052 -0.2734 -0.1829 -0.1299
 3293DPPE   C1B61377  33.731  19.693   4.756 -0.1646  0.0364 -0.1273
 3293DPPE   C2B61378  33.256  19.784   4.767  0.4486 -0.1789  0.0301
 3293DPPE   C3B61379  32.927  19.823   4.549 -0.2391 -0.1478 -0.2137
 3293DPPE   C4B61380  32.521  19.836   4.653  0.3616 -0.0533 -0.1416
 3294DPPE   NH361381  33.690  22.908  11.865 -0.3438 -0.0391 -0.1282
 3294DPPE   PO461382  33.866  23.241  11.809  0.0744  0.0678 -0.0985
 3294DPPE   GL161383  34.149  23.547  11.760 -0.1212  0.1537  0.1353
 3294DPPE   GL261384  33.979  23.814  11.714  0.2685 -0.0254 -0.0563
 3294DPPE   C1A61385  34.550  23.781  11.880 -0.0600  0.1347 -0.0861
 3294DPPE   C2A61386  34.805  24.158  11.847 -0.1568 -0.0401 -0.2187
 3294DPPE   C3A61387  34.846  24.531  11.632 -0.1662 -0.3334  0.0589
 3294DPPE   C4A61388  34.641  24.877  11.484 -0.2623  0.1950  0.1880
 3294DPPE   C1B61389  34.338  23.926  11.431  0.2124 -0.0091 -0.1410
 3294DPPE   C2B61390  34.679  24.154  11.333  0.0616 -0.0785  0.1022
 3294DPPE   C3B61391  34.658  24.562  11.063 -0.1244 -0.0008 -0.1468
 3294DPPE   C4B61392  34.444  24.601  10.701  0.0097 -0.0775 -0.0127
 3295DPPE   NH361393   2.093  13.184  15.124 -0.0951 -0.2358 -0.0918
 3295DPPE   PO461394   1.777  13.328  15.338  0.0010  0.1100 -0.1205
 3295DPPE   GL161395   2.145  13.670  15.267  0.0440  0.0800 -0.0712
 3295DPPE   GL261396   2.533  13.479  15.299 -0.0577  0.3570 -0.0759
 3295DPPE   C1A61397   2.574  13.879  15.537  0.3757 -0.1830  0.1245
 3295DPPE   C2A61398   2.704  14.131  15.886 -0.3172  0.0002 -0.0465
 3295DPPE   C3A61399   3.048  14.156  16.171  0.1253  0.1068 -0.0717
 3295DPPE   C4A61400   3.167  14.251  16.583  0.0422 -0.0874  0.0260
 3295DPPE   C1B61401   2.826  13.421  15.555  0.2651 -0.0154 -0.0149
 3295DPPE   C2B61402   3.215  13.224  15.727 -0.1061 -0.0836  0.3261
 3295DPPE   C3B61403   3.622  13.197  15.930 -0.0562 -0.0175 -0.1811
 3295DPPE   C4B61404   4.113  13.168  15.778  0.0811 -0.0518 -0.3819
 3296DPPE   NH361405   0.986  13.820  17.563  0.0211 -0.2905 -0.4465
 3296DPPE   PO461406   0.644  13.560  17.362 -0.0862  0.0007 -0.0674
 3296DPPE   GL161407   0.538  13.277  17.668  0.0411  0.0278 -0.5043
 3296DPPE   GL261408   0.444  13.017  17.548 -0.2803  0.0213  0.0894
 3296DPPE   C1A61409   0.736  13.046  17.967  0.0372 -0.1282  0.1680
 3296DPPE   C2A61410   1.021  12.951  18.274 -0.1659  0.0291 -0.1819
 3296DPPE   C3A61411   1.345  12.971  18.629 -0.0430 -0.0469 -0.0262
 3296DPPE   C4A61412   1.556  13.234  18.991 -0.0192 -0.1286 -0.0937
 3296DPPE   C1B61413   0.729  12.685  17.569 -0.2678  0.1823  0.4958
 3296DPPE   C2B61414   0.848  12.247  17.625  0.0448 -0.2331 -0.0719
 3296DPPE   C3B61415   1.110  12.112  18.007 -0.0453 -0.0139 -0.3508
 3296DPPE   C4B61416   1.295  12.169  18.462  0.0797 -0.0199 -0.0801
 3297DPPE   NH361417   3.445  10.844   9.880  0.0531  0.1678  0.0432
 3297DPPE   PO461418   3.023  11.023   9.833  0.0077 -0.1798  0.1622
 3297DPPE   GL161419   3.306  11.451   9.818 -0.1540  0.2268  0.0823
 3297DPPE   GL261420   3.232  11.496   9.630 -0.2448 -0.1835  0.0754
 3297DPPE   C1A61421   3.569  11.864   9.783 -0.2045  0.2256 -0.1749
 3297DPPE   C2A61422   3.442  12.314   9.827  0.1387  0.2021  0.0510
 3297DPPE   C3A61423   3.658  12.611   9.535  0.0008  0.2237  0.1639
 3297DPPE   C4A61424   3.798  13.050   9.372  0.1867 -0.1002 -0.0215
 3297DPPE   C1B61425   3.565  11.649   9.311 -0.0191  0.1556 -0.1741
 3297DPPE   C2B61426   3.798  11.759   8.902 -0.0756  0.1152 -0.1325
 3297DPPE   C3B61427   4.231  11.817   8.843  0.2824  0.0064  0.2449
 3297DPPE   C4B61428   4.624  11.735   9.092 -0.0234 -0.0406  0.0539
 3298DPPE   NH361429   1.148  12.117  11.331 -0.0172  0.3961  0.4173
 3298DPPE   PO461430   1.490  12.242  11.129 -0.1365 -0.0640  0.0747
 3298DPPE   GL161431   1.760  12.596  11.153 -0.2305  0.0852 -0.4366
 3298DPPE   GL261432   2.020  12.492  11.434 -0.2544  0.1167  0.0193
 3298DPPE   C1A61433   2.079  12.855  11.025 -0.1708  0.1427 -0.1486
 3298DPPE   C2A61434   2.341  13.120  10.870  0.0677 -0.1619 -0.1029
 3298DPPE   C3A61435   2.587  13.156  10.579 -0.1555 -0.0884 -0.2861
 3298DPPE   C4A61436   2.636  13.444  10.262  0.0882  0.0209 -0.0478
 3298DPPE   C1B61437   2.318  12.690  11.484  0.0477  0.3003 -0.1981
 3298DPPE   C2B61438   2.312  13.140  11.419 -0.3341 -0.1044 -0.0211
 3298DPPE   C3B61439   2.336  13.657  11.542  0.4100 -0.1812 -0.0012
 3298DPPE   C4B61440   2.335  14.055  11.307 -0.1131 -0.1837  0.2410
 3299DPPE   NH361441  34.102  18.649   5.763  0.1837  0.0008  0.1151
 3299DPPE   PO461442  34.186  19.008   5.512  0.1342 -0.2909  0.0847
 3299DPPE   GL161443  34.093  19.124   5.058  0.0258  0.0294 -0.3184
 3299DPPE   GL261444  33.856  19.282   5.005  0.0850 -0.1090  0.1118
 3299DPPE   C1A61445  33.815  18.852   4.835  0.2220  0.0695  0.1829
 3299DPPE   C2A61446  33.595  18.817   4.451 -0.0734 -0.3004 -0.4149
 3299DPPE   C3A61447  33.360  18.853   4.023  0.0796 -0.1628  0.3551
 3299DPPE   C4A61448  33.273  19.016   3.537 -0.0186 -0.1139  0.1096
 3299DPPE   C1B61449  33.381  19.331   5.020  0.1284  0.0111 -0.0233
 3299DPPE   C2B61450  32.950  19.298   4.880  0.0722 -0.0048 -0.0240
 3299DPPE   C3B61451  32.453  19.335   4.650 -0.1490 -0.2907  0.3175
 3299DPPE   C4B61452  32.032  19.482   4.866 -0.0255  0.1243  0.1088
 3300DPPE   NH361453   3.113  10.562  10.122 -0.0537 -0.1874  0.0122
 3300DPPE   PO461454   3.407  10.491  10.399 -0.1552  0.3656  0.1395
 3300DPPE   GL161455   3.854  10.504  10.460  0.0516 -0.2400  0.0078
 3300DPPE   GL261456   3.892  10.691  10.151  0.0889  0.0108  0.2115
 3300DPPE   C1A61457   4.080  10.257  10.212 -0.1246  0.0351  0.3342
 3300DPPE   C2A61458   4.130   9.946   9.836  0.0531  0.2415 -0.0103
 3300DPPE   C3A61459   4.054   9.948   9.358  0.4382 -0.2762  0.1553
 3300DPPE   C4A61460   3.980  10.188   9.088  0.2039 -0.0800 -0.4003
 3300DPPE   C1B61461   4.183  10.832   9.866 -0.3260  0.2143  0.1981
 3300DPPE   C2B61462   4.385  10.936   9.534  0.1301  0.0901  0.0512
 3300DPPE   C3B61463   4.572  11.220   9.152  0.2621  0.0611 -0.0790
 3300DPPE   C4B61464   4.907  11.064   9.049 -0.0337  0.0257 -0.1018
 3301DPPE   NH361465  35.626  18.828  17.450 -0.1085  0.0182  0.2180
 3301DPPE   PO461466  36.100  18.924  17.453  0.1701 -0.0595  0.2986
 3301DPPE   GL161467  36.505  19.296  17.635 -0.0344  0.0852 -0.1006
 3301DPPE   GL261468  36.728  19.127  17.738 -0.4239 -0.0988  0.0619
 3301DPPE   C1A61469  36.685  19.681  17.804 -0.0224  0.1027  0.2019
 3301DPPE   C2A61470  36.829  19.975  18.044  0.0843  0.1140  0.0630
 3301DPPE   C3A61471  37.056  20.296  17.997  0.1510  0.0432 -0.2355
 3301DPPE   C4A61472  37.061  20.733  17.821 -0.2287 -0.1328  0.0467
 3301DPPE   C1B61473  37.119  18.941  17.671  0.1264 -0.2833  0.3019
 3301DPPE   C2B61474  37.300  18.669  17.828 -0.0346 -0.1915 -0.1237
 3301DPPE   C3B61475  37.775  18.675  17.786  0.0632 -0.0538 -0.0027
 3301DPPE   C4B61476  38.207  18.828  17.649 -0.1230 -0.2350 -0.3974
 3302DPPE   NH361477  33.684  19.109  11.900 -0.1650  0.3323  0.2725
 3302DPPE   PO461478  33.867  19.310  12.359  0.1521  0.4574  0.2361
 3302DPPE   GL161479  34.204  19.432  12.099  0.0303 -0.1717 -0.3501
 3302DPPE   GL261480  34.284  19.236  11.900 -0.1263 -0.4277 -0.1845
 3302DPPE   C1A61481  34.671  19.666  12.027 -0.2728  0.0978 -0.0111
 3302DPPE   C2A61482  35.179  19.727  11.855  0.0154 -0.0921 -0.0244
 3302DPPE   C3A61483  35.613  19.816  11.836  0.2959  0.2834 -0.0946
 3302DPPE   C4A61484  36.019  19.963  11.779 -0.0527 -0.1927 -0.0434
 3302DPPE   C1B61485  34.741  19.269  11.746  0.1195 -0.0065  0.4556
 3302DPPE   C2B61486  35.150  19.211  11.740 -0.3251 -0.2096  0.1146
 3302DPPE   C3B61487  35.583  19.218  11.695 -0.0141 -0.0420  0.2606
 3302DPPE   C4B61488  36.002  19.272  11.679 -0.1527 -0.2384 -0.0157
 3303DPPE   NH361489  38.096  13.971  17.663  0.2043  0.0257 -0.1858
 3303DPPE   PO461490  38.513  14.178  17.888  0.0347 -0.3147 -0.0369
 3303DPPE   GL161491  38.498  13.785  18.034 -0.1187  0.0148  0.0234
 3303DPPE   GL261492  38.503  13.605  17.797 -0.0708 -0.0138 -0.1508
 3303DPPE   C1A61493  38.633  13.471  18.236  0.0697  0.0223  0.2905
 3303DPPE   C2A61494  38.601  13.079  18.424  0.1468 -0.0781 -0.3026
 3303DPPE   C3A61495  38.774  12.655  18.416  0.1957 -0.1537 -0.0353
 3303DPPE   C4A61496  38.698  12.304  18.399  0.3015  0.0791  0.1496
 3303DPPE   C1B61497  38.390  13.162  17.837 -0.2365  0.3005  0.2023
 3303DPPE   C2B61498  38.715  12.751  17.898 -0.1753 -0.1235 -0.0219
 3303DPPE   C3B61499  38.941  12.398  17.947  0.1253  0.2238  0.0901
 3303DPPE   C4B61500  39.202  12.562  18.122  0.4086 -0.1638 -0.1080
 3304DPPE   NH361501  35.499  16.279   9.873 -0.1150 -0.2532  0.2521
 3304DPPE   PO461502  35.490  16.033   9.627  0.2370  0.0713  0.0829
 3304DPPE   GL161503  35.689  16.242   9.336  0.1398 -0.2236  0.0367
 3304DPPE   GL261504  35.456  16.346   9.183  0.1556 -0.0593  0.0076
 3304DPPE   C1A61505  35.955  16.529   9.473  0.0029 -0.1388 -0.0704
 3304DPPE   C2A61506  36.315  16.745   9.545 -0.0179  0.1771  0.2795
 3304DPPE   C3A61507  36.782  16.736   9.611  0.1360  0.0042 -0.0486
 3304DPPE   C4A61508  37.179  16.892   9.493 -0.2508 -0.0184  0.4218
 3304DPPE   C1B61509  35.749  16.648   9.013 -0.0547 -0.3164 -0.2439
 3304DPPE   C2B61510  36.191  16.769   9.017 -0.1406  0.2968 -0.1066
 3304DPPE   C3B61511  36.622  16.787   8.852 -0.0593  0.3964  0.3109
 3304DPPE   C4B61512  37.161  16.890   8.800 -0.0017  0.0241  0.1386
 3305DPPE   NH361513  35.418  15.402   6.919  0.0138  0.0112  0.0336
 3305DPPE   PO461514  35.533  15.161   7.261  0.1237  0.0572  0.0879
 3305DPPE   GL161515  35.366  14.916   6.840 -0.0074  0.0138 -0.1983
 3305DPPE   GL261516  35.585  14.686   6.730  0.0898  0.0786 -0.0286
 3305DPPE   C1A61517  35.149  14.936   6.430 -0.2384 -0.1298 -0.1634
 3305DPPE   C2A61518  34.769  14.836   6.303 -0.3671  0.1738  0.2294
 3305DPPE   C3A61519  34.549  14.496   6.269 -0.0266 -0.3382  0.1553
 3305DPPE   C4A61520  34.486  14.211   5.987 -0.1912  0.0051  0.0261
 3305DPPE   C1B61521  35.263  14.458   6.499 -0.1626 -0.1682  0.2652
 3305DPPE   C2B61522  34.983  14.060   6.497  0.0798 -0.0586 -0.1490
 3305DPPE   C3B61523  34.741  13.740   6.237  0.1125 -0.0724  0.0366
 3305DPPE   C4B61524  34.633  13.361   6.464  0.0200  0.2597  0.0100
 3306DPPE   NH361525  35.209  14.905  12.580 -0.0491  0.2078  0.0867
 3306DPPE   PO461526  35.096  15.019  12.168  0.1109 -0.1874 -0.0379
 3306DPPE   GL161527  34.901  14.716  12.150  0.0317  0.1455  0.4586
 3306DPPE   GL261528  34.519  14.668  12.286 -0.0737 -0.2775 -0.0614
 3306DPPE   C1A61529  34.640  14.402  11.922  0.2183 -0.1182 -0.0450
 3306DPPE   C2A61530  34.308  14.121  12.024  0.0535  0.1724  0.0304
 3306DPPE   C3A61531  34.143  13.624  12.149  0.2894  0.1942  0.1544
 3306DPPE   C4A61532  33.768  13.451  12.278 -0.5978 -0.0039 -0.0642
 3306DPPE   C1B61533  34.132  14.498  12.334  0.1639 -0.0601  0.0576
 3306DPPE   C2B61534  33.856  14.260  12.247 -0.2376 -0.2113 -0.0605
 3306DPPE   C3B61535  33.588  13.863  12.177 -0.3193  0.1884 -0.0076
 3306DPPE   C4B61536  33.080  13.752  12.143  0.2180  0.1991 -0.1215
 3307DPPE   NH361537  35.379  14.614  12.206 -0.0974  0.2820  0.0605
 3307DPPE   PO461538  35.351  14.421  12.523 -0.3640 -0.0702  0.3856
 3307DPPE   GL161539  34.944  14.485  12.567  0.0105  0.0401 -0.1713
 3307DPPE   GL261540  34.934  14.180  12.403 -0.0504 -0.2249  0.3233
 3307DPPE   C1A61541  34.551  14.317  12.705 -0.1443  0.0123 -0.0640
 3307DPPE   C2A61542  34.229  14.146  12.764  0.2730  0.0431  0.0001
 3307DPPE   C3A61543  33.823  13.862  12.693  0.1251 -0.3126  0.1497
 3307DPPE   C4A61544  33.419  13.548  12.576  0.0869 -0.0375  0.1672
 3307DPPE   C1B61545  34.575  13.839  12.479 -0.1847 -0.2316  0.3252
 3307DPPE   C2B61546  34.276  13.511  12.689  0.0379  0.1463 -0.1446
 3307DPPE   C3B61547  33.903  13.286  12.770 -0.4746 -0.2457 -0.0089
 3307DPPE   C4B61548  33.648  12.999  13.113 -0.1141 -0.1359 -0.0848
 3308DPPE   NH361549  35.195  17.642   7.490  0.3164 -0.0838  0.2397
 3308DPPE   PO461550  35.259  17.834   7.760 -0.0426  0.0435  0.0294
 3308DPPE   GL161551  35.577  18.090   7.928  0.0252  0.2784  0.0004
 3308DPPE   GL261552  35.666  18.063   8.232 -0.0226  0.0944  0.0818
 3308DPPE   C1A61553  35.953  18.401   7.965 -0.0047 -0.0755  0.0709
 3308DPPE   C2A61554  36.145  18.697   8.219 -0.0346  0.0697  0.1367
 3308DPPE   C3A61555  36.287  19.042   8.450  0.2274 -0.1544  0.1706
 3308DPPE   C4A61556  36.672  19.092   8.648  0.1918 -0.2025 -0.0234
 3308DPPE   C1B61557  35.998  18.285   8.486 -0.1009  0.1306 -0.3006
 3308DPPE   C2B61558  36.431  18.481   8.695 -0.1185 -0.3321 -0.1797
 3308DPPE   C3B61559  36.591  18.737   8.954  0.3127  0.3612  0.0070
 3308DPPE   C4B61560  36.657  19.134   9.204 -0.2194  0.1791  0.1452
 3309DPPE   NH361561  34.156  21.469   5.740 -0.0837 -0.1169 -0.0972
 3309DPPE   PO461562  34.305  21.624   5.416  0.0052  0.2071  0.0134
 3309DPPE   GL161563  34.112  21.936   5.237 -0.0123  0.3934  0.2715
 3309DPPE   GL261564  34.106  22.085   4.908  0.1704 -0.0777 -0.3364
 3309DPPE   C1A61565  33.888  22.235   5.455  0.1539 -0.0074  0.0176
 3309DPPE   C2A61566  33.521  22.528   5.402 -0.4465  0.0658 -0.0132
 3309DPPE   C3A61567  33.333  22.917   5.234 -0.0525 -0.1756 -0.2910
 3309DPPE   C4A61568  33.300  23.348   5.258  0.0450 -0.1997  0.0021
 3309DPPE   C1B61569  33.954  22.090   4.542 -0.4922  0.1578  0.2167
 3309DPPE   C2B61570  33.858  22.420   4.244 -0.1793 -0.0547  0.0738
 3309DPPE   C3B61571  33.504  22.517   3.940  0.4872 -0.1233  0.0183
 3309DPPE   C4B61572  33.253  22.696   3.694 -0.0919 -0.0399  0.4006
 3310DPPE   NH361573  34.241  20.920  11.231 -0.1169 -0.0326  0.0409
 3310DPPE   PO461574  34.161  21.109  10.766 -0.1559 -0.1317  0.0860
 3310DPPE   GL161575  34.559  21.166  10.895 -0.0806  0.2087  0.1044
 3310DPPE   GL261576  34.632  21.504  11.039  0.2500 -0.1411 -0.0635
 3310DPPE   C1A61577  34.995  21.033  11.139  0.0568 -0.1875  0.0858
 3310DPPE   C2A61578  35.385  20.980  11.166  0.0347  0.4295  0.2334
 3310DPPE   C3A61579  35.818  20.941  11.212 -0.0324  0.0773 -0.0128
 3310DPPE   C4A61580  36.200  20.904  10.842  0.4058  0.3231 -0.2188
 3310DPPE   C1B61581  34.999  21.521  10.906  0.2614 -0.2061  0.2618
 3310DPPE   C2B61582  35.315  21.800  10.754  0.3480  0.0883  0.0736
 3310DPPE   C3B61583  35.560  21.940  10.383 -0.2492 -0.2541  0.0471
 3310DPPE   C4B61584  35.763  22.253  10.251  0.0025 -0.0653  0.0288
 3311DPPE   NH361585  36.546  18.149  17.273  0.1106  0.0661 -0.0879
 3311DPPE   PO461586  36.344  18.526  17.327  0.1339 -0.0998  0.0411
 3311DPPE   GL161587  36.612  18.662  17.716  0.2964  0.0732  0.0027
 3311DPPE   GL261588  36.838  18.555  17.988 -0.0933  0.2382  0.0027
 3311DPPE   C1A61589  36.426  18.940  18.057 -0.0332 -0.0837  0.1370
 3311DPPE   C2A61590  36.576  19.292  18.258  0.4727  0.1954  0.3720
 3311DPPE   C3A61591  36.941  19.421  18.142  0.2263  0.3380 -0.0791
 3311DPPE   C4A61592  37.420  19.351  18.088 -0.1241 -0.2559  0.1628
 3311DPPE   C1B61593  37.074  18.929  18.182  0.1126  0.2270  0.0520
 3311DPPE   C2B61594  37.264  19.229  18.508  0.4105 -0.1990  0.1410
 3311DPPE   C3B61595  37.558  19.440  18.621 -0.2553 -0.1756 -0.1167
 3311DPPE   C4B61596  37.858  19.563  18.273 -0.0954 -0.0482 -0.2914
 3312DPPE   NH361597  35.754  20.381   4.259  0.0984  0.2779  0.0845
 3312DPPE   PO461598  35.352  20.594   4.256 -0.2260  0.3318  0.1798
 3312DPPE   GL161599  35.656  20.808   3.916 -0.1805 -0.0775  0.0016
 3312DPPE   GL261600  35.923  20.546   3.804 -0.1324 -0.2059  0.1195
 3312DPPE   C1A61601  35.924  21.040   3.690  0.2995 -0.1780 -0.1539
 3312DPPE   C2A61602  36.068  21.341   3.594  0.0592  0.0736 -0.1029
 3312DPPE   C3A61603  36.358  21.605   3.448  0.2274 -0.0328 -0.2062
 3312DPPE   C4A61604  36.569  21.875   3.139 -0.1823 -0.1859 -0.1811
 3312DPPE   C1B61605  35.894  20.745   3.316 -0.2792  0.1760  0.1332
 3312DPPE   C2B61606  35.822  21.066   3.111  0.0859 -0.0013 -0.0410
 3312DPPE   C3B61607  35.908  21.158   2.691  0.2014  0.0972 -0.0795
 3312DPPE   C4B61608  35.937  21.554   2.353  0.0006 -0.0180 -0.5604
 3313DPPE   NH361609   1.361  13.364  14.597 -0.0668  0.0408  0.1355
 3313DPPE   PO461610   1.501  13.201  14.116  0.1599 -0.2536 -0.3588
 3313DPPE   GL161611   1.890  13.373  14.159 -0.2691 -0.0395  0.2309
 3313DPPE   GL261612   1.825  13.649  14.260 -0.0553 -0.2131 -0.1379
 3313DPPE   C1A61613   2.249  13.566  14.058 -0.1201 -0.1120 -0.2325
 3313DPPE   C2A61614   2.422  13.701  13.701  0.1839  0.3283  0.0719
 3313DPPE   C3A61615   2.453  13.903  13.350 -0.0221 -0.2562  0.1271
 3313DPPE   C4A61616   2.714  14.026  12.935 -0.0859  0.2701  0.0483
 3313DPPE   C1B61617   2.093  13.764  14.502  0.3782 -0.0234  0.1464
 3313DPPE   C2B61618   2.322  13.782  14.845  0.2646  0.1594  0.0745
 3313DPPE   C3B61619   2.842  13.732  15.023  0.1505 -0.0748  0.2090
 3313DPPE   C4B61620   3.232  13.827  14.953  0.2198  0.0919  0.1867
 3314DPPE   NH361621  37.491  13.490   6.465 -0.0479  0.0187 -0.1875
 3314DPPE   PO461622  37.632  13.150   6.621 -0.0826 -0.0202  0.1285
 3314DPPE   GL161623  37.454  12.862   6.300 -0.0023  0.1958 -0.1880
 3314DPPE   GL261624  37.398  12.915   5.938 -0.0877  0.2091 -0.0695
 3314DPPE   C1A61625  37.033  12.680   6.380  0.0092 -0.3136  0.2822
 3314DPPE   C2A61626  36.748  12.283   6.421  0.1192  0.1599  0.0892
 3314DPPE   C3A61627  36.545  11.851   6.325  0.4319 -0.2712 -0.2129
 3314DPPE   C4A61628  36.588  11.512   6.101 -0.0631  0.1109  0.1296
 3314DPPE   C1B61629  37.025  12.663   5.869  0.0760 -0.1828  0.1140
 3314DPPE   C2B61630  36.727  12.473   5.702  0.1841 -0.0615 -0.4185
 3314DPPE   C3B61631  36.515  12.395   5.410  0.2982  0.3620 -0.2044
 3314DPPE   C4B61632  36.556  12.418   4.992  0.2014 -0.0978  0.1577
 3315DPPE   NH361633  33.616  18.680  12.972  0.1235  0.2389 -0.2058
 3315DPPE   PO461634  33.345  18.660  13.326  0.1614 -0.0334 -0.1595
 3315DPPE   GL161635  32.855  18.608  13.313  0.0097 -0.0887 -0.1877
 3315DPPE   GL261636  32.801  18.401  13.201 -0.2481  0.1945 -0.2428
 3315DPPE   C1A61637  32.522  18.553  13.606 -0.1494  0.1415 -0.1361
 3315DPPE   C2A61638  32.093  18.541  13.734 -0.0245  0.0830 -0.1286
 3315DPPE   C3A61639  31.872  18.564  13.953 -0.0551 -0.0751  0.1728
 3315DPPE   C4A61640  31.443  18.719  13.987  0.2907  0.1171  0.0694
 3315DPPE   C1B61641  32.324  18.300  13.218  0.4072  0.2461  0.0991
 3315DPPE   C2B61642  31.976  18.174  13.445  0.2018  0.1347 -0.0527
 3315DPPE   C3B61643  31.834  17.738  13.620  0.0758 -0.1498 -0.3286
 3315DPPE   C4B61644  31.418  17.579  13.625  0.3113  0.2632 -0.4105
 3316DPPE   NH361645  34.470  20.723  15.735  0.0600 -0.0236 -0.0949
 3316DPPE   PO461646  34.308  20.385  15.958  0.0016 -0.0691  0.2508
 3316DPPE   GL161647  34.112  20.207  16.244  0.0534 -0.5097  0.1170
 3316DPPE   GL261648  33.943  19.965  16.144 -0.0664  0.0438  0.0828
 3316DPPE   C1A61649  33.751  20.045  16.589  0.2296  0.2190  0.1591
 3316DPPE   C2A61650  33.284  20.064  16.705 -0.0711  0.0693  0.5491
 3316DPPE   C3A61651  32.833  19.995  16.537 -0.1437 -0.1468  0.0688
 3316DPPE   C4A61652  32.436  20.008  16.610  0.2586 -0.1734  0.3668
 3316DPPE   C1B61653  33.423  20.124  16.148  0.1941  0.0029  0.2166
 3316DPPE   C2B61654  33.042  20.059  15.847  0.1602 -0.3007 -0.0500
 3316DPPE   C3B61655  32.649  20.119  15.728 -0.0600 -0.1359 -0.0467
 3316DPPE   C4B61656  32.374  20.558  15.805 -0.1133  0.0221  0.3247
 3317DPPE   NH361657  34.087  22.528   9.686  0.5640 -0.3032  0.0644
 3317DPPE   PO461658  34.264  22.409  10.048 -0.1980  0.1037 -0.0320
 3317DPPE   GL161659  34.684  22.277  10.219 -0.1752  0.0136  0.2218
 3317DPPE   GL261660  34.587  21.972  10.286  0.1855 -0.1087  0.1648
 3317DPPE   C1A61661  35.034  21.903  10.188  0.4841  0.0154 -0.0600
 3317DPPE   C2A61662  35.158  21.503  10.402 -0.1731 -0.0773 -0.3023
 3317DPPE   C3A61663  35.471  21.339  10.833  0.0063  0.1180  0.1028
 3317DPPE   C4A61664  35.830  21.430  11.095 -0.1071  0.1232  0.0794
 3317DPPE   C1B61665  34.874  21.972  10.650  0.0564  0.3058 -0.0538
 3317DPPE   C2B61666  35.257  22.282  10.524 -0.0995  0.0161  0.0850
 3317DPPE   C3B61667  35.453  22.673  10.426 -0.6314  0.1408 -0.2730
 3317DPPE   C4B61668  35.864  22.821  10.665  0.0326  0.2129  0.0144
 3318DPPE   NH361669   3.011  11.353  10.198 -0.2018 -0.0576  0.0220
 3318DPPE   PO461670   2.676  11.389   9.952 -0.0589 -0.0068  0.0957
 3318DPPE   GL161671   2.718  11.769   9.775  0.2572 -0.1236  0.2758
 3318DPPE   GL261672   2.686  11.998   9.940  0.2993  0.0266 -0.0018
 3318DPPE   C1A61673   3.160  11.975   9.517 -0.0683 -0.0224 -0.2475
 3318DPPE   C2A61674   3.538  12.166   9.323 -0.0091 -0.1076 -0.0611
 3318DPPE   C3A61675   3.875  12.296   9.134  0.0975 -0.0809  0.2468
 3318DPPE   C4A61676   3.995  12.773   9.018  0.0589 -0.0090  0.5266
 3318DPPE   C1B61677   3.132  11.980  10.020 -0.0045  0.3348 -0.0116
 3318DPPE   C2B61678   3.550  12.027  10.227  0.1843 -0.1000 -0.4688
 3318DPPE   C3B61679   4.033  11.960  10.184 -0.0949 -0.1936  0.2995
 3318DPPE   C4B61680   4.169  11.778   9.823  0.2126 -0.3461 -0.0824
 3319DPPE   NH361681   1.401  12.310   3.819  0.0506  0.0277  0.1748
 3319DPPE   PO461682   1.234  12.511   3.489  0.1172 -0.1841  0.1303
 3319DPPE   GL161683   1.297  12.136   3.335  0.2018 -0.3131  0.0685
 3319DPPE   GL261684   1.656  12.150   3.267  0.1441  0.0885  0.1967
 3319DPPE   C1A61685   1.247  11.824   2.924  0.0670 -0.0069 -0.1443
 3319DPPE   C2A61686   1.073  11.384   2.686 -0.0017  0.1650 -0.1364
 3319DPPE   C3A61687   0.710  11.168   2.594 -0.0683  0.0808 -0.3324
 3319DPPE   C4A61688   0.583  10.689   2.446 -0.0742  0.0597  0.0102
 3319DPPE   C1B61689   1.726  11.803   2.922 -0.2011 -0.1804  0.2016
 3319DPPE   C2B61690   1.635  11.500   2.568 -0.0656  0.0254  0.2027
 3319DPPE   C3B61691   1.404  11.205   2.338  0.0934 -0.3642 -0.0023
 3319DPPE   C4B61692   1.195  10.955   2.418  0.1444  0.1422  0.0775
 3320DPPE   NH361693  33.494  20.863   7.123  0.3663  0.2955 -0.0079
 3320DPPE   PO461694  33.482  21.186   7.473 -0.1335  0.0355 -0.0154
 3320DPPE   GL161695  33.108  21.301   7.259  0.1164 -0.6348 -0.4275
 3320DPPE   GL261696  33.012  21.013   7.009  0.3161  0.1943 -0.0061
 3320DPPE   C1A61697  32.600  21.320   7.215  0.0314 -0.2674  0.0018
 3320DPPE   C2A61698  32.189  21.197   7.436  0.2097 -0.0319 -0.4991
 3320DPPE   C3A61699  31.922  21.034   7.657  0.1331  0.0849  0.1020
 3320DPPE   C4A61700  31.558  20.923   7.970  0.2477  0.2371  0.0446
 3320DPPE   C1B61701  32.689  20.761   6.948  0.1998  0.0239 -0.0655
 3320DPPE   C2B61702  32.291  20.907   7.056  0.2884  0.0889 -0.0933
 3320DPPE   C3B61703  31.827  20.972   7.141 -0.2644 -0.0789 -0.1086
 3320DPPE   C4B61704  31.543  20.870   7.468 -0.1162  0.3308  0.2274
 3321DPPE   NH361705  33.767  21.232   6.099  0.3322 -0.4793  0.0638
 3321DPPE   PO461706  33.690  21.458   6.471 -0.1575 -0.0396 -0.0731
 3321DPPE   GL161707  33.301  21.259   6.342  0.0360 -0.1711  0.1472
 3321DPPE   GL261708  33.261  21.288   6.109  0.1552 -0.2922 -0.0586
 3321DPPE   C1A61709  32.823  21.256   6.449  0.1492  0.1948  0.0587
 3321DPPE   C2A61710  32.533  21.228   6.730  0.1136 -0.1073 -0.0323
 3321DPPE   C3A61711  32.074  21.420   6.935 -0.0270 -0.0753  0.2414
 3321DPPE   C4A61712  31.642  21.613   6.831 -0.0801 -0.2953 -0.0220
 3321DPPE   C1B61713  33.037  21.368   5.744  0.4232  0.1636  0.0734
 3321DPPE   C2B61714  32.556  21.471   5.685  0.1146  0.1434 -0.2615
 3321DPPE   C3B61715  32.213  21.144   5.537  0.1091 -0.1770 -0.0318
 3321DPPE   C4B61716  31.958  20.742   5.690  0.2549 -0.1609  0.5262
 3322DPPE   NH361717  36.605  14.309  11.668  0.1618  0.0993  0.1545
 3322DPPE   PO461718  36.385  14.593  11.887  0.0173 -0.0646  0.0272
 3322DPPE   GL161719  36.567  15.055  11.680  0.0128  0.3487 -0.1129
 3322DPPE   GL261720  36.707  15.072  11.313  0.0065 -0.0655  0.0731
 3322DPPE   C1A61721  36.684  15.425  11.631 -0.0632  0.3922  0.3020
 3322DPPE   C2A61722  36.754  15.861  11.542 -0.1136  0.0471  0.1194
 3322DPPE   C3A61723  37.188  16.050  11.529 -0.1974  0.7371  0.0033
 3322DPPE   C4A61724  37.524  16.125  11.856  0.2841 -0.0543  0.2374
 3322DPPE   C1B61725  37.111  15.154  11.482  0.1364 -0.0071  0.3936
 3322DPPE   C2B61726  37.623  15.212  11.640  0.1859  0.0691 -0.1728
 3322DPPE   C3B61727  38.090  15.243  11.602 -0.1734  0.1652  0.2088
 3322DPPE   C4B61728  38.312  15.536  11.533  0.1189 -0.1721  0.0155
 3323DPPE   NH361729   0.398  10.870  10.523 -0.0657  0.0730 -0.1694
 3323DPPE   PO461730   0.177  11.086  10.798 -0.0629 -0.0841 -0.2813
 3323DPPE   GL161731  -0.147  10.860  10.609 -0.2247  0.0239  0.2625
 3323DPPE   GL261732  -0.578  10.887  10.672  0.0562  0.0129 -0.0724
 3323DPPE   C1A61733  -0.266  10.416  10.633  0.0069  0.0625 -0.1163
 3323DPPE   C2A61734  -0.575   9.989  10.669 -0.0716 -0.0041 -0.2012
 3323DPPE   C3A61735  -0.738   9.635  10.818  0.0832 -0.1796  0.1171
 3323DPPE   C4A61736  -0.905   9.245  10.857  0.0868  0.2453  0.1291
 3323DPPE   C1B61737  -0.808  10.515  10.844  0.1710 -0.1489  0.0660
 3323DPPE   C2B61738  -1.319  10.435  10.853 -0.1244  0.0427  0.1121
 3323DPPE   C3B61739  -1.635  10.207  10.584  0.2835  0.0629 -0.2688
 3323DPPE   C4B61740  -1.998  10.278  10.419 -0.0970  0.2251  0.1871
 3324DPPE   NH361741  37.973  12.529   6.474  0.2312 -0.2914  0.1288
 3324DPPE   PO461742  38.187  12.419   6.782 -0.0376 -0.0615  0.0502
 3324DPPE   GL161743  37.975  11.999   6.641  0.1149 -0.3431 -0.1899
 3324DPPE   GL261744  38.157  11.893   6.525  0.1177  0.1913  0.0436
 3324DPPE   C1A61745  37.740  11.566   6.563  0.0770 -0.0162 -0.1775
 3324DPPE   C2A61746  37.457  11.200   6.428  0.0415  0.1041  0.0976
 3324DPPE   C3A61747  37.131  10.893   6.361 -0.2678 -0.0246 -0.1751
 3324DPPE   C4A61748  36.838  10.780   6.627  0.3352 -0.0634  0.0020
 3324DPPE   C1B61749  38.245  11.473   6.550  0.0136  0.4356  0.1700
 3324DPPE   C2B61750  38.014  11.086   6.573 -0.2223 -0.2482  0.1709
 3324DPPE   C3B61751  37.718  10.745   6.628 -0.0094 -0.1594 -0.1578
 3324DPPE   C4B61752  37.345  10.492   6.628  0.2858 -0.0544  0.2289
 3325DPPE   NH361753   2.546  11.330   8.241  0.2432  0.2120  0.2522
 3325DPPE   PO461754   2.320  11.440   7.873  0.1508  0.1168  0.2943
 3325DPPE   GL161755   2.666  11.713   7.780 -0.3170 -0.1192  0.1170
 3325DPPE   GL261756   2.741  11.870   8.009  0.1738 -0.4228 -0.0601
 3325DPPE   C1A61757   2.923  11.984   7.490 -0.0620  0.0624 -0.1009
 3325DPPE   C2A61758   3.316  12.155   7.202  0.0458  0.1741 -0.1377
 3325DPPE   C3A61759   3.719  12.350   7.444  0.1151  0.3605 -0.0563
 3325DPPE   C4A61760   4.093  12.571   7.455 -0.0610 -0.1816  0.1814
 3325DPPE   C1B61761   3.152  11.842   7.952 -0.1152  0.0314  0.0261
 3325DPPE   C2B61762   3.410  11.732   7.541 -0.2208 -0.1435  0.0669
 3325DPPE   C3B61763   3.848  11.872   7.419  0.1804  0.0270 -0.1638
 3325DPPE   C4B61764   4.192  12.009   7.613  0.0286 -0.0480  0.4932
 3326DPPE   NH361765   1.036  14.407  16.605  0.0807  0.2670 -0.2652
 3326DPPE   PO461766   1.345  14.140  16.852  0.0465 -0.0659  0.1122
 3326DPPE   GL161767   1.703  14.384  16.782  0.0465  0.1502 -0.1154
 3326DPPE   GL261768   1.574  14.688  16.670  0.1974  0.0210  0.0115
 3326DPPE   C1A61769   2.025  14.677  16.913  0.0567  0.1139  0.0134
 3326DPPE   C2A61770   2.462  14.764  16.861 -0.2224  0.0649 -0.0637
 3326DPPE   C3A61771   2.915  14.949  16.988  0.0967  0.1700 -0.2181
 3326DPPE   C4A61772   3.316  15.104  16.864  0.1224 -0.3254  0.0376
 3326DPPE   C1B61773   1.677  15.119  16.654 -0.1141 -0.0058 -0.1392
 3326DPPE   C2B61774   1.735  15.519  16.397  0.0818  0.2824 -0.1881
 3326DPPE   C3B61775   1.925  15.766  16.115  0.1337 -0.0142 -0.0264
 3326DPPE   C4B61776   2.037  16.252  16.058  0.2323 -0.0664 -0.3286
 3327DPPE   NH361777  35.146  20.432  15.918 -0.0695  0.0505  0.0446
 3327DPPE   PO461778  34.757  20.600  16.082 -0.0180 -0.1016  0.2515
 3327DPPE   GL161779  34.664  20.885  16.173  0.3380 -0.2045  0.2879
 3327DPPE   GL261780  34.337  20.833  16.233  0.0121  0.2565  0.3970
 3327DPPE   C1A61781  34.737  21.081  16.546 -0.3244 -0.1682 -0.1842
 3327DPPE   C2A61782  34.623  21.422  16.703 -0.0741 -0.2098  0.1870
 3327DPPE   C3A61783  34.495  21.861  16.852  0.2391 -0.1769  0.0465
 3327DPPE   C4A61784  34.596  22.147  17.174 -0.0870  0.0045  0.1303
 3327DPPE   C1B61785  34.226  20.839  16.627 -0.1735 -0.1467 -0.0489
 3327DPPE   C2B61786  34.029  21.129  16.950  0.0391 -0.0151 -0.2038
 3327DPPE   C3B61787  33.748  21.340  17.292  0.2337 -0.1477 -0.0043
 3327DPPE   C4B61788  33.807  21.197  17.772  0.2428  0.1255  0.2202
 3328DPPE   NH361789  37.842  16.046   4.166 -0.0517 -0.1260 -0.0834
 3328DPPE   PO461790  37.876  15.824   4.604 -0.0578  0.0272  0.0207
 3328DPPE   GL161791  38.128  16.208   4.617 -0.1301 -0.1810 -0.3406
 3328DPPE   GL261792  38.453  16.201   4.741 -0.2373  0.0271  0.1588
 3328DPPE   C1A61793  38.226  16.652   4.622  0.1345 -0.1596 -0.3219
 3328DPPE   C2A61794  38.524  16.752   4.940 -0.2332 -0.1487  0.1848
 3328DPPE   C3A61795  38.967  16.781   4.994  0.0529  0.0486 -0.2413
 3328DPPE   C4A61796  39.412  16.767   4.995  0.0337 -0.0606  0.3555
 3328DPPE   C1B61797  38.887  16.195   4.890 -0.3724  0.0933 -0.0573
 3328DPPE   C2B61798  39.351  16.291   4.912  0.1943 -0.0708  0.0533
 3328DPPE   C3B61799  39.747  16.435   4.860 -0.1635  0.1839 -0.1813
 3328DPPE   C4B61800  39.895  16.797   5.141  0.2857  0.0225  0.1278
 3329DPPE   NH361801  37.485  11.886  10.001  0.1741  0.2856 -0.0785
 3329DPPE   PO461802  37.561  11.899   9.606  0.0000  0.0606 -0.0804
 3329DPPE   GL161803  37.067  11.979   9.459  0.0228  0.1130  0.0456
 3329DPPE   GL261804  36.978  12.084   9.213 -0.1241  0.0377  0.1816
 3329DPPE   C1A61805  36.753  11.667   9.563 -0.2293 -0.2816  0.0633
 3329DPPE   C2A61806  36.513  11.368   9.314  0.1224  0.0255 -0.4031
 3329DPPE   C3A61807  36.077  11.209   9.194 -0.1368  0.1218 -0.3391
 3329DPPE   C4A61808  35.881  10.927   9.221 -0.0002  0.0237  0.0893
 3329DPPE   C1B61809  36.581  11.857   9.151  0.3780  0.0909 -0.0028
 3329DPPE   C2B61810  36.360  11.626   8.908  0.1130 -0.2085 -0.0539
 3329DPPE   C3B61811  36.096  11.335   8.679  0.5368  0.0204 -0.1121
 3329DPPE   C4B61812  35.747  11.109   8.500 -0.3164 -0.2842  0.2450
 3330DPPE   NH361813   1.005  11.673  14.900 -0.1554  0.2087 -0.0777
 3330DPPE   PO461814   1.343  11.494  14.650  0.2499 -0.0332  0.2352
 3330DPPE   GL161815   1.325  11.157  14.800  0.1168  0.0605  0.3676
 3330DPPE   GL261816   1.405  10.913  14.615  0.1658  0.0778 -0.2448
 3330DPPE   C1A61817   1.325  10.968  15.125  0.0321 -0.0448  0.3640
 3330DPPE   C2A61818   1.163  10.495  15.336 -0.2050 -0.1058  0.0338
 3330DPPE   C3A61819   1.029  10.405  15.670 -0.1603 -0.2634 -0.2146
 3330DPPE   C4A61820   0.675  10.246  15.749 -0.0105  0.0249  0.0107
 3330DPPE   C1B61821   1.431  10.524  14.836 -0.2152  0.1475 -0.3046
 3330DPPE   C2B61822   1.447  10.050  14.997 -0.0008  0.1911  0.1045
 3330DPPE   C3B61823   1.634   9.789  15.240 -0.0152 -0.1221  0.1208
 3330DPPE   C4B61824   1.717   9.329  15.224 -0.3282  0.0992  0.4033
 3331DPPE   NH361825  34.873  23.304   7.382 -0.1441 -0.2643  0.0660
 3331DPPE   PO461826  34.720  23.632   7.715  0.1364 -0.1054 -0.1028
 3331DPPE   GL161827  34.934  23.999   7.759 -0.1602 -0.2153  0.0215
 3331DPPE   GL261828  35.167  23.958   7.622 -0.1416 -0.1339 -0.1719
 3331DPPE   C1A61829  35.031  24.465   7.829  0.2744 -0.0858  0.1590
 3331DPPE   C2A61830  35.040  24.888   7.866 -0.1212  0.0010  0.1252
 3331DPPE   C3A61831  34.915  25.288   8.140 -0.1652  0.0529  0.2282
 3331DPPE   C4A61832  34.743  25.512   8.333 -0.3084  0.1060 -0.1840
 3331DPPE   C1B61833  35.471  24.207   7.937  0.1595  0.2893  0.3856
 3331DPPE   C2B61834  35.497  24.592   8.128 -0.2200  0.0373  0.1551
 3331DPPE   C3B61835  35.307  24.995   8.311  0.0478  0.1754 -0.0000
 3331DPPE   C4B61836  35.468  25.345   8.557  0.0218 -0.0477 -0.0432
 3332DPPE   NH361837  37.324  16.427  16.891 -0.3690  0.1200  0.3776
 3332DPPE   PO461838  37.034  16.064  16.663 -0.2684  0.3033  0.1028
 3332DPPE   GL161839  37.483  16.243  16.405 -0.1549  0.1417  0.3373
 3332DPPE   GL261840  37.803  16.248  16.603 -0.2664 -0.3241 -0.0003
 3332DPPE   C1A61841  37.779  16.363  16.086  0.1040  0.2109  0.2167
 3332DPPE   C2A61842  37.719  16.680  15.860 -0.4455  0.1899  0.1556
 3332DPPE   C3A61843  37.913  17.118  15.641  0.1344 -0.0487 -0.0690
 3332DPPE   C4A61844  38.237  17.239  15.912 -0.3170 -0.2565  0.2043
 3332DPPE   C1B61845  38.200  16.366  16.750  0.1383 -0.0571 -0.5017
 3332DPPE   C2B61846  38.409  16.598  17.117 -0.1363 -0.1877  0.1054
 3332DPPE   C3B61847  38.811  16.677  17.475 -0.0029  0.0203 -0.3093
 3332DPPE   C4B61848  39.038  16.890  17.763  0.2672  0.3074  0.0691
 3333DPPE   NH361849  35.016  19.047  14.728 -0.0677  0.1102  0.0353
 3333DPPE   PO461850  34.862  18.661  14.610  0.1627  0.1387 -0.1716
 3333DPPE   GL161851  35.245  18.825  14.366  0.1408  0.0071 -0.1867
 3333DPPE   GL261852  35.295  18.720  14.067  0.3267  0.4455 -0.0757
 3333DPPE   C1A61853  35.435  19.164  14.015 -0.0600 -0.1884 -0.1166
 3333DPPE   C2A61854  35.798  19.365  13.914  0.2424 -0.0763  0.0465
 3333DPPE   C3A61855  36.235  19.484  13.864 -0.2700 -0.0725 -0.3487
 3333DPPE   C4A61856  36.558  19.752  13.833  0.0462  0.0501  0.3248
 3333DPPE   C1B61857  35.773  18.806  13.891  0.0044  0.4290 -0.0507
 3333DPPE   C2B61858  36.259  18.962  13.792 -0.1668 -0.0453 -0.5159
 3333DPPE   C3B61859  36.667  19.173  13.772 -0.1074 -0.0041  0.1695
 3333DPPE   C4B61860  36.964  19.462  13.574 -0.2677  0.2843  0.1062
 3334DPPE   NH361861  34.489  17.369  11.573  0.4054 -0.0173 -0.2077
 3334DPPE   PO461862  34.334  17.475  11.196 -0.0422 -0.1392  0.0031
 3334DPPE   GL161863  34.637  17.630  10.928  0.1203  0.0616  0.1262
 3334DPPE   GL261864  34.920  17.396  10.834 -0.1325 -0.1380  0.1277
 3334DPPE   C1A61865  34.974  17.972  10.874  0.3047  0.0562 -0.0044
 3334DPPE   C2A61866  35.196  18.243  10.969  0.2878 -0.0657 -0.1402
 3334DPPE   C3A61867  35.515  18.462  10.688 -0.0586 -0.3110  0.0078
 3334DPPE   C4A61868  35.322  18.693  10.404 -0.0246 -0.0564  0.0333
 3334DPPE   C1B61869  35.341  17.229  10.808  0.0533  0.0579 -0.2164
 3334DPPE   C2B61870  35.735  17.290  10.724 -0.0121  0.0060 -0.0459
 3334DPPE   C3B61871  36.255  17.303  10.813  0.2835 -0.2816 -0.3059
 3334DPPE   C4B61872  36.788  17.477  10.771  0.0046 -0.0542  0.1604
 3335DPPE   NH361873  36.328  13.032  12.347  0.1410  0.0806  0.0808
 3335DPPE   PO461874  36.520  12.839  11.945  0.1195  0.2756 -0.0122
 3335DPPE   GL161875  36.079  12.771  12.037 -0.3684  0.3485 -0.0669
 3335DPPE   GL261876  35.816  12.743  11.827 -0.1644 -0.1013 -0.2898
 3335DPPE   C1A61877  35.729  12.536  12.261  0.0135 -0.3297  0.0195
 3335DPPE   C2A61878  35.547  12.185  12.313  0.2692 -0.1446 -0.1874
 3335DPPE   C3A61879  35.251  11.906  12.377  0.3113  0.0666  0.2431
 3335DPPE   C4A61880  34.943  11.645  12.477 -0.2516 -0.2318  0.2796
 3335DPPE   C1B61881  35.400  12.550  11.850  0.2267 -0.0037 -0.0991
 3335DPPE   C2B61882  35.052  12.292  11.688 -0.1497 -0.3156  0.3603
 3335DPPE   C3B61883  34.847  11.995  11.791 -0.1670  0.2581 -0.0032
 3335DPPE   C4B61884  34.704  11.588  11.910 -0.0997 -0.0177 -0.2410
 3336DPPE   NH361885  36.792  13.790  12.154  0.1969  0.1463  0.1391
 3336DPPE   PO461886  37.093  14.041  12.601 -0.3003  0.2038  0.1527
 3336DPPE   GL161887  37.256  14.427  12.452 -0.1555  0.1554  0.1165
 3336DPPE   GL261888  37.089  14.715  12.510 -0.1855 -0.4180 -0.1200
 3336DPPE   C1A61889  37.316  14.624  12.120  0.1075 -0.4326 -0.1196
 3336DPPE   C2A61890  37.280  14.591  11.683  0.1303 -0.3234  0.0984
 3336DPPE   C3A61891  37.537  14.789  11.423 -0.2163 -0.1025  0.1685
 3336DPPE   C4A61892  37.883  14.833  11.389  0.1265  0.1756 -0.4263
 3336DPPE   C1B61893  37.034  15.122  12.478  0.0055 -0.0340  0.0716
 3336DPPE   C2B61894  37.203  15.598  12.397  0.5194 -0.1433 -0.1654
 3336DPPE   C3B61895  37.476  15.831  12.380 -0.3775 -0.2314  0.1137
 3336DPPE   C4B61896  37.864  16.002  12.151 -0.0258 -0.1606  0.1404
 3337DPPE   NH361897   2.296  12.168   3.967 -0.3214 -0.1337 -0.0607
 3337DPPE   PO461898   2.203  12.372   4.360 -0.2433 -0.2761  0.0786
 3337DPPE   GL161899   2.507  12.591   4.126  0.0112  0.2500  0.2274
 3337DPPE   GL261900   2.644  12.712   4.433 -0.0759 -0.2165  0.1357
 3337DPPE   C1A61901   2.945  12.523   3.916  0.0017  0.3450  0.0094
 3337DPPE   C2A61902   3.214  12.786   3.763  0.3107 -0.0742 -0.2317
 3337DPPE   C3A61903   3.384  12.872   3.431 -0.0288 -0.2396 -0.1648
 3337DPPE   C4A61904   3.296  12.850   2.938 -0.0341 -0.0440 -0.1282
 3337DPPE   C1B61905   3.006  13.062   4.326 -0.0226  0.0224 -0.0773
 3337DPPE   C2B61906   3.375  13.175   4.030 -0.1610  0.3660  0.0260
 3337DPPE   C3B61907   3.771  13.136   3.693  0.3553 -0.0115  0.1801
 3337DPPE   C4B61908   3.852  12.806   3.421 -0.0198  0.1372  0.1469
 3338DPPE   NH361909  33.234  22.397   7.964  0.0110  0.3842 -0.1158
 3338DPPE   PO461910  33.387  22.458   7.531 -0.2750  0.3497  0.1743
 3338DPPE   GL161911  33.024  22.490   7.214 -0.1982 -0.0995 -0.0110
 3338DPPE   GL261912  32.987  22.782   7.039  0.2947  0.4519 -0.0070
 3338DPPE   C1A61913  32.641  22.416   7.193 -0.3840  0.0219 -0.1609
 3338DPPE   C2A61914  32.167  22.172   7.284 -0.0735  0.2002  0.0725
 3338DPPE   C3A61915  31.826  22.273   7.480  0.0495 -0.0196 -0.4488
 3338DPPE   C4A61916  31.468  21.911   7.595  0.2817  0.0341  0.0758
 3338DPPE   C1B61917  32.577  22.749   6.840  0.1278  0.4469  0.0810
 3338DPPE   C2B61918  32.289  22.856   6.609  0.1064  0.1719  0.1060
 3338DPPE   C3B61919  31.944  22.671   6.458  0.1855  0.0951  0.1947
 3338DPPE   C4B61920  31.562  22.499   6.451 -0.1860 -0.0703 -0.2971
 3339DPPE   NH361921  35.465  14.490   8.324 -0.1875  0.4602  0.3485
 3339DPPE   PO461922  35.907  14.283   8.409 -0.0563 -0.2676  0.1867
 3339DPPE   GL161923  35.645  14.026   8.196  0.3330 -0.2223 -0.1188
 3339DPPE   GL261924  35.595  13.863   8.570 -0.1750 -0.4251  0.0928
 3339DPPE   C1A61925  35.434  13.625   8.214  0.0777  0.0780 -0.2410
 3339DPPE   C2A61926  35.088  13.396   8.351  0.2192  0.0193  0.1110
 3339DPPE   C3A61927  34.748  13.082   8.084  0.1821  0.3152  0.3368
 3339DPPE   C4A61928  34.284  13.043   8.089  0.2557 -0.2507  0.2060
 3339DPPE   C1B61929  35.338  13.611   8.759 -0.1593  0.1356  0.2988
 3339DPPE   C2B61930  35.075  13.181   8.798 -0.0244  0.0252  0.1709
 3339DPPE   C3B61931  34.774  12.997   8.927 -0.1909 -0.1171 -0.3127
 3339DPPE   C4B61932  34.509  12.670   9.189  0.1496 -0.0367 -0.0437
 3340DPPE   NH361933  33.985  19.751   7.439 -0.0046  0.2306 -0.0382
 3340DPPE   PO461934  33.635  19.733   7.759 -0.2260  0.2590 -0.0328
 3340DPPE   GL161935  33.214  19.547   7.645  0.1019  0.2701 -0.0888
 3340DPPE   GL261936  33.231  19.274   7.366  0.2078  0.0071  0.0260
 3340DPPE   C1A61937  32.780  19.439   7.711 -0.0897  0.1632 -0.1902
 3340DPPE   C2A61938  32.469  19.246   7.687 -0.1322  0.2369  0.1473
 3340DPPE   C3A61939  32.175  19.087   7.472 -0.0128 -0.0032 -0.2341
 3340DPPE   C4A61940  31.763  19.102   7.342 -0.1694 -0.2125  0.2696
 3340DPPE   C1B61941  32.934  19.162   7.282 -0.0849  0.0113 -0.1331
 3340DPPE   C2B61942  32.617  19.010   7.145  0.0351  0.0583  0.0808
 3340DPPE   C3B61943  32.142  19.216   6.959 -0.0005  0.4508 -0.3964
 3340DPPE   C4B61944  31.875  18.937   6.687  0.0340 -0.0806  0.3436
 3341DPPE   NH361945  35.522  20.847   5.895 -0.0224 -0.0390 -0.1966
 3341DPPE   PO461946  35.773  20.446   5.883  0.1516  0.1056 -0.1345
 3341DPPE   GL161947  36.169  20.379   6.007 -0.0473 -0.3334  0.0265
 3341DPPE   GL261948  36.419  20.115   5.938  0.2464  0.3037 -0.1845
 3341DPPE   C1A61949  36.583  20.529   6.202 -0.4195 -0.0309 -0.0837
 3341DPPE   C2A61950  36.850  20.595   6.406  0.2865 -0.3428  0.0713
 3341DPPE   C3A61951  36.859  20.727   6.844 -0.5421 -0.2250 -0.4157
 3341DPPE   C4A61952  36.641  21.068   6.963  0.0877 -0.1542  0.0082
 3341DPPE   C1B61953  36.868  20.025   5.837  0.4665 -0.3160  0.0575
 3341DPPE   C2B61954  37.258  20.284   5.735  0.0565 -0.3212 -0.0536
 3341DPPE   C3B61955  37.581  20.495   5.764  0.0782 -0.1045  0.0887
 3341DPPE   C4B61956  37.825  20.565   6.141  0.3610  0.2805 -0.0464
 3342DPPE   NH361957  36.972  13.704   7.256  0.0579 -0.0017 -0.5064
 3342DPPE   PO461958  36.817  13.632   7.607  0.0201 -0.2500  0.0108
 3342DPPE   GL161959  36.511  13.312   7.501  0.0912  0.1855 -0.2336
 3342DPPE   GL261960  36.425  13.035   7.509  0.1110 -0.0636 -0.0166
 3342DPPE   C1A61961  36.126  13.200   7.156  0.2652 -0.0799 -0.0399
 3342DPPE   C2A61962  36.066  12.853   6.856  0.0634 -0.2037  0.3260
 3342DPPE   C3A61963  35.843  12.520   6.822  0.0985  0.1108  0.5215
 3342DPPE   C4A61964  35.679  12.330   6.377 -0.3861 -0.0226  0.1780
 3342DPPE   C1B61965  36.157  12.707   7.380 -0.1484 -0.2487 -0.0817
 3342DPPE   C2B61966  35.809  12.500   7.302 -0.2394  0.0528  0.0704
 3342DPPE   C3B61967  35.553  12.268   7.070  0.2904 -0.1814 -0.0739
 3342DPPE   C4B61968  35.248  11.971   6.843 -0.0953 -0.4432  0.2957
 3343DPPE   NH361969  36.723  13.007  11.410  0.0364  0.3124  0.0604
 3343DPPE   PO461970  36.350  12.983  11.273 -0.0519 -0.0673  0.0957
 3343DPPE   GL161971  36.205  12.651  11.073  0.0699 -0.1706  0.0178
 3343DPPE   GL261972  36.137  12.557  10.733 -0.1588  0.1021  0.1739
 3343DPPE   C1A61973  36.070  12.253  11.220 -0.1217  0.4919 -0.1933
 3343DPPE   C2A61974  35.749  11.998  11.251  0.1524  0.1610 -0.2340
 3343DPPE   C3A61975  35.309  12.113  11.180  0.1330  0.0402  0.0951
 3343DPPE   C4A61976  35.080  12.084  10.891 -0.0095  0.1258  0.0418
 3343DPPE   C1B61977  35.779  12.343  10.759 -0.3215  0.1386  0.1074
 3343DPPE   C2B61978  35.569  12.018  10.736 -0.3135  0.2573 -0.0940
 3343DPPE   C3B61979  35.442  11.620  10.857  0.0437 -0.2303 -0.3413
 3343DPPE   C4B61980  35.298  11.356  10.582 -0.1128 -0.2907  0.1290
 3344DPPE   NH361981  37.016  13.759  15.786  0.1054  0.0295  0.0700
 3344DPPE   PO461982  37.219  13.548  16.091  0.0811  0.0077  0.2874
 3344DPPE   GL161983  37.252  13.334  16.435  0.0428 -0.0138  0.1222
 3344DPPE   GL261984  37.468  13.108  16.594  0.2293  0.2846  0.1327
 3344DPPE   C1A61985  36.807  13.227  16.633  0.1388  0.1508 -0.0280
 3344DPPE   C2A61986  36.415  13.304  16.743 -0.2626  0.0879 -0.0210
 3344DPPE   C3A61987  36.167  12.984  17.104  0.2839  0.0766 -0.1677
 3344DPPE   C4A61988  35.896  12.789  17.454  0.1337 -0.1530  0.2280
 3344DPPE   C1B61989  37.359  12.887  16.768  0.3215  0.0747 -0.3106
 3344DPPE   C2B61990  36.905  12.758  16.836 -0.2112  0.0190  0.0253
 3344DPPE   C3B61991  36.483  12.805  16.679 -0.0322 -0.0724  0.1765
 3344DPPE   C4B61992  36.095  12.451  16.389 -0.0912 -0.0512 -0.0856
 3345DPPE   NH361993   1.246  11.403   6.061  0.0524  0.1194 -0.0397
 3345DPPE   PO461994   0.983  11.634   5.714  0.0497  0.2979 -0.2443
 3345DPPE   GL161995   0.738  11.349   5.762 -0.3075 -0.1045  0.2572
 3345DPPE   GL261996   0.587  11.366   5.969 -0.4326 -0.0346 -0.3222
 3345DPPE   C1A61997   0.439  10.959   5.757  0.1780 -0.2781  0.3529
 3345DPPE   C2A61998   0.167  10.662   5.491 -0.0694  0.0387  0.2754
 3345DPPE   C3A61999  -0.123  10.366   5.521  0.0222 -0.1022  0.1410
 3345DPPE   C4A62000  -0.234  10.193   5.965  0.0532  0.1336 -0.3915
 3345DPPE   C1B62001   0.161  11.395   5.724  0.0253 -0.1009  0.2603
 3345DPPE   C2B62002  -0.056  11.085   5.656 -0.3456 -0.0168 -0.2620
 3345DPPE   C3B62003  -0.212  10.824   5.796 -0.4427  0.0571 -0.2193
 3345DPPE   C4B62004  -0.509  10.586   5.733  0.0946  0.3940  0.0728
 3346DPPE   NH362005  36.117  15.895   7.390  0.2801 -0.2760  0.0256
 3346DPPE   PO462006  36.345  15.466   7.389 -0.1282 -0.0898  0.1701
 3346DPPE   GL162007  36.594  15.667   7.529 -0.1315  0.0765 -0.0588
 3346DPPE   GL262008  36.609  15.980   7.535  0.0072 -0.3165 -0.2252
 3346DPPE   C1A62009  36.805  15.693   7.879 -0.1812  0.2267 -0.3804
 3346DPPE   C2A62010  37.210  15.912   7.965 -0.2211  0.0504  0.0884
 3346DPPE   C3A62011  37.449  16.049   8.218  0.0130  0.1361  0.0834
 3346DPPE   C4A62012  37.797  16.265   8.435  0.0060 -0.1048 -0.1693
 3346DPPE   C1B62013  36.616  16.417   7.721 -0.4341 -0.4373 -0.0972
 3346DPPE   C2B62014  36.478  16.709   8.047  0.2885  0.1130  0.0857
 3346DPPE   C3B62015  36.824  16.775   8.313  0.1193  0.1090 -0.0243
 3346DPPE   C4B62016  37.146  16.930   8.320  0.0172 -0.2465  0.1994
 3347DPPE   NH362017   0.135  12.742   5.155 -0.0337  0.2737 -0.1196
 3347DPPE   PO462018  -0.157  12.892   5.489  0.0736  0.0138 -0.2486
 3347DPPE   GL162019  -0.234  12.403   5.419 -0.1066  0.0961 -0.2008
 3347DPPE   GL262020  -0.088  12.108   5.203  0.0403  0.0721  0.0199
 3347DPPE   C1A62021  -0.606  12.079   5.343 -0.2177  0.1529 -0.1739
 3347DPPE   C2A62022  -0.856  11.844   5.650  0.0158 -0.1701  0.0826
 3347DPPE   C3A62023  -1.230  11.700   5.724 -0.0633 -0.1478 -0.0828
 3347DPPE   C4A62024  -1.672  11.605   5.616 -0.3741 -0.2289 -0.0525
 3347DPPE   C1B62025  -0.091  11.633   5.165  0.0040 -0.2495 -0.1620
 3347DPPE   C2B62026  -0.385  11.322   5.053  0.0873  0.2308  0.0621
 3347DPPE   C3B62027  -0.747  11.079   5.008 -0.2176 -0.1889 -0.4204
 3347DPPE   C4B62028  -1.199  11.027   4.899 -0.0114 -0.1257 -0.3337
 3348DPPE   NH362029  33.023  19.812  13.108 -0.3152 -0.1680  0.0270
 3348DPPE   PO462030  33.028  19.579  13.431 -0.1850  0.1845  0.2956
 3348DPPE   GL162031  32.543  19.669  13.517 -0.0398 -0.2617  0.1043
 3348DPPE   GL262032  32.488  19.846  13.207 -0.0061  0.0905  0.2045
 3348DPPE   C1A62033  32.183  19.425  13.775  0.0497  0.2348 -0.2983
 3348DPPE   C2A62034  32.133  19.396  14.301  0.0796 -0.0136  0.2175
 3348DPPE   C3A62035  31.796  19.369  14.557 -0.1368 -0.2172 -0.0002
 3348DPPE   C4A62036  31.675  19.342  14.959 -0.1204 -0.1898 -0.0457
 3348DPPE   C1B62037  32.216  20.183  13.150  0.2257  0.1863  0.1468
 3348DPPE   C2B62038  31.824  20.429  12.923 -0.2329 -0.0835  0.3049
 3348DPPE   C3B62039  31.399  20.465  12.829  0.2930  0.0238 -0.2168
 3348DPPE   C4B62040  30.979  20.355  12.670 -0.1965  0.0787  0.0772
 3349DPPE   NH362041   1.958  10.351  11.947  0.0261  0.1774  0.2643
 3349DPPE   PO462042   1.797  10.264  11.508 -0.0162 -0.1129 -0.1682
 3349DPPE   GL162043   1.847   9.871  11.585  0.0983  0.1128  0.1869
 3349DPPE   GL262044   2.139   9.842  11.654 -0.1496 -0.1351 -0.0248
 3349DPPE   C1A62045   1.496   9.629  11.499  0.2270 -0.5782 -0.0065
 3349DPPE   C2A62046   1.234   9.420  11.629 -0.1013  0.0176 -0.0133
 3349DPPE   C3A62047   1.115   9.001  11.619  0.0957  0.0100  0.3810
 3349DPPE   C4A62048   1.376   8.669  11.640  0.0017 -0.0548  0.1935
 3349DPPE   C1B62049   2.356   9.589  11.802  0.1021  0.2593 -0.0519
 3349DPPE   C2B62050   2.272   9.254  12.134 -0.0708 -0.1893  0.2193
 3349DPPE   C3B62051   2.325   8.992  12.440  0.1683 -0.1726 -0.2273
 3349DPPE   C4B62052   2.133   8.586  12.547  0.0534  0.2523  0.1195
 3350DPPE   NH362053  36.807  12.839  10.162 -0.0939 -0.0420  0.0487
 3350DPPE   PO462054  36.721  13.218  10.341  0.0880  0.3146 -0.3648
 3350DPPE   GL162055  36.243  12.893  10.249  0.1534 -0.2934  0.0054
 3350DPPE   GL262056  36.051  13.000  10.037  0.1247  0.0188 -0.1458
 3350DPPE   C1A62057  35.978  12.451  10.249 -0.0524  0.2281 -0.3128
 3350DPPE   C2A62058  35.681  12.164  10.055 -0.1724  0.0194  0.3342
 3350DPPE   C3A62059  35.358  12.081   9.887 -0.1009 -0.2162  0.4627
 3350DPPE   C4A62060  34.956  11.911   9.700 -0.2874 -0.0853 -0.0993
 3350DPPE   C1B62061  35.706  12.657   9.917 -0.0302 -0.0478  0.2670
 3350DPPE   C2B62062  35.404  12.495   9.616 -0.1519  0.0094  0.1431
 3350DPPE   C3B62063  35.129  12.285   9.433  0.0542 -0.3104  0.3086
 3350DPPE   C4B62064  34.792  12.180   9.214 -0.1616  0.1892 -0.1542
 3351DPPE   NH362065  37.857  11.241  12.814 -0.2379 -0.1093  0.2950
 3351DPPE   PO462066  37.953  10.761  12.647 -0.0894  0.0299  0.1698
 3351DPPE   GL162067  37.564  10.506  12.641  0.0503  0.2034  0.1389
 3351DPPE   GL262068  37.640  10.239  12.764 -0.0067  0.0844  0.2286
 3351DPPE   C1A62069  37.146  10.516  12.753  0.2357 -0.0446  0.1404
 3351DPPE   C2A62070  36.769  10.306  12.671 -0.1527 -0.0644  0.0887
 3351DPPE   C3A62071  36.821   9.873  12.815  0.0957 -0.0112  0.0089
 3351DPPE   C4A62072  36.633   9.548  12.957 -0.0302 -0.4134  0.2069
 3351DPPE   C1B62073  37.477   9.861  12.618  0.1366  0.1498  0.0328
 3351DPPE   C2B62074  37.098   9.497  12.688  0.1181 -0.0425 -0.2464
 3351DPPE   C3B62075  36.930   9.160  12.758  0.2425  0.1630  0.1179
 3351DPPE   C4B62076  36.915   8.766  12.916 -0.0838  0.0891  0.7199
 3352DPPE   NH362077   0.175  17.471   3.123 -0.3973  0.0357  0.3132
 3352DPPE   PO462078   0.261  17.136   2.854  0.1153 -0.2465 -0.2398
 3352DPPE   GL162079   0.652  17.378   2.752 -0.1484  0.4114 -0.2000
 3352DPPE   GL262080   0.656  17.561   2.998  0.0659 -0.0151 -0.1642
 3352DPPE   C1A62081   1.014  17.231   2.471  0.0191 -0.1706  0.1112
 3352DPPE   C2A62082   1.479  17.450   2.337  0.2181 -0.0945 -0.0516
 3352DPPE   C3A62083   1.689  17.869   2.150 -0.2205  0.1039  0.0131
 3352DPPE   C4A62084   1.694  18.176   2.508  0.1577  0.1622 -0.4303
 3352DPPE   C1B62085   1.075  17.800   2.801 -0.1170 -0.0972 -0.1969
 3352DPPE   C2B62086   1.210  18.115   2.514 -0.1995  0.1621 -0.1027
 3352DPPE   C3B62087   1.126  18.545   2.725  0.0531 -0.1381 -0.1743
 3352DPPE   C4B62088   0.804  18.612   2.964  0.2385  0.0895  0.1126
 3353DPPE   NH362089   1.685  13.132   4.341 -0.2542 -0.0581  0.0086
 3353DPPE   PO462090   1.537  13.355   3.981 -0.0964  0.0748 -0.1435
 3353DPPE   GL162091   1.947  13.549   3.930  0.2650  0.2471 -0.0212
 3353DPPE   GL262092   2.261  13.475   4.113 -0.1926  0.3983 -0.0526
 3353DPPE   C1A62093   2.164  13.967   4.082  0.4268 -0.0577  0.2485
 3353DPPE   C2A62094   2.576  13.885   4.059  0.1762 -0.1784 -0.2846
 3353DPPE   C3A62095   3.008  14.168   4.049 -0.1917  0.1012 -0.0248
 3353DPPE   C4A62096   3.424  14.318   4.065  0.0443  0.0072  0.2118
 3353DPPE   C1B62097   2.587  13.110   4.108 -0.0017 -0.0430 -0.2848
 3353DPPE   C2B62098   2.913  13.231   3.835 -0.3031  0.2723  0.1795
 3353DPPE   C3B62099   3.320  13.409   3.590 -0.0241  0.2151  0.2274
 3353DPPE   C4B62100   3.601  13.461   3.237 -0.0254  0.0064 -0.2273
 3354DPPE   NH362101  36.091  14.501   7.542  0.1140  0.1620 -0.1169
 3354DPPE   PO462102  36.317  14.491   7.201 -0.1064 -0.3144  0.0703
 3354DPPE   GL162103  36.259  14.161   7.003  0.0528  0.4533  0.1331
 3354DPPE   GL262104  35.856  14.111   6.916 -0.2879 -0.1480 -0.0162
 3354DPPE   C1A62105  36.074  13.679   6.960  0.2176  0.0014 -0.0090
 3354DPPE   C2A62106  35.843  13.391   6.680 -0.2703  0.0400  0.0725
 3354DPPE   C3A62107  35.672  12.907   6.489  0.0477 -0.2130  0.1160
 3354DPPE   C4A62108  35.314  12.616   6.382  0.1030 -0.1591 -0.1072
 3354DPPE   C1B62109  35.580  13.839   7.173 -0.2484 -0.1374  0.1024
 3354DPPE   C2B62110  35.644  13.449   7.112  0.1677 -0.0395  0.2346
 3354DPPE   C3B62111  35.183  13.238   7.267  0.2486 -0.1861  0.1702
 3354DPPE   C4B62112  34.978  13.029   7.109  0.0547 -0.2259  0.0623
 3355DPPE   NH362113  33.425  20.473   8.447  0.1457  0.3427  0.0598
 3355DPPE   PO462114  33.252  20.509   7.977 -0.1256  0.1752 -0.0952
 3355DPPE   GL162115  32.921  20.320   7.908  0.0248 -0.2316  0.0264
 3355DPPE   GL262116  32.866  19.997   7.764 -0.1640 -0.0888  0.1649
 3355DPPE   C1A62117  32.508  20.340   7.781  0.6005 -0.1222  0.0245
 3355DPPE   C2A62118  32.072  20.174   7.612  0.1681 -0.2339  0.1945
 3355DPPE   C3A62119  31.632  19.840   7.447  0.5145 -0.1955 -0.2698
 3355DPPE   C4A62120  31.234  19.679   7.263  0.0630  0.0097 -0.2341
 3355DPPE   C1B62121  32.456  19.927   7.474  0.3234  0.2770  0.0378
 3355DPPE   C2B62122  32.095  20.055   7.097  0.3656 -0.2280 -0.0832
 3355DPPE   C3B62123  31.652  19.959   6.948 -0.0496 -0.0232  0.1699
 3355DPPE   C4B62124  31.143  20.137   6.973  0.2389 -0.0103 -0.1297
 3356DPPE   NH362125   0.730  13.241  13.977 -0.0227 -0.0168  0.1176
 3356DPPE   PO462126   1.005  13.384  14.248 -0.3726 -0.0861  0.2158
 3356DPPE   GL162127   1.326  13.671  14.135 -0.0838 -0.0946  0.0691
 3356DPPE   GL262128   1.536  13.653  13.863 -0.2835 -0.1975 -0.2047
 3356DPPE   C1A62129   1.263  14.147  14.017  0.0780 -0.5180 -0.1498
 3356DPPE   C2A62130   1.506  14.508  14.175 -0.2012 -0.0376  0.0150
 3356DPPE   C3A62131   1.698  14.860  14.300 -0.1399  0.1893 -0.0397
 3356DPPE   C4A62132   2.138  14.727  14.436 -0.1450 -0.0506  0.0224
 3356DPPE   C1B62133   1.901  13.753  13.653 -0.1665 -0.0007  0.1748
 3356DPPE   C2B62134   1.763  13.902  13.357  0.0084  0.2224 -0.0232
 3356DPPE   C3B62135   1.717  13.731  12.959 -0.0765 -0.0301  0.0265
 3356DPPE   C4B62136   1.279  13.552  12.827 -0.2328 -0.0189 -0.2395
 3357DPPE   NH362137  33.808  19.454  15.812 -0.2027 -0.0076  0.3085
 3357DPPE   PO462138  33.742  19.821  15.521 -0.0145 -0.0867  0.0094
 3357DPPE   GL162139  33.357  19.717  15.633  0.0652 -0.4316 -0.1623
 3357DPPE   GL262140  33.335  19.425  15.539  0.3845 -0.0470  0.2895
 3357DPPE   C1A62141  32.871  19.712  15.554  0.0952  0.1037  0.1210
 3357DPPE   C2A62142  32.390  19.724  15.483 -0.3013  0.2162  0.1047
 3357DPPE   C3A62143  31.958  19.567  15.400  0.0192  0.0252  0.2670
 3357DPPE   C4A62144  31.544  19.459  15.519 -0.3571  0.1635  0.1007
 3357DPPE   C1B62145  32.986  19.234  15.766 -0.1186 -0.1396 -0.1343
 3357DPPE   C2B62146  32.648  19.200  15.970  0.2324  0.1162  0.2304
 3357DPPE   C3B62147  32.451  18.879  16.067 -0.0555 -0.0038 -0.0371
 3357DPPE   C4B62148  32.484  18.508  16.057  0.0360  0.3820 -0.1050
 3358DPPE   NH362149  36.812  17.726  17.159 -0.1695  0.0910 -0.0431
 3358DPPE   PO462150  37.051  18.050  17.200  0.0216 -0.1693 -0.1756
 3358DPPE   GL162151  37.394  18.233  17.360  0.0774  0.1030  0.2668
 3358DPPE   GL262152  37.529  18.573  17.314  0.2637 -0.1143  0.1625
 3358DPPE   C1A62153  37.826  18.278  17.449 -0.2260 -0.0657 -0.0968
 3358DPPE   C2A62154  38.209  18.368  17.481 -0.0028 -0.2807 -0.1985
 3358DPPE   C3A62155  38.655  18.623  17.555  0.3593  0.1472  0.1071
 3358DPPE   C4A62156  39.102  18.777  17.624  0.1608  0.0157 -0.1888
 3358DPPE   C1B62157  37.817  18.865  17.334  0.2629  0.1063  0.4213
 3358DPPE   C2B62158  37.979  19.263  17.426  0.1426 -0.1658 -0.1865
 3358DPPE   C3B62159  38.149  19.632  17.531 -0.2448  0.0877  0.2554
 3358DPPE   C4B62160  38.393  19.864  17.463 -0.4290 -0.4179  0.2249
 3359DPPE   NH362161  36.039  15.526  16.609  0.5603  0.1623 -0.1576
 3359DPPE   PO462162  36.114  15.261  16.925  0.0016  0.3004  0.0233
 3359DPPE   GL162163  35.847  15.064  17.306 -0.2006 -0.1503  0.0524
 3359DPPE   GL262164  35.962  14.759  17.318 -0.6864 -0.0102  0.0587
 3359DPPE   C1A62165  35.864  14.864  17.758  0.1971 -0.4844  0.0428
 3359DPPE   C2A62166  35.589  14.826  18.161  0.2472  0.1165 -0.2137
 3359DPPE   C3A62167  35.190  14.638  18.088 -0.2639 -0.1399  0.0793
 3359DPPE   C4A62168  34.987  14.242  18.189 -0.0527  0.0319 -0.1175
 3359DPPE   C1B62169  35.837  14.463  17.115 -0.1016  0.1195 -0.3459
 3359DPPE   C2B62170  35.615  14.169  17.223  0.2390  0.1904 -0.0446
 3359DPPE   C3B62171  35.653  13.686  17.134  0.0195 -0.0949  0.2678
 3359DPPE   C4B62172  35.380  13.404  16.932  0.3589 -0.0900  0.0685
 3360DPPE   NH362173   0.192  12.036  11.187 -0.1360  0.2029  0.0479
 3360DPPE   PO462174   0.189  12.456  10.963  0.1896 -0.3188  0.1009
 3360DPPE   GL162175   0.150  12.733  10.680 -0.1864 -0.2475 -0.1424
 3360DPPE   GL262176   0.262  12.705  10.390 -0.0793  0.1500  0.1496
 3360DPPE   C1A62177   0.275  13.214  10.861  0.1506 -0.2443  0.1394
 3360DPPE   C2A62178   0.654  13.520  11.024  0.2663 -0.1359 -0.1973
 3360DPPE   C3A62179   0.985  13.684  10.853  0.1050  0.3624  0.0817
 3360DPPE   C4A62180   1.440  13.724  10.973 -0.1378  0.1101  0.0799
 3360DPPE   C1B62181   0.189  13.102  10.270 -0.0790  0.1795  0.1704
 3360DPPE   C2B62182   0.300  13.471  10.073  0.3577 -0.1122  0.0414
 3360DPPE   C3B62183   0.429  13.910  10.094 -0.2363 -0.3168  0.1123
 3360DPPE   C4B62184   0.449  14.222  10.357  0.2062  0.0865  0.2173
 3361DPPE   NH362185   2.661  10.702   8.873 -0.0821 -0.0048  0.0380
 3361DPPE   PO462186   2.604  10.239   8.767 -0.2058  0.2520  0.0906
 3361DPPE   GL162187   2.822   9.845   8.477 -0.0448 -0.0590 -0.2501
 3361DPPE   GL262188   3.023   9.644   8.726  0.0571  0.1484  0.1510
 3361DPPE   C1A62189   3.147   9.554   8.238  0.0638  0.1419 -0.2738
 3361DPPE   C2A62190   3.050   9.333   7.942  0.0472 -0.1933  0.0454
 3361DPPE   C3A62191   2.803   9.033   7.749 -0.1181  0.0604 -0.0679
 3361DPPE   C4A62192   2.323   8.999   7.687 -0.3614 -0.2620 -0.0447
 3361DPPE   C1B62193   3.246   9.212   8.545 -0.0373 -0.0201  0.3374
 3361DPPE   C2B62194   3.142   8.935   8.256  0.4152 -0.5146 -0.0348
 3361DPPE   C3B62195   3.062   8.480   8.034 -0.1150  0.0633 -0.0539
 3361DPPE   C4B62196   2.786   8.323   8.160  0.1022 -0.1551  0.0314
 3362DPPE   NH362197  36.424  13.519   8.796 -0.3210  0.0289  0.0175
 3362DPPE   PO462198  36.674  13.241   8.561 -0.2371 -0.0430  0.1315
 3362DPPE   GL162199  36.419  12.932   8.466  0.1785  0.0916  0.0868
 3362DPPE   GL262200  36.468  12.627   8.430 -0.0299  0.1387 -0.1173
 3362DPPE   C1A62201  35.977  12.801   8.385 -0.0017  0.0651 -0.0446
 3362DPPE   C2A62202  35.597  12.640   8.162  0.2139 -0.1330 -0.1085
 3362DPPE   C3A62203  35.173  12.545   7.961  0.3561  0.1358 -0.0004
 3362DPPE   C4A62204  34.665  12.457   8.190  0.2681 -0.1085 -0.1617
 3362DPPE   C1B62205  36.258  12.360   8.161 -0.1475 -0.0262  0.1722
 3362DPPE   C2B62206  35.866  12.337   7.851  0.1318 -0.4103  0.0945
 3362DPPE   C3B62207  35.719  12.111   7.588 -0.0871  0.5066 -0.1126
 3362DPPE   C4B62208  35.317  11.950   7.351  0.0698 -0.1148 -0.1118
 3363DPPE   NH362209   2.228  11.954   6.734  0.2018 -0.0292  0.1570
 3363DPPE   PO462210   2.396  11.600   6.599  0.0632  0.0520 -0.0222
 3363DPPE   GL162211   2.752  11.511   6.591 -0.3008 -0.0530  0.0991
 3363DPPE   GL262212   2.737  11.299   6.840 -0.0770  0.0821 -0.0639
 3363DPPE   C1A62213   3.202  11.563   6.564 -0.1699 -0.0085 -0.1632
 3363DPPE   C2A62214   3.346  11.197   6.476 -0.1087  0.0090  0.4501
 3363DPPE   C3A62215   3.560  10.983   6.297 -0.4500 -0.2540 -0.0969
 3363DPPE   C4A62216   3.971  10.768   6.474  0.2385 -0.0827 -0.0971
 3363DPPE   C1B62217   3.095  11.058   6.895  0.0713 -0.1675 -0.2732
 3363DPPE   C2B62218   3.469  10.914   6.845  0.0622 -0.2009 -0.1761
 3363DPPE   C3B62219   3.872  10.930   7.036 -0.2771  0.2473  0.3524
 3363DPPE   C4B62220   4.181  10.592   7.107  0.0491 -0.0707  0.3360
 3364DPPE   NH362221   0.132  13.438  17.306 -0.1319 -0.0341 -0.1790
 3364DPPE   PO462222  -0.192  13.674  17.280  0.1500 -0.1679 -0.2551
 3364DPPE   GL162223  -0.320  13.374  17.554  0.0767  0.2295 -0.1242
 3364DPPE   GL262224  -0.639  13.429  17.457  0.0967  0.0895  0.5334
 3364DPPE   C1A62225  -0.482  13.070  17.895 -0.1037  0.0660  0.2544
 3364DPPE   C2A62226  -0.669  13.032  18.289  0.0952  0.2503 -0.1531
 3364DPPE   C3A62227  -0.709  13.010  18.692 -0.0650 -0.0107  0.0189
 3364DPPE   C4A62228  -0.786  13.388  18.999  0.2341 -0.3965  0.1177
 3364DPPE   C1B62229  -0.701  13.023  17.401 -0.0977  0.1430  0.0757
 3364DPPE   C2B62230  -0.582  12.594  17.464  0.1631 -0.1405 -0.2317
 3364DPPE   C3B62231  -0.745  12.219  17.415  0.0652  0.3276  0.1246
 3364DPPE   C4B62232  -1.056  11.951  17.470 -0.0009  0.1318 -0.0522
 3365DPPE   NH362233  34.764  20.825  14.290 -0.1283  0.0927 -0.1770
 3365DPPE   PO462234  34.986  20.620  14.666  0.0131  0.0927  0.0776
 3365DPPE   GL162235  35.406  20.673  14.600 -0.0130  0.1946  0.0680
 3365DPPE   GL262236  35.572  20.909  14.889  0.1296 -0.0856  0.1448
 3365DPPE   C1A62237  35.877  20.640  14.601 -0.0278 -0.2418 -0.1936
 3365DPPE   C2A62238  36.290  20.861  14.779 -0.0070  0.0405 -0.1798
 3365DPPE   C3A62239  36.268  20.955  15.283 -0.3649 -0.0564 -0.0396
 3365DPPE   C4A62240  36.450  20.980  15.739  0.2378 -0.1632 -0.2161
 3365DPPE   C1B62241  35.962  21.197  14.830 -0.1012  0.3476  0.1428
 3365DPPE   C2B62242  36.336  21.436  14.907  0.0402 -0.1448 -0.0686
 3365DPPE   C3B62243  36.646  21.582  14.949 -0.0168 -0.0141  0.0526
 3365DPPE   C4B62244  36.815  21.323  15.278 -0.0706  0.0824 -0.2770
 3366DPPE   NH362245  34.617  15.409  11.183 -0.5151  0.0307  0.1566
 3366DPPE   PO462246  34.748  15.512  11.595 -0.0177  0.0552 -0.3028
 3366DPPE   GL162247  34.439  15.270  11.755 -0.0253 -0.0288 -0.3975
 3366DPPE   GL262248  34.641  15.057  11.928 -0.1228 -0.0062  0.0099
 3366DPPE   C1A62249  33.957  15.205  11.945 -0.0927 -0.1935 -0.5071
 3366DPPE   C2A62250  33.561  15.122  12.058 -0.0694 -0.0237 -0.0806
 3366DPPE   C3A62251  33.221  15.069  11.988 -0.0977  0.1843  0.4140
 3366DPPE   C4A62252  32.902  14.747  12.042 -0.0089 -0.0901 -0.0019
 3366DPPE   C1B62253  34.238  14.786  11.902  0.0892  0.0828  0.0129
 3366DPPE   C2B62254  33.917  14.700  11.961  0.2045  0.2516 -0.2704
 3366DPPE   C3B62255  33.515  14.691  11.802  0.4456 -0.0567  0.2675
 3366DPPE   C4B62256  33.213  14.475  11.621  0.1277 -0.2410  0.3042
 3367DPPE   NH362257  34.953  17.021   6.354 -0.0270 -0.1506 -0.0493
 3367DPPE   PO462258  35.075  16.634   6.556  0.0381 -0.1758  0.2650
 3367DPPE   GL162259  34.783  16.504   6.197  0.1357 -0.1259  0.2479
 3367DPPE   GL262260  34.684  16.688   5.983 -0.0270 -0.0832 -0.0476
 3367DPPE   C1A62261  34.315  16.465   6.165 -0.1975  0.2102  0.0733
 3367DPPE   C2A62262  33.901  16.406   6.114 -0.0229 -0.1356  0.1383
 3367DPPE   C3A62263  33.427  16.219   6.191 -0.1102  0.1070 -0.2791
 3367DPPE   C4A62264  33.288  16.119   5.858  0.0346 -0.5363  0.0083
 3367DPPE   C1B62265  34.546  16.435   5.719 -0.3211  0.0175 -0.0222
 3367DPPE   C2B62266  34.250  16.471   5.464  0.0335  0.0482 -0.2248
 3367DPPE   C3B62267  33.978  16.340   5.194 -0.0817 -0.0240  0.0004
 3367DPPE   C4B62268  33.579  16.073   4.945  0.0334 -0.0332  0.1842
 3368DPPE   NH362269  34.621  23.049   5.926  0.1714 -0.0553 -0.0830
 3368DPPE   PO462270  34.995  22.857   5.752  0.2154 -0.2070 -0.3317
 3368DPPE   GL162271  35.135  23.194   5.508 -0.1011  0.0982 -0.0672
 3368DPPE   GL262272  35.090  23.484   5.641  0.2458 -0.0843  0.0861
 3368DPPE   C1A62273  35.438  23.319   5.132  0.0327  0.0242  0.0771
 3368DPPE   C2A62274  35.683  23.683   5.118 -0.2800 -0.2070 -0.1608
 3368DPPE   C3A62275  36.066  23.702   4.758 -0.1643 -0.2303 -0.0079
 3368DPPE   C4A62276  36.423  24.023   4.568 -0.0732 -0.3887  0.2426
 3368DPPE   C1B62277  35.478  23.668   5.601 -0.2420  0.1624  0.1041
 3368DPPE   C2B62278  35.914  23.672   5.554 -0.1185 -0.1748 -0.3028
 3368DPPE   C3B62279  36.254  23.562   5.583  0.2541  0.1001 -0.0844
 3368DPPE   C4B62280  36.594  23.314   5.654  0.4993 -0.1070  0.0455
 3369DPPE   NH362281  38.358  14.668  18.358 -0.2061  0.0876 -0.2124
 3369DPPE   PO462282  38.252  14.559  18.689 -0.0465  0.2458 -0.0013
 3369DPPE   GL162283  37.924  14.538  18.970 -0.0361 -0.0527 -0.0964
 3369DPPE   GL262284  37.770  14.871  18.966 -0.4529 -0.0198  0.3256
 3369DPPE   C1A62285  37.632  14.514  19.373 -0.2466 -0.3107  0.1306
 3369DPPE   C2A62286  37.582  14.308  19.800  0.1379  0.3000 -0.1427
 3369DPPE   C3A62287  37.697  13.831  19.874  0.0589  0.0828 -0.1296
 3369DPPE   C4A62288  37.931  13.454  19.911  0.1304  0.1656 -0.0549
 3369DPPE   C1B62289  37.869  14.968  19.384  0.2441  0.0732 -0.0252
 3369DPPE   C2B62290  38.065  15.052  19.795  0.1116 -0.0834  0.2241
 3369DPPE   C3B62291  38.238  14.745  20.085  0.2750  0.0060  0.2610
 3369DPPE   C4B62292  38.056  14.341  20.005 -0.2286 -0.1782 -0.4776
 3370DPPE   NH362293  33.884  18.283  11.747 -0.0655 -0.0705  0.0340
 3370DPPE   PO462294  33.932  18.698  11.513  0.3057 -0.1524  0.3035
 3370DPPE   GL162295  34.286  18.663  11.580  0.2243 -0.0380 -0.0393
 3370DPPE   GL262296  34.386  18.398  11.661 -0.0211 -0.1035 -0.4014
 3370DPPE   C1A62297  34.780  18.736  11.593 -0.0769  0.0459 -0.1341
 3370DPPE   C2A62298  35.200  18.710  11.463 -0.3598 -0.1705 -0.1037
 3370DPPE   C3A62299  35.446  18.645  11.190 -0.1574  0.1475 -0.2435
 3370DPPE   C4A62300  35.939  18.764  11.006 -0.3773 -0.0043 -0.1005
 3370DPPE   C1B62301  34.553  18.742  12.013 -0.1282 -0.0302  0.2436
 3370DPPE   C2B62302  34.675  19.188  12.216 -0.0794 -0.0002 -0.0804
 3370DPPE   C3B62303  35.033  19.383  12.281  0.3883 -0.1021 -0.2083
 3370DPPE   C4B62304  35.318  19.750  12.324 -0.1140 -0.4979 -0.1105
 3371DPPE   NH362305  36.895  18.737   3.527 -0.0778 -0.0890  0.0408
 3371DPPE   PO462306  36.472  18.978   3.492  0.1247  0.1359  0.1861
 3371DPPE   GL162307  36.808  19.297   3.384 -0.3147 -0.2100  0.1479
 3371DPPE   GL262308  36.624  19.416   3.145  0.4661  0.2129 -0.0401
 3371DPPE   C1A62309  37.089  19.596   3.325  0.3041 -0.1097 -0.2745
 3371DPPE   C2A62310  37.267  20.006   3.243 -0.1960 -0.0738 -0.0043
 3371DPPE   C3A62311  37.400  20.293   3.027 -0.1986  0.1280 -0.3576
 3371DPPE   C4A62312  37.762  20.349   2.678  0.1745  0.2562 -0.0700
 3371DPPE   C1B62313  36.930  19.553   2.848 -0.1574  0.1001 -0.1630
 3371DPPE   C2B62314  37.331  19.676   2.798  0.2816 -0.1440 -0.2674
 3371DPPE   C3B62315  37.747  19.816   2.837  0.3440  0.1480 -0.2004
 3371DPPE   C4B62316  37.988  19.861   3.068  0.0520  0.0175 -0.2488
 3372DPPE   NH362317  33.963  20.244  11.072 -0.2646 -0.0909  0.0664
 3372DPPE   PO462318  34.019  20.567  11.460 -0.1384  0.3582  0.0984
 3372DPPE   GL162319  34.213  20.435  11.717  0.0198 -0.2835  0.1354
 3372DPPE   GL262320  34.094  20.288  12.067 -0.3049  0.0760 -0.3208
 3372DPPE   C1A62321  34.551  20.185  11.547  0.0807 -0.1404  0.0199
 3372DPPE   C2A62322  34.870  19.789  11.435 -0.0251 -0.0876 -0.1792
 3372DPPE   C3A62323  35.269  19.558  11.408  0.1249  0.0408 -0.1775
 3372DPPE   C4A62324  35.704  19.618  11.384  0.1344  0.1319 -0.0621
 3372DPPE   C1B62325  34.558  20.144  12.047  0.0749 -0.0282  0.3283
 3372DPPE   C2B62326  35.011  20.105  12.160 -0.2388 -0.2875  0.1946
 3372DPPE   C3B62327  35.473  20.223  12.150  0.0780 -0.5285 -0.1564
 3372DPPE   C4B62328  35.852  20.394  11.931 -0.0645  0.1668  0.0924
 3373DPPE   NH362329  35.980  18.176   6.134  0.1940  0.3537  0.0802
 3373DPPE   PO462330  36.027  18.549   5.795 -0.1409  0.0490 -0.1152
 3373DPPE   GL162331  36.384  18.782   5.848  0.1922  0.0641 -0.1753
 3373DPPE   GL262332  36.335  19.131   5.987 -0.1551 -0.2942 -0.3234
 3373DPPE   C1A62333  36.758  18.642   5.685  0.0960  0.1184  0.0414
 3373DPPE   C2A62334  37.256  18.628   5.729 -0.0878  0.2042  0.0203
 3373DPPE   C3A62335  37.630  18.484   5.724 -0.1750 -0.0898 -0.0812
 3373DPPE   C4A62336  37.997  18.599   5.947  0.4735  0.2125  0.2597
 3373DPPE   C1B62337  36.746  19.047   5.927 -0.3086 -0.0793 -0.0468
 3373DPPE   C2B62338  37.252  19.027   5.999  0.1381  0.0891  0.0794
 3373DPPE   C3B62339  37.589  18.969   6.157 -0.1282  0.0446  0.0163
 3373DPPE   C4B62340  37.926  19.233   6.291 -0.0738 -0.2455 -0.0895
 3374DPPE   NH362341  34.181  22.944  12.056 -0.0480  0.0463 -0.0436
 3374DPPE   PO462342  34.358  23.074  11.637 -0.0968  0.1282 -0.0065
 3374DPPE   GL162343  34.550  23.281  11.889  0.3061 -0.4077  0.1345
 3374DPPE   GL262344  34.464  23.332  12.182 -0.0420  0.3639 -0.4357
 3374DPPE   C1A62345  34.927  23.525  12.034 -0.1390  0.2157 -0.0108
 3374DPPE   C2A62346  35.161  23.857  12.117  0.0185 -0.1660  0.3573
 3374DPPE   C3A62347  35.276  24.224  12.184  0.0206 -0.2387  0.1138
 3374DPPE   C4A62348  35.052  24.649  12.097 -0.0679  0.3817  0.0023
 3374DPPE   C1B62349  34.569  23.691  12.436  0.1462  0.1116  0.1147
 3374DPPE   C2B62350  34.766  24.124  12.370  0.0060 -0.0768 -0.0551
 3374DPPE   C3B62351  35.074  24.312  12.693 -0.1478  0.0685 -0.2740
 3374DPPE   C4B62352  35.253  24.542  13.060  0.3481  0.0894 -0.2331
 3375DPPE   NH362353  35.371  19.573  17.240  0.3540 -0.1447 -0.2845
 3375DPPE   PO462354  35.804  19.735  17.372 -0.0759  0.1294  0.0429
 3375DPPE   GL162355  36.278  19.756  17.483 -0.1775  0.1676 -0.1041
 3375DPPE   GL262356  36.184  19.870  17.730 -0.2312  0.0676 -0.4260
 3375DPPE   C1A62357  36.613  19.950  17.394 -0.2134  0.0916 -0.0005
 3375DPPE   C2A62358  36.615  20.423  17.309 -0.2952 -0.2383 -0.1466
 3375DPPE   C3A62359  36.745  20.786  17.048  0.2738  0.3635  0.1661
 3375DPPE   C4A62360  37.004  21.209  16.915  0.1386  0.2728  0.1836
 3375DPPE   C1B62361  36.312  20.195  17.743 -0.0636 -0.1835  0.2112
 3375DPPE   C2B62362  36.595  20.462  17.873 -0.0431 -0.2063 -0.2326
 3375DPPE   C3B62363  36.810  20.733  18.202  0.0787  0.2218  0.0442
 3375DPPE   C4B62364  36.684  21.076  18.479  0.2319  0.0464  0.3056
 3376DPPE   NH362365  38.057  11.632  12.491 -0.2021 -0.0853 -0.2859
 3376DPPE   PO462366  37.949  11.223  12.294 -0.0710  0.1031 -0.1017
 3376DPPE   GL162367  37.607  11.007  12.331 -0.1188  0.0766  0.2135
 3376DPPE   GL262368  37.590  10.687  12.164 -0.1468  0.0156  0.0328
 3376DPPE   C1A62369  37.174  10.738  12.324 -0.1040  0.0523 -0.1808
 3376DPPE   C2A62370  36.762  10.538  12.229  0.2852  0.0422 -0.2446
 3376DPPE   C3A62371  36.384  10.725  12.331  0.2688  0.0676 -0.2549
 3376DPPE   C4A62372  35.861  10.694  12.244  0.2658  0.0285  0.0000
 3376DPPE   C1B62373  37.453  10.210  12.184  0.1711 -0.0365  0.2452
 3376DPPE   C2B62374  37.080  10.024  12.373  0.0908 -0.1834 -0.1526
 3376DPPE   C3B62375  36.920   9.627  12.224 -0.0236 -0.0397  0.2016
 3376DPPE   C4B62376  36.640   9.401  12.441 -0.0687 -0.1446  0.1025
 3377DPPE   NH362377  34.744  17.670   7.789 -0.3812  0.1151  0.0896
 3377DPPE   PO462378  34.725  17.136   7.729 -0.3867  0.5983 -0.0986
 3377DPPE   GL162379  34.470  17.072   7.402  0.0684 -0.4568  0.2399
 3377DPPE   GL262380  34.571  16.957   7.125 -0.0075 -0.1894  0.3165
 3377DPPE   C1A62381  33.989  17.093   7.339  0.4434  0.1888 -0.0389
 3377DPPE   C2A62382  33.545  16.817   7.261 -0.0544 -0.1749  0.0407
 3377DPPE   C3A62383  33.513  16.500   7.563  0.0985 -0.1035 -0.0529
 3377DPPE   C4A62384  33.603  16.457   7.996  0.1214  0.2134  0.1623
 3377DPPE   C1B62385  34.092  16.997   6.905 -0.4633  0.2187 -0.0897
 3377DPPE   C2B62386  33.686  16.987   6.794  0.0593 -0.0659  0.0433
 3377DPPE   C3B62387  33.221  17.079   6.860 -0.0737  0.1288  0.2213
 3377DPPE   C4B62388  32.888  17.152   6.610 -0.0443 -0.0926  0.3426
 3378DPPE   NH362389  34.720  16.477  12.084  0.2811  0.0239  0.4767
 3378DPPE   PO462390  34.455  16.168  12.320  0.2607  0.0779  0.2621
 3378DPPE   GL162391  34.060  15.938  12.377  0.1083 -0.0285 -0.2086
 3378DPPE   GL262392  33.830  16.013  12.515  0.0655  0.0671 -0.2924
 3378DPPE   C1A62393  33.896  15.513  12.357  0.0725 -0.1100 -0.3161
 3378DPPE   C2A62394  33.416  15.346  12.566  0.0959  0.0836 -0.1741
 3378DPPE   C3A62395  33.165  15.049  12.596  0.0807  0.2134 -0.0553
 3378DPPE   C4A62396  33.194  14.590  12.642 -0.0281 -0.2509 -0.1869
 3378DPPE   C1B62397  33.397  15.851  12.566 -0.2939  0.1346 -0.3452
 3378DPPE   C2B62398  33.004  15.624  12.672  0.0707 -0.3437 -0.0545
 3378DPPE   C3B62399  32.549  15.869  12.746  0.0633  0.2568  0.3367
 3378DPPE   C4B62400  32.144  15.623  12.878 -0.0524  0.0851 -0.4344
 3379DPPE   NH362401   0.876  11.792   9.683  0.0796  0.4185  0.2966
 3379DPPE   PO462402   1.221  11.759   9.826 -0.1614 -0.0957  0.0013
 3379DPPE   GL162403   1.527  12.047   9.795 -0.0611 -0.3357  0.1971
 3379DPPE   GL262404   1.863  11.951   9.864  0.2750 -0.0342  0.0698
 3379DPPE   C1A62405   1.704  12.443   9.716  0.1268 -0.0125  0.2067
 3379DPPE   C2A62406   1.618  12.766   9.701 -0.0752 -0.1025 -0.3430
 3379DPPE   C3A62407   1.544  13.215   9.690  0.0848 -0.4740  0.0541
 3379DPPE   C4A62408   1.265  13.517   9.765 -0.0773 -0.2857 -0.2971
 3379DPPE   C1B62409   2.147  12.207   9.628 -0.2501  0.0598  0.0755
 3379DPPE   C2B62410   2.303  12.539   9.568 -0.2516  0.2253  0.0392
 3379DPPE   C3B62411   2.759  12.751   9.441 -0.2589 -0.0963 -0.2224
 3379DPPE   C4B62412   2.944  12.925   8.986  0.0690  0.0362  0.1975
 3380DPPE   NH362413  38.207  11.863   7.903  0.0046  0.1259 -0.3347
 3380DPPE   PO462414  38.514  11.939   7.604  0.2867  0.0819  0.1279
 3380DPPE   GL162415  38.394  11.498   7.568  0.5283  0.0227 -0.3825
 3380DPPE   GL262416  38.529  11.294   7.351 -0.0439  0.0029  0.0608
 3380DPPE   C1A62417  38.134  11.089   7.530  0.0210  0.1832 -0.2096
 3380DPPE   C2A62418  37.928  10.663   7.542  0.0220  0.0393  0.3182
 3380DPPE   C3A62419  37.442  10.434   7.592  0.3296  0.1024  0.4759
 3380DPPE   C4A62420  37.013  10.293   7.395 -0.1962 -0.0453 -0.1373
 3380DPPE   C1B62421  38.158  11.268   7.030  0.0828 -0.1178  0.1120
 3380DPPE   C2B62422  37.718  11.253   6.981  0.0843 -0.1145 -0.3154
 3380DPPE   C3B62423  37.328  10.965   6.916  0.0277 -0.0341 -0.0248
 3380DPPE   C4B62424  37.134  10.661   7.077 -0.0209  0.1883  0.0467
 3381DPPE   NH362425   0.841  10.283  12.453  0.0478 -0.2305 -0.1907
 3381DPPE   PO462426   1.069  10.376  12.088  0.1103  0.1840  0.3173
 3381DPPE   GL162427   1.041   9.962  12.060  0.1368 -0.0089 -0.2357
 3381DPPE   GL262428   0.973   9.927  11.726  0.1344  0.3091  0.0220
 3381DPPE   C1A62429   0.875   9.507  12.079 -0.0258 -0.0242  0.0135
 3381DPPE   C2A62430   0.766   9.037  12.112 -0.0236 -0.0931 -0.4778
 3381DPPE   C3A62431   0.811   8.679  11.806 -0.2054 -0.1205  0.0091
 3381DPPE   C4A62432   0.948   8.289  11.621 -0.2164  0.3061  0.0847
 3381DPPE   C1B62433   0.721   9.538  11.556  0.1429  0.0520  0.1761
 3381DPPE   C2B62434   0.647   9.161  11.639 -0.0244 -0.4323  0.3344
 3381DPPE   C3B62435   0.333   8.788  11.849  0.1595  0.1224 -0.0613
 3381DPPE   C4B62436  -0.133   8.705  11.742 -0.1230 -0.3360  0.2761
 3382DPPE   NH362437  34.343  22.502  11.523 -0.0532  0.2463 -0.1639
 3382DPPE   PO462438  34.163  22.442  11.911  0.3762 -0.2544  0.1211
 3382DPPE   GL162439  34.634  22.380  11.886  0.1071 -0.2988 -0.0239
 3382DPPE   GL262440  34.723  22.196  11.784 -0.2019  0.1201 -0.0327
 3382DPPE   C1A62441  34.985  22.551  12.038 -0.1294 -0.0739  0.0439
 3382DPPE   C2A62442  35.391  22.583  11.738  0.0476 -0.1243 -0.0072
 3382DPPE   C3A62443  35.430  22.653  11.291  0.3293 -0.2411 -0.2724
 3382DPPE   C4A62444  35.832  22.674  11.110  0.0778  0.5293 -0.0223
 3382DPPE   C1B62445  35.178  22.100  11.758 -0.1226  0.1489  0.2195
 3382DPPE   C2B62446  35.544  21.957  11.806 -0.2239 -0.0075  0.2974
 3382DPPE   C3B62447  35.787  21.752  12.131  0.0397  0.1612  0.1054
 3382DPPE   C4B62448  36.278  21.825  12.135 -0.2866 -0.0152 -0.1122
 3383DPPE   NH362449  34.516  18.490  16.626  0.0406 -0.1866 -0.2987
 3383DPPE   PO462450  34.805  18.285  16.849  0.0123  0.0149  0.0665
 3383DPPE   GL162451  34.696  18.303  17.298  0.2189 -0.5586 -0.0891
 3383DPPE   GL262452  34.768  18.601  17.402 -0.3202  0.2009 -0.1275
 3383DPPE   C1A62453  34.444  18.183  17.622 -0.1884  0.2059  0.1587
 3383DPPE   C2A62454  34.358  18.283  18.061  0.2482  0.1702  0.3597
 3383DPPE   C3A62455  34.022  18.178  18.371  0.0757 -0.0113 -0.2831
 3383DPPE   C4A62456  33.743  18.184  18.683  0.1504 -0.5483 -0.0921
 3383DPPE   C1B62457  34.442  18.675  17.659  0.1733  0.0982  0.0504
 3383DPPE   C2B62458  34.025  18.519  17.730 -0.0414 -0.1669  0.0055
 3383DPPE   C3B62459  33.906  18.160  17.838  0.1138 -0.0173 -0.3778
 3383DPPE   C4B62460  33.676  17.901  18.144 -0.1176 -0.0925 -0.0089
 3384DPPE   NH362461  37.462  13.008   8.039 -0.4067  0.0885 -0.1445
 3384DPPE   PO462462  37.076  13.073   8.254 -0.0566 -0.1336 -0.3454
 3384DPPE   GL162463  36.907  12.669   8.076  0.3436 -0.0820 -0.0184
 3384DPPE   GL262464  36.509  12.746   7.923  0.1934  0.3883  0.0596
 3384DPPE   C1A62465  36.677  12.348   7.794  0.0068  0.0749 -0.0527
 3384DPPE   C2A62466  36.333  12.145   7.545 -0.0523 -0.2286  0.0741
 3384DPPE   C3A62467  36.302  11.702   7.486 -0.5417 -0.2585 -0.1334
 3384DPPE   C4A62468  36.292  11.435   7.766  0.2900 -0.1921 -0.0819
 3384DPPE   C1B62469  35.999  12.880   7.910  0.0391  0.1727  0.1306
 3384DPPE   C2B62470  35.542  12.750   7.619  0.1727  0.3259  0.3804
 3384DPPE   C3B62471  35.201  12.686   7.422 -0.1150  0.0665 -0.0781
 3384DPPE   C4B62472  35.006  12.331   7.327  0.1232  0.0471 -0.0902
 3385DPPE   NH362473   2.375  11.088  14.147 -0.1206 -0.4665 -0.0085
 3385DPPE   PO462474   2.577  11.190  13.790 -0.1651 -0.1332 -0.1731
 3385DPPE   GL162475   2.582  10.731  13.806 -0.4037 -0.1053  0.0366
 3385DPPE   GL262476   2.794  10.516  13.603 -0.1564 -0.5462 -0.1484
 3385DPPE   C1A62477   2.852  10.557  14.204 -0.1579 -0.1348  0.1292
 3385DPPE   C2A62478   2.760  10.144  14.492 -0.1303 -0.0203 -0.2947
 3385DPPE   C3A62479   2.667   9.677  14.740 -0.4540 -0.2439 -0.0772
 3385DPPE   C4A62480   2.739   9.320  14.930  0.0306  0.2732 -0.2029
 3385DPPE   C1B62481   3.076  10.188  13.772  0.2856 -0.1768 -0.0314
 3385DPPE   C2B62482   3.357   9.868  13.766  0.2643 -0.1350  0.0943
 3385DPPE   C3B62483   3.791   9.943  13.760 -0.0476  0.1962 -0.0228
 3385DPPE   C4B62484   4.186   9.917  13.945 -0.1902 -0.1383 -0.2997
 3386DPPE   NH362485  36.073  16.424   4.400 -0.1546  0.4133  0.0798
 3386DPPE   PO462486  36.359  16.006   4.410  0.0441  0.2152  0.1678
 3386DPPE   GL162487  36.054  16.020   4.064 -0.3515  0.1829  0.3196
 3386DPPE   GL262488  36.175  15.564   3.873 -0.1198 -0.0123  0.3629
 3386DPPE   C1A62489  35.774  15.888   3.675  0.4470  0.1256 -0.3355
 3386DPPE   C2A62490  35.585  15.479   3.578 -0.2439 -0.1688  0.3624
 3386DPPE   C3A62491  35.514  15.201   3.264  0.3969 -0.2235  0.1568
 3386DPPE   C4A62492  35.191  14.894   2.926  0.1741 -0.0557  0.0696
 3386DPPE   C1B62493  36.197  15.111   3.857  0.2945  0.1671  0.1038
 3386DPPE   C2B62494  36.068  14.685   3.873 -0.2930 -0.1348 -0.0296
 3386DPPE   C3B62495  35.891  14.310   3.864 -0.1651 -0.2065 -0.0338
 3386DPPE   C4B62496  35.691  14.023   3.957  0.0944  0.1568 -0.2676
 3387DPPE   NH362497  33.370  20.639  13.724  0.0966  0.1573 -0.2003
 3387DPPE   PO462498  33.292  20.221  13.807 -0.2419 -0.0272  0.1894
 3387DPPE   GL162499  33.028  20.263  14.124 -0.0540 -0.2315 -0.0947
 3387DPPE   GL262500  33.098  20.555  14.219 -0.1342 -0.1560  0.1889
 3387DPPE   C1A62501  32.890  20.251  14.621 -0.1631 -0.0672 -0.0451
 3387DPPE   C2A62502  32.550  20.305  14.828 -0.1033 -0.0046  0.4051
 3387DPPE   C3A62503  32.102  20.406  14.931 -0.0024 -0.1085 -0.1911
 3387DPPE   C4A62504  31.727  20.291  15.049 -0.1537  0.2780 -0.0210
 3387DPPE   C1B62505  32.614  20.395  14.272 -0.1946 -0.0872  0.1813
 3387DPPE   C2B62506  32.240  20.437  14.240 -0.0539  0.1807 -0.3176
 3387DPPE   C3B62507  31.934  20.318  14.154  0.3411 -0.0096  0.2800
 3387DPPE   C4B62508  31.581  20.378  13.846 -0.2533  0.1685  0.0020
 3388DPPE   NH362509   0.234  11.214  13.139  0.0739 -0.2247  0.0725
 3388DPPE   PO462510  -0.124  10.945  13.010  0.1269 -0.2588 -0.0616
 3388DPPE   GL162511  -0.454  10.700  13.165 -0.1994 -0.0677  0.1086
 3388DPPE   GL262512  -0.409  10.398  13.163  0.2941 -0.0077 -0.3387
 3388DPPE   C1A62513  -0.933  10.515  13.204  0.1938  0.1182  0.0080
 3388DPPE   C2A62514  -1.340  10.413  13.362  0.0421  0.1111 -0.2606
 3388DPPE   C3A62515  -1.404  10.182  13.740  0.0285 -0.1367  0.0874
 3388DPPE   C4A62516  -1.254   9.878  14.071 -0.0112 -0.1884  0.2166
 3388DPPE   C1B62517  -0.632   9.997  13.185  0.0060  0.3513 -0.0347
 3388DPPE   C2B62518  -0.867   9.612  13.452  0.2048  0.2186  0.1240
 3388DPPE   C3B62519  -0.920   9.222  13.478  0.2010  0.0996 -0.3054
 3388DPPE   C4B62520  -1.224   8.991  13.235 -0.0028  0.1458 -0.2877
 3389DPPE   NH362521  34.236  16.695  14.871  0.2910 -0.0406 -0.2002
 3389DPPE   PO462522  34.540  16.474  14.686  0.0366 -0.0186  0.0972
 3389DPPE   GL162523  34.260  16.155  14.685 -0.1847  0.1053 -0.2353
 3389DPPE   GL262524  33.899  16.279  14.825 -0.2646  0.6653  0.2414
 3389DPPE   C1A62525  34.015  15.845  15.027 -0.1402 -0.3883  0.1502
 3389DPPE   C2A62526  33.664  15.586  15.260 -0.1614  0.0116  0.1295
 3389DPPE   C3A62527  33.299  15.327  15.083  0.0740  0.0117  0.2010
 3389DPPE   C4A62528  33.007  15.320  14.886 -0.0364 -0.0964 -0.2316
 3389DPPE   C1B62529  33.699  16.163  15.257 -0.3057 -0.3101  0.0528
 3389DPPE   C2B62530  33.357  15.852  15.540  0.1609 -0.2007  0.0996
 3389DPPE   C3B62531  33.418  15.346  15.693  0.1768 -0.1715  0.0002
 3389DPPE   C4B62532  33.553  14.975  15.900 -0.2974 -0.1827  0.2475
 3390DPPE   NH362533  37.978  10.920  11.205  0.0070  0.0333  0.2749
 3390DPPE   PO462534  37.854  11.080  11.461  0.0202  0.0959  0.0927
 3390DPPE   GL162535  37.597  10.792  11.623  0.4409  0.4782 -0.0678
 3390DPPE   GL262536  37.564  10.665  11.328  0.0929 -0.0144 -0.1926
 3390DPPE   C1A62537  37.261  10.499  11.796  0.1492  0.0868  0.0922
 3390DPPE   C2A62538  37.028  10.228  11.917 -0.1398 -0.1620  0.1914
 3390DPPE   C3A62539  36.624  10.082  12.081 -0.2573 -0.0062  0.1299
 3390DPPE   C4A62540  36.454   9.887  12.372 -0.2005 -0.3287  0.0971
 3390DPPE   C1B62541  37.304  10.321  11.312 -0.3952  0.1154 -0.1189
 3390DPPE   C2B62542  36.933  10.021  11.143 -0.2665 -0.2540  0.2028
 3390DPPE   C3B62543  36.594   9.679  11.105  0.0740  0.3594  0.0125
 3390DPPE   C4B62544  36.335   9.848  10.762 -0.2483  0.0172  0.1957
 3391DPPE   NH362545  34.372  21.580   9.043 -0.0432 -0.1149 -0.0966
 3391DPPE   PO462546  34.649  21.431   8.761 -0.0201  0.0852 -0.0009
 3391DPPE   GL162547  35.029  21.113   8.938  0.2104 -0.0656  0.1002
 3391DPPE   GL262548  35.158  21.226   8.577 -0.1509 -0.1420 -0.1060
 3391DPPE   C1A62549  35.517  21.164   8.995 -0.1069  0.0818 -0.0049
 3391DPPE   C2A62550  35.783  21.444   8.936  0.3265 -0.1160 -0.2581
 3391DPPE   C3A62551  36.068  21.649   8.771  0.1994  0.0164 -0.0885
 3391DPPE   C4A62552  36.272  22.025   8.757 -0.1369  0.1016  0.1058
 3391DPPE   C1B62553  35.445  21.447   8.571 -0.1571 -0.0616 -0.1636
 3391DPPE   C2B62554  35.637  21.781   8.623 -0.0477 -0.0425 -0.0052
 3391DPPE   C3B62555  35.893  22.068   8.424  0.0131 -0.1877 -0.2223
 3391DPPE   C4B62556  36.106  22.326   8.123  0.0168 -0.5215  0.0335
 3392DPPE   NH362557  36.344  17.914   2.364  0.0148 -0.3620  0.3649
 3392DPPE   PO462558  36.886  18.100   2.518 -0.2037 -0.2058  0.0294
 3392DPPE   GL162559  36.977  18.471   2.267 -0.0773 -0.0833 -0.0796
 3392DPPE   GL262560  36.987  18.817   2.318  0.1130 -0.3104 -0.0020
 3392DPPE   C1A62561  37.046  18.502   1.891 -0.0973 -0.1355 -0.2069
 3392DPPE   C2A62562  37.483  18.315   1.648  0.1144 -0.1083  0.1711
 3392DPPE   C3A62563  37.923  18.371   1.559 -0.1311 -0.3666  0.1212
 3392DPPE   C4A62564  37.896  18.746   1.170  0.1318  0.0898  0.3392
 3392DPPE   C1B62565  37.381  18.734   2.283 -0.1473  0.0089  0.3434
 3392DPPE   C2B62566  37.561  18.720   1.908 -0.0826  0.0071  0.2753
 3392DPPE   C3B62567  38.068  18.796   1.734 -0.0225  0.0594 -0.2606
 3392DPPE   C4B62568  38.299  19.156   1.509  0.1544 -0.0330 -0.0314
 3393DPPE   NH362569  33.295  18.758  10.032 -0.0713  0.3177  0.1226
 3393DPPE   PO462570  33.322  18.825   9.577  0.0389  0.2173  0.0113
 3393DPPE   GL162571  32.948  18.742   9.683  0.1157 -0.1571 -0.1509
 3393DPPE   GL262572  32.790  18.943   9.924  0.0275  0.1366 -0.1254
 3393DPPE   C1A62573  32.623  18.563   9.530 -0.2014  0.0907 -0.2472
 3393DPPE   C2A62574  32.184  18.526   9.409 -0.0249  0.0698 -0.3106
 3393DPPE   C3A62575  31.808  18.604   9.556  0.0093  0.0913  0.1652
 3393DPPE   C4A62576  31.369  18.644   9.395  0.2947 -0.2022  0.0547
 3393DPPE   C1B62577  32.316  18.963   9.817  0.1302  0.3545 -0.1630
 3393DPPE   C2B62578  32.123  19.060   9.274 -0.0100  0.1589 -0.1989
 3393DPPE   C3B62579  31.737  19.046   9.248  0.0427 -0.1812  0.0677
 3393DPPE   C4B62580  31.232  19.125   9.324  0.0436 -0.2459  0.0048
 3394DPPE   NH362581  36.583  13.223   8.050  0.0240 -0.0219  0.3292
 3394DPPE   PO462582  36.346  13.364   8.224  0.1276  0.1413  0.0313
 3394DPPE   GL162583  35.976  13.455   8.009  0.0562  0.0530 -0.2316
 3394DPPE   GL262584  35.826  13.665   7.904  0.4181 -0.3232 -0.0379
 3394DPPE   C1A62585  35.610  13.144   7.954 -0.0418 -0.1468 -0.1725
 3394DPPE   C2A62586  35.201  13.088   7.800 -0.1071  0.0316 -0.2443
 3394DPPE   C3A62587  34.875  13.046   7.570  0.1546  0.3697 -0.3005
 3394DPPE   C4A62588  34.727  12.588   7.686 -0.0032 -0.0210  0.1733
 3394DPPE   C1B62589  35.497  13.573   7.588 -0.0645 -0.0543 -0.0515
 3394DPPE   C2B62590  35.043  13.738   7.418 -0.0233 -0.0624  0.1582
 3394DPPE   C3B62591  34.771  13.532   7.225 -0.1986 -0.0527  0.2881
 3394DPPE   C4B62592  34.290  13.599   7.179 -0.1440 -0.0166  0.4025
 3395DPPE   NH362593  36.325  16.910   4.377 -0.1317  0.1557 -0.2552
 3395DPPE   PO462594  36.063  16.756   4.076  0.0274  0.1603 -0.0816
 3395DPPE   GL162595  35.890  16.464   3.732  0.1127 -0.0325 -0.2103
 3395DPPE   GL262596  35.829  16.679   3.547 -0.0739 -0.2220 -0.1601
 3395DPPE   C1A62597  35.487  16.384   3.623  0.1770 -0.1477 -0.1869
 3395DPPE   C2A62598  35.155  16.295   3.337 -0.1590 -0.0967  0.1366
 3395DPPE   C3A62599  34.968  16.040   2.976  0.1155  0.1234 -0.2000
 3395DPPE   C4A62600  34.823  15.796   2.579  0.2530 -0.2070  0.0083
 3395DPPE   C1B62601  35.611  16.585   3.137  0.0056  0.1046 -0.1459
 3395DPPE   C2B62602  35.311  16.788   2.951  0.1275  0.2720 -0.1050
 3395DPPE   C3B62603  35.199  17.152   2.663 -0.1665 -0.0059  0.0754
 3395DPPE   C4B62604  35.146  17.140   2.333  0.3159 -0.3631  0.2329
 3396DPPE   NH362605  34.705  16.168   8.495  0.1309 -0.1746  0.1737
 3396DPPE   PO462606  34.472  16.570   8.456  0.0021 -0.0543  0.0884
 3396DPPE   GL162607  34.133  16.433   8.247  0.1301 -0.0130  0.0645
 3396DPPE   GL262608  34.345  16.165   8.021 -0.1381  0.4037  0.0914
 3396DPPE   C1A62609  33.805  16.310   8.449  0.1605  0.2329  0.2580
 3396DPPE   C2A62610  33.517  16.020   8.445  0.1787  0.1380  0.2967
 3396DPPE   C3A62611  33.022  15.825   8.478  0.0253  0.1414 -0.0822
 3396DPPE   C4A62612  32.621  15.793   8.336 -0.0339 -0.3704 -0.2841
 3396DPPE   C1B62613  33.880  16.025   7.935 -0.1203  0.0793  0.1432
 3396DPPE   C2B62614  33.544  15.779   7.925  0.0641  0.3616 -0.0790
 3396DPPE   C3B62615  33.300  15.502   7.730  0.3116  0.1814 -0.1379
 3396DPPE   C4B62616  33.269  15.096   7.412  0.1095 -0.1263  0.2120
 3397DPPE   NH362617  33.223  21.234   8.620  0.0096 -0.0212 -0.1719
 3397DPPE   PO462618  33.369  20.975   8.378 -0.0501  0.0082  0.0291
 3397DPPE   GL162619  33.007  20.902   8.251 -0.0305 -0.4165  0.1253
 3397DPPE   GL262620  32.800  21.123   8.326  0.3734 -0.2455 -0.2002
 3397DPPE   C1A62621  32.641  20.718   8.151 -0.2836  0.1182  0.3197
 3397DPPE   C2A62622  32.263  20.619   8.219  0.1695  0.0357  0.0596
 3397DPPE   C3A62623  31.940  20.578   7.984  0.0112  0.1881  0.1254
 3397DPPE   C4A62624  31.695  20.449   7.758  0.0039 -0.1106 -0.1408
 3397DPPE   C1B62625  32.420  21.045   8.432 -0.1987  0.0789 -0.0185
 3397DPPE   C2B62626  31.948  20.971   8.380  0.2586 -0.2696  0.0026
 3397DPPE   C3B62627  31.643  20.891   8.632 -0.0474 -0.4247  0.0426
 3397DPPE   C4B62628  31.213  20.853   8.454  0.2691 -0.2701 -0.3093
 3398DPPE   NH362629   1.868  10.172  10.983 -0.2558  0.1943 -0.2019
 3398DPPE   PO462630   1.843  10.112  10.574  0.0898 -0.0031  0.1681
 3398DPPE   GL162631   1.902   9.662  10.420  0.0406 -0.1596  0.1512
 3398DPPE   GL262632   2.235   9.567  10.364 -0.0459 -0.0141 -0.0194
 3398DPPE   C1A62633   1.863   9.185  10.359  0.0975 -0.0365  0.0416
 3398DPPE   C2A62634   1.510   8.882  10.505  0.1975 -0.0279  0.2197
 3398DPPE   C3A62635   1.493   8.731  10.917 -0.1265 -0.1359  0.3811
 3398DPPE   C4A62636   1.755   8.623  11.149 -0.0352  0.0900 -0.2327
 3398DPPE   C1B62637   2.394   9.188  10.336  0.0062 -0.1573 -0.1768
 3398DPPE   C2B62638   2.416   8.789  10.379 -0.1671  0.1514 -0.0052
 3398DPPE   C3B62639   2.491   8.316  10.444  0.0436 -0.4395  0.0947
 3398DPPE   C4B62640   2.494   7.963  10.795 -0.0319 -0.1820 -0.1441
 3399DPPE   NH362641  38.172  16.866   2.571 -0.0949  0.1178  0.1628
 3399DPPE   PO462642  38.377  16.582   2.575  0.1680 -0.0078  0.0188
 3399DPPE   GL162643  38.665  16.862   2.439 -0.0402  0.4263  0.0844
 3399DPPE   GL262644  38.713  16.694   2.186 -0.2487  0.2964 -0.0284
 3399DPPE   C1A62645  38.876  17.242   2.251 -0.1738  0.1444  0.2815
 3399DPPE   C2A62646  39.225  17.389   1.991 -0.0259 -0.0888 -0.0032
 3399DPPE   C3A62647  39.639  17.365   1.856  0.0157  0.3585 -0.0934
 3399DPPE   C4A62648  39.995  17.323   1.681 -0.1720 -0.2062  0.1201
 3399DPPE   C1B62649  38.871  16.438   1.860 -0.0529  0.0909  0.4626
 3399DPPE   C2B62650  39.380  16.450   1.710  0.1978  0.0732 -0.0943
 3399DPPE   C3B62651  39.702  16.107   1.569 -0.1845  0.0926  0.2051
 3399DPPE   C4B62652  39.954  15.772   1.513  0.2424 -0.1493  0.0584
 3400DPPE   NH362653   0.200  14.856   3.171 -0.0111 -0.1459 -0.0965
 3400DPPE   PO462654  -0.118  14.645   3.018  0.0159 -0.1212  0.0008
 3400DPPE   GL162655  -0.097  14.366   2.629  0.3570 -0.0148  0.0437
 3400DPPE   GL262656   0.092  14.154   2.685  0.0338  0.1320 -0.1367
 3400DPPE   C1A62657   0.010  14.208   2.194  0.1798 -0.0138  0.2307
 3400DPPE   C2A62658   0.301  13.889   1.980 -0.0531  0.3170 -0.0340
 3400DPPE   C3A62659   0.384  13.528   2.195 -0.2307 -0.0760 -0.2057
 3400DPPE   C4A62660   0.303  13.239   2.478  0.0953  0.0786  0.3812
 3400DPPE   C1B62661   0.489  13.881   2.518 -0.1722  0.1793 -0.3067
 3400DPPE   C2B62662   0.820  13.939   2.279  0.1346  0.2599  0.1598
 3400DPPE   C3B62663   1.083  13.931   1.878 -0.0083 -0.3204  0.1446
 3400DPPE   C4B62664   1.594  14.130   1.707 -0.3270  0.0568  0.2717
 3401DPPE   NH362665  33.275  18.604  13.904 -0.0200 -0.1574  0.4135
 3401DPPE   PO462666  33.362  18.971  14.086 -0.1038  0.1612 -0.0141
 3401DPPE   GL162667  33.002  18.977  14.280 -0.0709  0.0088 -0.0433
 3401DPPE   GL262668  32.730  18.712  14.018 -0.0639 -0.1352 -0.2492
 3401DPPE   C1A62669  32.850  19.167  14.564  0.1371  0.0667 -0.1240
 3401DPPE   C2A62670  32.528  19.370  14.659 -0.2394 -0.0536  0.1234
 3401DPPE   C3A62671  32.290  19.358  14.971  0.1311 -0.0970  0.0912
 3401DPPE   C4A62672  32.038  19.153  15.212  0.0940 -0.2616 -0.3250
 3401DPPE   C1B62673  32.455  18.457  14.116  0.0137  0.1427  0.1225
 3401DPPE   C2B62674  32.135  18.383  14.340 -0.0820  0.1565  0.0924
 3401DPPE   C3B62675  31.566  18.454  14.414 -0.0125  0.0279  0.0490
 3401DPPE   C4B62676  31.260  18.489  14.691 -0.2605  0.0248  0.0926
 3402DPPE   NH362677   1.469  13.522   3.510 -0.2589 -0.3683  0.1130
 3402DPPE   PO462678   1.600  13.762   3.199 -0.0944 -0.1868 -0.1463
 3402DPPE   GL162679   1.650  14.000   2.822 -0.2258  0.0518 -0.1791
 3402DPPE   GL262680   1.710  14.276   2.907  0.0959 -0.0463  0.0900
 3402DPPE   C1A62681   1.851  14.061   2.438  0.0127 -0.2548 -0.2341
 3402DPPE   C2A62682   2.136  13.676   2.242  0.2395 -0.0222 -0.1386
 3402DPPE   C3A62683   2.242  13.252   2.217  0.0154  0.0910 -0.1148
 3402DPPE   C4A62684   2.389  12.954   2.547 -0.1209 -0.0936 -0.2005
 3402DPPE   C1B62685   1.556  14.467   2.536  0.1997  0.0925 -0.0476
 3402DPPE   C2B62686   1.599  14.468   2.052 -0.1827 -0.0940 -0.0049
 3402DPPE   C3B62687   1.900  14.507   1.760  0.0416 -0.3733 -0.2337
 3402DPPE   C4B62688   2.099  14.920   1.858 -0.0110 -0.0340 -0.2109
 3403DPPE   NH362689  35.526  16.836   8.462 -0.1655  0.0300 -0.0215
 3403DPPE   PO462690  35.553  17.200   8.167 -0.1579  0.0634 -0.0720
 3403DPPE   GL162691  35.772  17.449   8.421 -0.1016 -0.2171  0.2529
 3403DPPE   GL262692  36.072  17.404   8.261 -0.1260  0.0600  0.1258
 3403DPPE   C1A62693  35.926  17.802   8.561  0.0832 -0.3177  0.0128
 3403DPPE   C2A62694  36.298  17.982   8.782 -0.0655 -0.4754  0.1599
 3403DPPE   C3A62695  36.393  18.342   9.219  0.0767 -0.2800 -0.1532
 3403DPPE   C4A62696  36.709  18.619   9.471  0.2609 -0.2635 -0.0286
 3403DPPE   C1B62697  36.468  17.678   8.383  0.2235 -0.0303 -0.0635
 3403DPPE   C2B62698  36.786  17.938   8.445 -0.0777 -0.3201 -0.0328
 3403DPPE   C3B62699  36.819  18.206   8.698 -0.0754 -0.0103  0.3688
 3403DPPE   C4B62700  36.960  18.358   9.052  0.1215  0.0552 -0.3819
 3404DPPE   NH362701  37.609  17.869   3.616  0.3221 -0.1788  0.0579
 3404DPPE   PO462702  37.492  17.885   3.242  0.0596 -0.0304  0.0638
 3404DPPE   GL162703  37.930  18.141   3.240  0.3371  0.1735 -0.1614
 3404DPPE   GL262704  37.934  18.227   3.533 -0.0977 -0.0054 -0.0012
 3404DPPE   C1A62705  38.242  18.429   3.267 -0.1151  0.2145  0.1938
 3404DPPE   C2A62706  38.619  18.747   3.339 -0.1350  0.0943 -0.1197
 3404DPPE   C3A62707  38.775  18.926   3.096 -0.0384 -0.1652 -0.0319
 3404DPPE   C4A62708  38.958  19.001   2.637  0.4008  0.1638  0.0292
 3404DPPE   C1B62709  38.309  18.332   3.801  0.1687  0.1018 -0.0855
 3404DPPE   C2B62710  38.310  18.666   4.192  0.1763 -0.0239  0.1608
 3404DPPE   C3B62711  38.455  18.627   4.520 -0.2025  0.2241 -0.0820
 3404DPPE   C4B62712  38.738  18.542   4.782  0.0281 -0.1181  0.0069
 3405DPPE   NH362713  36.265  14.699   9.326 -0.4249  0.3509  0.0299
 3405DPPE   PO462714  36.032  14.883   9.649 -0.1816  0.2519 -0.0184
 3405DPPE   GL162715  36.526  15.093   9.673  0.0565  0.2187 -0.0586
 3405DPPE   GL262716  36.519  15.384   9.814  0.0992 -0.1446 -0.1943
 3405DPPE   C1A62717  37.014  14.994   9.691  0.2555  0.0509 -0.2038
 3405DPPE   C2A62718  37.311  15.316   9.786  0.0442 -0.0671  0.1679
 3405DPPE   C3A62719  37.627  15.596  10.003  0.2461 -0.0395 -0.0195
 3405DPPE   C4A62720  38.036  15.639   9.890 -0.0860 -0.2157  0.0750
 3405DPPE   C1B62721  36.895  15.405   9.996  0.1759 -0.1811 -0.0850
 3405DPPE   C2B62722  37.253  15.436  10.312  0.0863 -0.0310 -0.1418
 3405DPPE   C3B62723  37.675  15.466  10.519  0.1975  0.2793  0.0170
 3405DPPE   C4B62724  37.714  15.740  10.811  0.0146  0.0225 -0.1001
 3406DPPE   NH362725  38.184  14.200   6.613 -0.2059 -0.1077  0.2506
 3406DPPE   PO462726  38.409  13.816   6.637 -0.1765  0.2424  0.2903
 3406DPPE   GL162727  38.840  13.730   6.919  0.4786 -0.2173  0.1907
 3406DPPE   GL262728  38.905  13.517   7.106  0.1117 -0.2824 -0.1636
 3406DPPE   C1A62729  39.143  14.007   6.972  0.0701 -0.1134 -0.1942
 3406DPPE   C2A62730  39.469  14.259   7.207  0.1577  0.1405  0.0456
 3406DPPE   C3A62731  39.852  14.453   7.121 -0.0791  0.0516  0.2311
 3406DPPE   C4A62732  40.184  14.641   7.100  0.0390 -0.1445  0.0223
 3406DPPE   C1B62733  39.255  13.518   7.421 -0.2739 -0.1249  0.1134
 3406DPPE   C2B62734  39.507  13.836   7.509  0.2546  0.1808  0.1171
 3406DPPE   C3B62735  39.770  14.191   7.598  0.2666  0.0499  0.1469
 3406DPPE   C4B62736  40.094  14.440   7.577  0.2571 -0.3705  0.2057
 3407DPPE   NH362737  35.622  16.312  16.369  0.1266  0.4333 -0.0907
 3407DPPE   PO462738  35.722  15.875  16.316  0.0801  0.1167 -0.0088
 3407DPPE   GL162739  35.452  15.717  16.499  0.1428  0.2745  0.2814
 3407DPPE   GL262740  35.487  15.628  16.741 -0.0985 -0.1693 -0.3027
 3407DPPE   C1A62741  34.992  15.623  16.667 -0.1610 -0.2971  0.0793
 3407DPPE   C2A62742  34.823  15.452  17.069 -0.0981  0.3645  0.3412
 3407DPPE   C3A62743  34.629  15.277  17.384  0.2681 -0.1628  0.2810
 3407DPPE   C4A62744  34.336  15.050  17.719  0.0598  0.2135  0.0205
 3407DPPE   C1B62745  35.311  15.562  17.191 -0.0403 -0.2580  0.2379
 3407DPPE   C2B62746  35.125  15.307  17.518  0.1400  0.0297  0.1099
 3407DPPE   C3B62747  34.843  14.979  17.781 -0.0625 -0.1505 -0.1225
 3407DPPE   C4B62748  34.689  14.813  18.167 -0.0708  0.0164 -0.0287
 3408DPPE   NH362749  34.911  16.231  15.905  0.3975  0.0804 -0.0612
 3408DPPE   PO462750  34.625  16.337  16.151 -0.1174  0.0343  0.0401
 3408DPPE   GL162751  34.232  16.434  16.256  0.1461  0.0902  0.1250
 3408DPPE   GL262752  34.199  16.587  16.618 -0.0314 -0.0525  0.3079
 3408DPPE   C1A62753  33.861  16.161  16.439  0.1548 -0.0575 -0.1487
 3408DPPE   C2A62754  33.497  16.036  16.695  0.1696 -0.1091 -0.2582
 3408DPPE   C3A62755  33.160  15.853  16.680  0.0051 -0.1802 -0.0824
 3408DPPE   C4A62756  32.959  15.382  16.620 -0.0650  0.0574 -0.0023
 3408DPPE   C1B62757  33.826  16.673  16.644 -0.0411  0.0610  0.0867
 3408DPPE   C2B62758  33.656  16.882  17.069 -0.1379  0.1139  0.1764
 3408DPPE   C3B62759  33.393  16.694  17.434  0.2745  0.0870  0.1267
 3408DPPE   C4B62760  33.079  16.471  17.657 -0.1940  0.0087  0.3023
 3409DPPE   NH362761  33.666  16.958  11.024  0.1939  0.0886 -0.0659
 3409DPPE   PO462762  33.972  16.605  11.150 -0.1544 -0.3654  0.2656
 3409DPPE   GL162763  33.555  16.565  11.327 -0.3755 -0.0364 -0.1780
 3409DPPE   GL262764  33.529  16.278  11.449 -0.0397 -0.1128 -0.0071
 3409DPPE   C1A62765  33.139  16.381  11.147 -0.1559 -0.0912  0.1791
 3409DPPE   C2A62766  32.782  16.483  10.970  0.2664 -0.0538 -0.0473
 3409DPPE   C3A62767  32.541  16.286  10.786 -0.2440 -0.3559  0.4661
 3409DPPE   C4A62768  32.105  16.051  10.712  0.0533  0.0331  0.0837
 3409DPPE   C1B62769  33.300  15.926  11.673 -0.0184  0.2368 -0.0647
 3409DPPE   C2B62770  32.875  15.786  11.802  0.1757  0.1331 -0.2835
 3409DPPE   C3B62771  32.471  15.963  11.860 -0.0986 -0.1124 -0.3363
 3409DPPE   C4B62772  32.120  16.050  11.577  0.0824  0.0717 -0.1404
 3410DPPE   NH362773   2.637  11.776   4.726 -0.0859 -0.1776 -0.0083
 3410DPPE   PO462774   2.919  11.735   5.067  0.0408  0.0069 -0.2202
 3410DPPE   GL162775   3.280  11.817   4.902  0.0738  0.0061  0.0662
 3410DPPE   GL262776   3.127  11.917   4.642  0.0201  0.0705 -0.0268
 3410DPPE   C1A62777   3.741  11.943   4.883 -0.0188 -0.2783  0.2392
 3410DPPE   C2A62778   3.930  11.761   4.513  0.0232  0.1017  0.0883
 3410DPPE   C3A62779   3.882  11.597   4.145  0.0511 -0.0185  0.2822
 3410DPPE   C4A62780   4.213  11.608   3.778 -0.0089 -0.1296 -0.1548
 3410DPPE   C1B62781   3.207  11.524   4.473  0.1052  0.2961  0.0670
 3410DPPE   C2B62782   3.500  11.304   4.288 -0.2164  0.0349  0.4018
 3410DPPE   C3B62783   3.482  10.830   4.084  0.0966  0.0029  0.5048
 3410DPPE   C4B62784   3.324  10.581   3.747 -0.0292 -0.0551 -0.0415
 3411DPPE   NH362785  33.161  20.357  10.498 -0.0981 -0.2140  0.0330
 3411DPPE   PO462786  33.110  20.752  10.309 -0.1956  0.1135  0.1758
 3411DPPE   GL162787  32.776  20.790  10.404  0.1180 -0.0518 -0.0263
 3411DPPE   GL262788  32.592  20.661  10.049 -0.1074  0.2432 -0.0154
 3411DPPE   C1A62789  32.306  20.695  10.436 -0.0061  0.1182 -0.4268
 3411DPPE   C2A62790  31.969  20.696  10.583 -0.2184 -0.1019  0.0602
 3411DPPE   C3A62791  31.606  20.808  10.466 -0.1130 -0.0465  0.1144
 3411DPPE   C4A62792  31.355  21.180  10.613 -0.1366  0.0663  0.2563
 3411DPPE   C1B62793  32.281  20.721   9.948 -0.0148  0.2363  0.1497
 3411DPPE   C2B62794  31.873  20.795   9.996  0.0834  0.0758 -0.0863
 3411DPPE   C3B62795  31.510  20.677   9.950 -0.3219  0.1159 -0.2739
 3411DPPE   C4B62796  31.481  20.515   9.495 -0.0596  0.0928 -0.0316
 3412DPPE   NH362797  38.310  15.717  18.265  0.1696 -0.0301  0.1403
 3412DPPE   PO462798  38.112  15.545  18.578 -0.3469 -0.1017 -0.2021
 3412DPPE   GL162799  38.330  15.867  18.877 -0.0896 -0.0055  0.2212
 3412DPPE   GL262800  38.622  16.070  18.760  0.1863 -0.0878  0.0390
 3412DPPE   C1A62801  38.276  16.131  19.178 -0.1580 -0.0773 -0.0293
 3412DPPE   C2A62802  38.150  16.441  19.318  0.1507  0.0326 -0.0252
 3412DPPE   C3A62803  37.799  16.699  19.248  0.0223  0.2441  0.0121
 3412DPPE   C4A62804  37.412  16.527  19.382  0.1278 -0.1622 -0.1713
 3412DPPE   C1B62805  38.944  16.355  18.848 -0.1561  0.1475 -0.0210
 3412DPPE   C2B62806  39.225  16.692  18.950  0.0989 -0.0221 -0.1321
 3412DPPE   C3B62807  39.419  17.026  19.040  0.1209  0.0903 -0.2414
 3412DPPE   C4B62808  39.188  17.435  19.260 -0.1042 -0.2582  0.0077
 3413DPPE   NH362809  33.398  22.269   8.492  0.2202  0.2456 -0.0515
 3413DPPE   PO462810  33.383  22.720   8.305 -0.3578  0.1679 -0.3766
 3413DPPE   GL162811  33.094  22.993   8.093  0.2897  0.0292 -0.0892
 3413DPPE   GL262812  33.109  23.244   7.863  0.0265 -0.1542 -0.1186
 3413DPPE   C1A62813  32.598  22.976   7.948 -0.1783  0.2354 -0.2254
 3413DPPE   C2A62814  32.256  23.060   7.752 -0.0661 -0.0545 -0.1262
 3413DPPE   C3A62815  31.830  23.138   7.554 -0.5429 -0.0850  0.0190
 3413DPPE   C4A62816  31.658  23.287   7.223 -0.1193  0.1782 -0.0353
 3413DPPE   C1B62817  33.013  23.806   7.751 -0.1361 -0.3141  0.3679
 3413DPPE   C2B62818  32.692  24.301   7.593 -0.2937  0.3126 -0.2553
 3413DPPE   C3B62819  32.200  24.276   7.800  0.1693 -0.1840  0.1236
 3413DPPE   C4B62820  31.934  23.981   7.959 -0.0854 -0.2627  0.1884
 3414DPPE   NH362821  35.819  15.954  10.116 -0.6007  0.0670  0.0174
 3414DPPE   PO462822  35.803  15.739   9.877  0.0942 -0.1672 -0.1017
 3414DPPE   GL162823  36.279  15.819   9.988 -0.0227 -0.0198 -0.1797
 3414DPPE   GL262824  36.352  15.905  10.241  0.1183  0.1275 -0.0334
 3414DPPE   C1A62825  36.692  15.858   9.915 -0.0445  0.0576 -0.0406
 3414DPPE   C2A62826  37.177  15.835   9.943 -0.1084 -0.4572  0.1904
 3414DPPE   C3A62827  37.532  16.184   9.956 -0.1836  0.0598 -0.0646
 3414DPPE   C4A62828  37.911  16.190   9.886 -0.0623 -0.1317  0.1335
 3414DPPE   C1B62829  36.492  15.464  10.280  0.2522 -0.2199  0.1155
 3414DPPE   C2B62830  36.844  15.208  10.552  0.1994 -0.4062  0.3900
 3414DPPE   C3B62831  37.055  15.285  10.852 -0.0211  0.0163  0.1342
 3414DPPE   C4B62832  37.244  15.616  10.817 -0.1784  0.0409 -0.1823
 3415DPPE   NH362833  36.189  18.899  16.914  0.1186 -0.1968 -0.1766
 3415DPPE   PO462834  36.279  19.302  17.167 -0.2889  0.3137 -0.2666
 3415DPPE   GL162835  36.556  19.589  17.075  0.3985 -0.2638 -0.0359
 3415DPPE   GL262836  36.862  19.403  17.217  0.0143 -0.0323  0.2466
 3415DPPE   C1A62837  36.995  19.786  16.958  0.2710  0.4722  0.0357
 3415DPPE   C2A62838  37.376  19.577  16.916  0.3769  0.0347 -0.0713
 3415DPPE   C3A62839  37.648  19.865  16.786  0.1617 -0.0880  0.1394
 3415DPPE   C4A62840  37.966  20.231  16.875  0.2598  0.1807 -0.0962
 3415DPPE   C1B62841  37.058  19.528  17.613  0.1413 -0.2312 -0.0149
 3415DPPE   C2B62842  37.292  19.798  17.957  0.3297 -0.3264 -0.0162
 3415DPPE   C3B62843  37.414  19.853  18.363  0.1128 -0.0223  0.2449
 3415DPPE   C4B62844  37.322  20.011  18.737  0.3628 -0.4571  0.0222
 3416DPPE   NH362845  36.008  18.398  17.681  0.0611 -0.1846 -0.1257
 3416DPPE   PO462846  36.003  17.954  17.824  0.1037  0.0913  0.0091
 3416DPPE   GL162847  35.794  18.210  18.111 -0.0651  0.3008  0.0221
 3416DPPE   GL262848  35.453  18.124  18.155  0.3767 -0.0203 -0.1048
 3416DPPE   C1A62849  35.822  18.590  18.427  0.0611 -0.2808  0.2825
 3416DPPE   C2A62850  35.800  18.828  18.809  0.4077 -0.0011 -0.2327
 3416DPPE   C3A62851  35.683  19.260  18.875 -0.1011  0.0245 -0.1345
 3416DPPE   C4A62852  35.827  19.646  18.949  0.2579  0.0605  0.1772
 3416DPPE   C1B62853  35.286  18.518  18.245  0.0183  0.2623 -0.3193
 3416DPPE   C2B62854  35.054  18.648  18.556  0.0189 -0.3114 -0.0516
 3416DPPE   C3B62855  34.940  18.646  18.952 -0.1048  0.0323  0.1090
 3416DPPE   C4B62856  34.686  18.559  19.199 -0.3725  0.4775 -0.2170
 3417DPPE   NH362857  34.429  20.096   5.264  0.2748 -0.3090 -0.2295
 3417DPPE   PO462858  34.202  20.254   5.576  0.1625 -0.0129 -0.0975
 3417DPPE   GL162859  33.941  20.472   5.500 -0.0031  0.0996 -0.0244
 3417DPPE   GL262860  33.943  20.760   5.313 -0.4204 -0.2434  0.4810
 3417DPPE   C1A62861  33.454  20.473   5.401 -0.0233 -0.0147 -0.2479
 3417DPPE   C2A62862  33.177  20.607   5.080 -0.0450  0.0008 -0.0877
 3417DPPE   C3A62863  32.782  20.700   5.006 -0.0013  0.0355 -0.0511
 3417DPPE   C4A62864  32.517  20.688   4.658  0.2752 -0.0498  0.0412
 3417DPPE   C1B62865  33.602  20.887   5.128  0.0481 -0.0038  0.0139
 3417DPPE   C2B62866  33.482  20.843   4.689  0.2733 -0.1414 -0.1527
 3417DPPE   C3B62867  33.082  20.789   4.502  0.2643 -0.2484 -0.1971
 3417DPPE   C4B62868  32.786  20.774   4.195 -0.1255  0.0016  0.1188
 3418DPPE   NH362869  33.942  23.523  12.210  0.0143  0.0251 -0.1268
 3418DPPE   PO462870  33.542  23.542  11.976 -0.0079  0.1194 -0.4801
 3418DPPE   GL162871  33.527  23.858  12.256 -0.0240 -0.2139 -0.1993
 3418DPPE   GL262872  33.624  23.767  12.582 -0.1994  0.1087 -0.3742
 3418DPPE   C1A62873  33.842  24.174  12.405 -0.0546  0.0140  0.1795
 3418DPPE   C2A62874  34.325  24.257  12.510  0.0116 -0.1799 -0.0389
 3418DPPE   C3A62875  34.625  23.995  12.858  0.1720 -0.0152  0.2476
 3418DPPE   C4A62876  34.970  23.811  13.171  0.0597  0.1651  0.0455
 3418DPPE   C1B62877  33.394  23.999  12.908 -0.1021 -0.0326  0.0995
 3418DPPE   C2B62878  33.319  24.289  13.195  0.3315 -0.3788 -0.4964
 3418DPPE   C3B62879  33.564  24.478  13.347 -0.2189  0.1265 -0.2106
 3418DPPE   C4B62880  33.999  24.251  13.372  0.1585 -0.0782 -0.2000
 3419DPPE   NH362881   0.486  13.146  15.609  0.0834 -0.2319  0.1396
 3419DPPE   PO462882   0.470  12.685  15.703  0.3862 -0.0781  0.0815
 3419DPPE   GL162883   0.469  12.442  16.044 -0.2713  0.0385 -0.1395
 3419DPPE   GL262884   0.698  12.498  16.212  0.0861 -0.2298 -0.1961
 3419DPPE   C1A62885   0.234  12.133  16.326  0.0641 -0.0678 -0.0756
 3419DPPE   C2A62886   0.078  11.831  16.622  0.0338  0.1320  0.1396
 3419DPPE   C3A62887   0.361  11.540  16.689  0.0084  0.0745 -0.0110
 3419DPPE   C4A62888   0.595  11.145  16.578 -0.3246  0.0931  0.1117
 3419DPPE   C1B62889   0.656  12.155  16.615 -0.1336 -0.1868 -0.2064
 3419DPPE   C2B62890   0.801  11.752  16.899 -0.4624 -0.0135  0.1644
 3419DPPE   C3B62891   0.836  11.597  17.337 -0.2752  0.1413  0.3461
 3419DPPE   C4B62892   0.888  11.747  17.739 -0.1307  0.0845 -0.0258
 3420DPPE   NH362893  33.308  21.914  12.986  0.0945 -0.1501  0.1649
 3420DPPE   PO462894  32.918  21.618  12.995 -0.0855  0.0085  0.0282
 3420DPPE   GL162895  32.597  21.817  13.227 -0.0884 -0.2705 -0.1749
 3420DPPE   GL262896  32.279  21.735  13.056 -0.0789 -0.1166  0.0995
 3420DPPE   C1A62897  32.287  22.154  13.276  0.0875  0.0673 -0.1681
 3420DPPE   C2A62898  32.031  22.229  13.603  0.0353 -0.2511 -0.2565
 3420DPPE   C3A62899  32.000  22.051  13.996  0.3247 -0.2107 -0.0036
 3420DPPE   C4A62900  32.110  22.029  14.408 -0.1337 -0.0112 -0.2780
 3420DPPE   C1B62901  31.889  21.561  13.127 -0.0157 -0.2669 -0.1938
 3420DPPE   C2B62902  31.447  21.498  12.921 -0.2638 -0.0768 -0.0961
 3420DPPE   C3B62903  31.182  21.388  12.720 -0.0762 -0.1471 -0.0792
 3420DPPE   C4B62904  30.857  21.302  12.876  0.1508 -0.1408 -0.3005
 3421DPPE   NH362905  35.048  20.784  15.112  0.0365 -0.2838 -0.2030
 3421DPPE   PO462906  34.912  20.760  15.579 -0.1420  0.2159 -0.0511
 3421DPPE   GL162907  35.139  20.924  15.912 -0.1701 -0.1321 -0.1330
 3421DPPE   GL262908  35.419  20.943  15.904  0.0998  0.2051  0.3450
 3421DPPE   C1A62909  35.120  21.198  16.221 -0.1195 -0.1775 -0.0399
 3421DPPE   C2A62910  35.407  21.352  16.432  0.0590 -0.2988  0.3161
 3421DPPE   C3A62911  35.669  21.201  16.624 -0.3701  0.1264 -0.0920
 3421DPPE   C4A62912  36.051  21.415  16.907  0.1102 -0.4113  0.1480
 3421DPPE   C1B62913  35.631  21.284  16.007  0.0439 -0.0797 -0.1001
 3421DPPE   C2B62914  35.823  21.615  16.313 -0.0874  0.1154  0.1501
 3421DPPE   C3B62915  36.017  21.959  16.527 -0.1662 -0.3926 -0.3531
 3421DPPE   C4B62916  36.208  21.971  17.014  0.1450 -0.2039  0.2342
 3422DPPE   NH362917   0.882  12.448   8.139 -0.0818  0.2702 -0.2349
 3422DPPE   PO462918   0.501  12.620   7.993 -0.0301  0.0821  0.0963
 3422DPPE   GL162919   0.797  12.948   8.175 -0.0869  0.1425  0.0421
 3422DPPE   GL262920   0.964  13.039   7.903 -0.3345  0.1389 -0.1520
 3422DPPE   C1A62921   0.843  13.379   8.372  0.1639  0.0387  0.0363
 3422DPPE   C2A62922   0.852  13.874   8.451  0.1438 -0.2467 -0.0948
 3422DPPE   C3A62923   1.096  14.213   8.488  0.0451 -0.0940 -0.2227
 3422DPPE   C4A62924   1.420  14.225   8.637 -0.0814 -0.4901  0.3016
 3422DPPE   C1B62925   1.166  13.369   7.828 -0.4814  0.0521  0.0865
 3422DPPE   C2B62926   1.529  13.284   7.977 -0.2043  0.2116 -0.0326
 3422DPPE   C3B62927   1.777  13.355   8.259 -0.1366  0.0316 -0.1073
 3422DPPE   C4B62928   1.807  13.281   8.683  0.1238 -0.0977 -0.0715
 3423DPPE   NH362929   0.607  12.632  15.242 -0.1109  0.1424  0.1100
 3423DPPE   PO462930   0.979  12.761  15.431  0.0575  0.0852  0.1779
 3423DPPE   GL162931   0.896  12.396  15.744  0.5281 -0.1195  0.3166
 3423DPPE   GL262932   1.160  12.443  16.016  0.0911 -0.4473 -0.0447
 3423DPPE   C1A62933   0.793  12.022  15.986  0.0775 -0.0333  0.1735
 3423DPPE   C2A62934   0.561  11.699  16.129 -0.1559  0.4813 -0.0747
 3423DPPE   C3A62935   0.289  11.385  16.261  0.3877  0.0559 -0.3574
 3423DPPE   C4A62936   0.463  11.017  16.167  0.3797 -0.1442  0.3541
 3423DPPE   C1B62937   1.116  12.206  16.378  0.2888  0.4424  0.2016
 3423DPPE   C2B62938   0.982  11.766  16.452  0.0006 -0.2199  0.0368
 3423DPPE   C3B62939   1.236  11.384  16.547  0.2784  0.3045  0.0904
 3423DPPE   C4B62940   1.103  11.320  17.001  0.0228  0.1079 -0.2899
 3424DPPE   NH362941  37.648  17.438   3.145 -0.0905 -0.1130  0.0349
 3424DPPE   PO462942  37.987  17.650   3.400  0.4462  0.1242 -0.2267
 3424DPPE   GL162943  38.390  17.891   3.380 -0.0094 -0.1233 -0.0251
 3424DPPE   GL262944  38.475  18.068   3.080  0.2015  0.1635  0.3634
 3424DPPE   C1A62945  38.708  18.274   3.442 -0.4019 -0.3668 -0.0876
 3424DPPE   C2A62946  39.026  18.540   3.487  0.2650  0.2509  0.1999
 3424DPPE   C3A62947  39.111  18.905   3.433  0.1465 -0.1506  0.2435
 3424DPPE   C4A62948  39.307  19.236   3.516 -0.0873 -0.3300 -0.2984
 3424DPPE   C1B62949  38.680  18.385   2.938 -0.0110  0.2895  0.1250
 3424DPPE   C2B62950  38.643  18.616   2.511 -0.1242  0.0361 -0.2248
 3424DPPE   C3B62951  38.639  18.981   2.295  0.1127  0.0075 -0.0629
 3424DPPE   C4B62952  38.415  19.066   1.988  0.1856 -0.2765  0.1099
 3425DPPE   NH362953  38.367  16.084   2.751 -0.2890 -0.0601  0.0516
 3425DPPE   PO462954  38.761  16.281   2.623 -0.0067  0.1644 -0.0263
 3425DPPE   GL162955  39.225  16.216   2.435 -0.0218  0.1228 -0.2203
 3425DPPE   GL262956  39.366  16.067   2.613  0.2388  0.0040  0.5592
 3425DPPE   C1A62957  39.579  16.193   2.158 -0.0868  0.0444 -0.1439
 3425DPPE   C2A62958  39.952  16.463   1.925 -0.2480 -0.1928 -0.0727
 3425DPPE   C3A62959  40.201  17.003   1.992 -0.1902  0.0805  0.0858
 3425DPPE   C4A62960  40.348  17.336   2.200  0.0768 -0.0511  0.1109
 3425DPPE   C1B62961  39.431  15.719   2.275 -0.1405  0.0635 -0.2571
 3425DPPE   C2B62962  39.778  15.563   2.151  0.0397 -0.0380 -0.1719
 3425DPPE   C3B62963  39.963  15.958   1.953 -0.1916 -0.0211  0.3185
 3425DPPE   C4B62964  40.350  16.134   1.769  0.0210 -0.0416 -0.3735
 3426DPPE   NH362965  35.106  23.249   6.722  0.1092  0.0681  0.0583
 3426DPPE   PO462966  35.067  22.853   6.889 -0.0659  0.1343  0.0543
 3426DPPE   GL162967  35.342  23.165   7.312 -0.1278 -0.1276 -0.0206
 3426DPPE   GL262968  35.604  23.182   7.433 -0.1281 -0.1690  0.0481
 3426DPPE   C1A62969  35.408  23.652   7.347 -0.1230  0.0294 -0.0477
 3426DPPE   C2A62970  35.506  24.043   7.127  0.0670 -0.0197  0.1121
 3426DPPE   C3A62971  35.726  24.521   7.011 -0.0974  0.3311  0.1668
 3426DPPE   C4A62972  35.712  24.950   6.864 -0.0280 -0.1604 -0.1924
 3426DPPE   C1B62973  35.852  23.383   7.573 -0.1875  0.0275 -0.1743
 3426DPPE   C2B62974  36.233  23.568   7.555 -0.0698  0.0988  0.2605
 3426DPPE   C3B62975  36.476  23.945   7.658  0.1709  0.3713 -0.0425
 3426DPPE   C4B62976  36.645  24.324   7.732  0.0460  0.3308  0.1896
 3427DPPE   NH362977   1.525  14.388  17.225  0.0273 -0.0141 -0.0226
 3427DPPE   PO462978   1.260  14.708  17.052 -0.0403 -0.0521 -0.1401
 3427DPPE   GL162979   1.574  14.881  17.146 -0.1416 -0.3905  0.2694
 3427DPPE   GL262980   1.734  14.814  17.486 -0.2252 -0.0326 -0.1184
 3427DPPE   C1A62981   2.004  15.158  16.970  0.0495 -0.0560 -0.0483
 3427DPPE   C2A62982   2.129  15.573  17.148  0.2313 -0.2443 -0.3487
 3427DPPE   C3A62983   2.057  15.967  16.948 -0.5594 -0.1395 -0.1674
 3427DPPE   C4A62984   2.067  16.438  16.781  0.2697  0.0792 -0.0637
 3427DPPE   C1B62985   2.213  14.850  17.359 -0.3395  0.0396 -0.0102
 3427DPPE   C2B62986   2.592  14.875  17.327  0.2217  0.3447  0.1227
 3427DPPE   C3B62987   2.927  14.734  17.470  0.3773  0.1624  0.1701
 3427DPPE   C4B62988   3.049  14.749  17.922 -0.2006 -0.2278  0.1542
 3428DPPE   NH362989  36.723  15.154   7.657 -0.0034  0.1928 -0.2279
 3428DPPE   PO462990  36.749  14.880   8.070  0.1495  0.2501  0.2036
 3428DPPE   GL162991  36.848  15.317   8.146  0.0307 -0.1254 -0.1611
 3428DPPE   GL262992  37.152  15.299   7.891  0.1062 -0.1281  0.0040
 3428DPPE   C1A62993  36.909  15.745   8.401  0.0365 -0.3448  0.0890
 3428DPPE   C2A62994  37.235  15.954   8.621 -0.0862 -0.2936  0.0727
 3428DPPE   C3A62995  37.412  16.269   8.843 -0.1727  0.1703 -0.1253
 3428DPPE   C4A62996  37.860  16.322   9.011  0.1053  0.0911  0.2454
 3428DPPE   C1B62997  37.357  15.531   8.373 -0.0732  0.0851 -0.1300
 3428DPPE   C2B62998  37.745  15.687   8.509  0.0069  0.1272  0.1031
 3428DPPE   C3B62999  38.161  15.904   8.399 -0.0069  0.1066 -0.4318
 3428DPPE   C4B63000  38.467  16.222   8.448 -0.0830  0.0685  0.3258
 3429DPPE   NH363001  34.759  16.682   7.527  0.2148  0.0179 -0.1450
 3429DPPE   PO463002  34.866  16.280   7.580  0.2032  0.0069 -0.0191
 3429DPPE   GL163003  34.408  16.343   7.598  0.0319  0.1916 -0.4782
 3429DPPE   GL263004  34.254  16.635   7.430  0.0272 -0.2662  0.0079
 3429DPPE   C1A63005  34.019  16.235   7.504 -0.1631  0.1708  0.3958
 3429DPPE   C2A63006  33.699  16.015   7.354  0.2759 -0.0241 -0.1547
 3429DPPE   C3A63007  33.334  15.948   7.494  0.0527 -0.0714  0.0725
 3429DPPE   C4A63008  32.861  15.932   7.476 -0.1213  0.1128  0.2686
 3429DPPE   C1B63009  33.997  16.606   7.169  0.5242 -0.3166 -0.3931
 3429DPPE   C2B63010  33.630  16.394   7.016 -0.0178 -0.0082 -0.0235
 3429DPPE   C3B63011  33.154  16.145   7.075  0.0200  0.2101 -0.3919
 3429DPPE   C4B63012  32.786  15.947   6.954  0.3046  0.4390  0.0135
 3430DPPE   NH363013   1.535  12.099   7.004  0.1256 -0.0846 -0.0820
 3430DPPE   PO463014   1.699  12.002   6.637 -0.1087 -0.3353  0.0311
 3430DPPE   GL163015   1.951  12.429   6.816  0.1877  0.0076  0.2792
 3430DPPE   GL263016   1.829  12.606   6.488  0.2007  0.0825 -0.0494
 3430DPPE   C1A63017   2.309  12.794   6.931 -0.1132  0.1086 -0.1807
 3430DPPE   C2A63018   2.673  12.913   7.017  0.2309  0.1008 -0.0036
 3430DPPE   C3A63019   3.023  13.146   7.036 -0.1396  0.0226 -0.2782
 3430DPPE   C4A63020   3.354  13.183   7.510 -0.0407  0.1271 -0.2869
 3430DPPE   C1B63021   1.911  13.032   6.755  0.2381  0.0858  0.6242
 3430DPPE   C2B63022   2.258  13.283   6.747 -0.0231  0.1079 -0.1138
 3430DPPE   C3B63023   2.407  13.573   6.891 -0.1822 -0.3436  0.2396
 3430DPPE   C4B63024   2.786  13.615   6.926 -0.0192  0.1076  0.0836
 3431DPPE   NH363025  38.088  15.499   3.383  0.1862 -0.0227  0.1080
 3431DPPE   PO463026  37.852  15.450   2.995  0.0857  0.0532 -0.2049
 3431DPPE   GL163027  37.817  15.212   2.630  0.2342 -0.1148  0.1586
 3431DPPE   GL263028  37.954  14.921   2.713  0.2945  0.0420  0.2583
 3431DPPE   C1A63029  37.651  15.267   2.166  0.0174 -0.0238  0.1084
 3431DPPE   C2A63030  37.426  15.148   1.802 -0.1865  0.0721  0.1156
 3431DPPE   C3A63031  37.358  15.300   1.326 -0.0966 -0.1439 -0.0997
 3431DPPE   C4A63032  37.282  15.656   1.070  0.0394  0.2515  0.0206
 3431DPPE   C1B63033  37.721  14.690   2.287 -0.1909 -0.1076 -0.1090
 3431DPPE   C2B63034  37.443  14.351   2.121  0.2069 -0.1922 -0.1128
 3431DPPE   C3B63035  36.933  14.380   2.284 -0.2604  0.1102  0.0430
 3431DPPE   C4B63036  36.711  14.386   2.687 -0.0320  0.3110 -0.4521
 3432DPPE   NH363037  36.518  13.111   9.804 -0.1043  0.3789  0.1885
 3432DPPE   PO463038  36.438  13.378   9.465 -0.1328  0.2504 -0.1494
 3432DPPE   GL163039  36.256  13.053   9.281  0.1470  0.1762  0.1814
 3432DPPE   GL263040  36.379  12.876   8.974  0.1524 -0.0481  0.1803
 3432DPPE   C1A63041  35.975  12.655   9.291  0.1913 -0.1446  0.2324
 3432DPPE   C2A63042  35.664  12.397   9.099  0.2560  0.2438  0.1984
 3432DPPE   C3A63043  35.366  12.019   8.926  0.1396  0.0162  0.2828
 3432DPPE   C4A63044  35.287  11.874   8.608  0.2672 -0.1530 -0.0682
 3432DPPE   C1B63045  36.083  12.533   8.785  0.1864  0.0923 -0.1886
 3432DPPE   C2B63046  35.728  12.208   8.466 -0.2128  0.2100 -0.0889
 3432DPPE   C3B63047  35.461  12.151   8.047 -0.3221  0.2864 -0.1017
 3432DPPE   C4B63048  35.273  11.904   7.837  0.2224 -0.0276 -0.0029
 3433DPPE   NH363049   2.257  10.054  10.301  0.1336  0.0664  0.4421
 3433DPPE   PO463050   1.946  10.159   9.995 -0.2619 -0.3250 -0.1641
 3433DPPE   GL163051   1.723   9.907  10.007  0.0467 -0.0191  0.1257
 3433DPPE   GL263052   1.447   9.980   9.958 -0.1979  0.0400  0.0998
 3433DPPE   C1A63053   1.674   9.491   9.963 -0.1949 -0.0255  0.1735
 3433DPPE   C2A63054   1.453   9.054  10.022  0.0256  0.1015 -0.2394
 3433DPPE   C3A63055   1.668   8.689  10.081  0.0243  0.2565 -0.4175
 3433DPPE   C4A63056   1.965   8.372  10.324  0.0161  0.0467 -0.1333
 3433DPPE   C1B63057   1.217   9.589  10.009  0.3513  0.1997 -0.1075
 3433DPPE   C2B63058   1.021   9.214  10.143  0.1560  0.0189  0.0399
 3433DPPE   C3B63059   0.827   8.925   9.914 -0.1288 -0.0355  0.0104
 3433DPPE   C4B63060   0.608   8.508   9.815 -0.0597 -0.3989  0.3106
 3434DPPE   NH363061  36.994  16.594  18.672  0.2459  0.3006 -0.0569
 3434DPPE   PO463062  36.585  16.769  18.533 -0.0442  0.0485  0.2760
 3434DPPE   GL163063  36.601  17.033  18.937  0.0556  0.1422  0.0442
 3434DPPE   GL263064  36.989  17.016  19.035 -0.0038  0.1880  0.1638
 3434DPPE   C1A63065  36.542  17.340  19.017  0.0656 -0.1026  0.4104
 3434DPPE   C2A63066  36.480  17.779  19.247  0.0550  0.1930  0.0068
 3434DPPE   C3A63067  36.418  18.239  19.215 -0.1476  0.0990  0.2122
 3434DPPE   C4A63068  36.583  18.541  18.941  0.0668 -0.2351  0.0177
 3434DPPE   C1B63069  37.027  17.229  19.334 -0.2990 -0.0811 -0.4280
 3434DPPE   C2B63070  37.160  17.424  19.834 -0.1902 -0.3731 -0.0405
 3434DPPE   C3B63071  36.841  17.566  20.182 -0.3455  0.0219  0.0291
 3434DPPE   C4B63072  36.761  17.992  20.382  0.3127 -0.1898 -0.2529
 3435DPPE   NH363073  33.835  21.042   6.788  0.0434  0.2082 -0.0652
 3435DPPE   PO463074  33.386  21.264   6.890 -0.2767  0.0161 -0.0428
 3435DPPE   GL163075  33.058  21.485   6.798  0.1066 -0.0760 -0.0587
 3435DPPE   GL263076  32.965  21.812   6.995 -0.0599  0.1400  0.0816
 3435DPPE   C1A63077  32.636  21.823   6.579  0.3764  0.3872 -0.0766
 3435DPPE   C2A63078  32.203  21.993   6.358 -0.1524  0.0289 -0.2686
 3435DPPE   C3A63079  31.784  21.989   6.290  0.0382 -0.1836  0.0340
 3435DPPE   C4A63080  31.428  22.074   6.671 -0.2169 -0.0632  0.2199
 3435DPPE   C1B63081  32.524  21.764   7.063  0.2482  0.0732 -0.0340
 3435DPPE   C2B63082  32.207  21.900   6.880 -0.2864  0.2601 -0.1450
 3435DPPE   C3B63083  31.784  22.135   7.005  0.3321  0.0173  0.1212
 3435DPPE   C4B63084  31.388  22.328   7.226  0.0660  0.2424  0.4585
 3436DPPE   NH363085  37.874  12.843   8.787  0.0621  0.0266  0.1394
 3436DPPE   PO463086  37.960  13.403   8.671  0.0804  0.0862 -0.1217
 3436DPPE   GL163087  38.300  13.785   8.770 -0.0463  0.0899 -0.1491
 3436DPPE   GL263088  38.687  13.734   8.735  0.1661 -0.3452  0.3844
 3436DPPE   C1A63089  38.534  14.110   9.111  0.1744 -0.1403  0.0905
 3436DPPE   C2A63090  38.803  14.305   9.142  0.2042 -0.3785 -0.1352
 3436DPPE   C3A63091  39.126  14.578   9.185 -0.1403  0.2564  0.0432
 3436DPPE   C4A63092  39.159  14.780   9.556  0.0466 -0.1633  0.1258
 3436DPPE   C1B63093  38.980  13.879   9.082  0.0867 -0.0473  0.0621
 3436DPPE   C2B63094  39.187  14.036   9.364 -0.0299  0.0101 -0.1744
 3436DPPE   C3B63095  39.396  14.375   9.587 -0.3830  0.0084  0.1897
 3436DPPE   C4B63096  39.639  14.610   9.870  0.1048 -0.2685 -0.1738
 3437DPPE   NH363097  36.021  15.851   5.147  0.1773 -0.1129 -0.4446
 3437DPPE   PO463098  36.287  15.589   5.344  0.2275 -0.0335 -0.0166
 3437DPPE   GL163099  35.922  15.338   5.283 -0.1517  0.1187 -0.3255
 3437DPPE   GL263100  35.707  15.451   5.209 -0.0986 -0.3697 -0.0167
 3437DPPE   C1A63101  35.578  15.041   5.390 -0.3077  0.1638 -0.2445
 3437DPPE   C2A63102  35.140  15.047   5.484 -0.0591  0.1278 -0.3580
 3437DPPE   C3A63103  34.782  15.202   5.435  0.1410  0.0378 -0.6143
 3437DPPE   C4A63104  34.655  15.601   5.254 -0.0600  0.0096  0.1309
 3437DPPE   C1B63105  35.460  15.229   4.963 -0.0361 -0.3022 -0.2298
 3437DPPE   C2B63106  35.342  14.791   4.885 -0.3604  0.3667 -0.1416
 3437DPPE   C3B63107  35.094  14.504   4.646  0.0026 -0.3308 -0.0511
 3437DPPE   C4B63108  34.939  14.261   4.321  0.1197  0.1593  0.0057
 3438DPPE   NH363109  37.548  17.265   4.266  0.1070 -0.2077 -0.2580
 3438DPPE   PO463110  37.641  16.876   3.990 -0.1110  0.2409  0.0093
 3438DPPE   GL163111  38.092  17.045   4.245 -0.1397  0.0896 -0.2164
 3438DPPE   GL263112  38.167  17.090   4.582  0.0800  0.0547  0.0591
 3438DPPE   C1A63113  38.325  17.432   4.277 -0.5126 -0.0455  0.3104
 3438DPPE   C2A63114  38.604  17.648   4.667  0.3151 -0.2617 -0.0803
 3438DPPE   C3A63115  38.973  17.791   4.815 -0.4271  0.1712 -0.1651
 3438DPPE   C4A63116  39.204  17.737   5.142 -0.2179  0.5120 -0.1120
 3438DPPE   C1B63117  38.370  17.250   4.930 -0.3393 -0.1575 -0.0793
 3438DPPE   C2B63118  38.602  17.541   5.233 -0.0937  0.0681  0.2680
 3438DPPE   C3B63119  38.816  17.899   5.407  0.1474 -0.0274 -0.0040
 3438DPPE   C4B63120  38.851  18.097   5.796  0.3472 -0.1240  0.1575
 3439DPPE   NH363121   3.157  10.067  10.504  0.0907 -0.0786 -0.0752
 3439DPPE   PO463122   2.721  10.168  10.434 -0.0196 -0.1476 -0.2660
 3439DPPE   GL163123   2.756   9.747  10.224  0.0990 -0.1160  0.1138
 3439DPPE   GL263124   3.125   9.696  10.027  0.4219  0.0963 -0.1631
 3439DPPE   C1A63125   2.664   9.358   9.953 -0.1232 -0.3077 -0.1524
 3439DPPE   C2A63126   2.660   8.918   9.882  0.3527 -0.0055 -0.0776
 3439DPPE   C3A63127   2.592   8.630   9.624 -0.2004  0.1951 -0.3765
 3439DPPE   C4A63128   2.609   8.444   9.321 -0.0352  0.0086 -0.2843
 3439DPPE   C1B63129   3.193   9.513  10.361  0.1696 -0.4187 -0.2654
 3439DPPE   C2B63130   3.415   9.443  10.865  0.2795 -0.0934 -0.0399
 3439DPPE   C3B63131   3.652   9.588  11.140 -0.0618 -0.0613  0.2723
 3439DPPE   C4B63132   3.978   9.806  11.121 -0.2600 -0.1648  0.0941
 3440DPPE   NH363133  35.981  15.809   5.641  0.1400  0.2630 -0.2323
 3440DPPE   PO463134  36.057  15.570   6.116  0.1632 -0.1378  0.2093
 3440DPPE   GL163135  35.753  15.116   6.153  0.1233 -0.0499 -0.0590
 3440DPPE   GL263136  35.447  15.262   6.158 -0.0861 -0.2325 -0.1761
 3440DPPE   C1A63137  35.495  14.904   5.884  0.0062  0.0823 -0.4392
 3440DPPE   C2A63138  35.138  14.665   5.969 -0.2249 -0.1296  0.0817
 3440DPPE   C3A63139  34.818  14.714   5.650 -0.0715 -0.1594 -0.3900
 3440DPPE   C4A63140  34.757  14.355   5.456  0.0814 -0.0181  0.1025
 3440DPPE   C1B63141  34.935  15.172   5.986 -0.2166 -0.0913 -0.1057
 3440DPPE   C2B63142  34.521  15.056   5.882  0.0179 -0.2018  0.1140
 3440DPPE   C3B63143  34.338  14.690   5.888  0.0063 -0.2672 -0.0005
 3440DPPE   C4B63144  34.306  14.366   5.549  0.2590 -0.2454 -0.5081
 3441DPPE   NH363145  34.184  20.344   8.163  0.0950  0.0593  0.2082
 3441DPPE   PO463146  34.673  20.372   8.229 -0.2158 -0.2256 -0.1387
 3441DPPE   GL163147  34.971  20.376   8.619  0.2378  0.0850  0.0500
 3441DPPE   GL263148  34.809  20.630   8.848  0.0338 -0.0328 -0.0343
 3441DPPE   C1A63149  35.339  20.678   8.737 -0.1919 -0.0842  0.1961
 3441DPPE   C2A63150  35.683  20.674   8.937 -0.1272 -0.0015  0.2027
 3441DPPE   C3A63151  35.945  20.881   8.973  0.1927  0.1131 -0.0867
 3441DPPE   C4A63152  36.255  21.122   8.969  0.1634  0.1276 -0.1810
 3441DPPE   C1B63153  35.108  20.628   9.179 -0.1516 -0.3365  0.0452
 3441DPPE   C2B63154  35.578  20.783   9.383 -0.0103  0.1958 -0.2574
 3441DPPE   C3B63155  36.061  21.088   9.425 -0.0691 -0.3378 -0.0229
 3441DPPE   C4B63156  36.396  20.786   9.412 -0.2740 -0.1153  0.2323
 3442DPPE   NH363157  34.404  20.658  13.918  0.1648 -0.1513  0.0015
 3442DPPE   PO463158  34.579  21.120  13.907 -0.0700  0.1287  0.0391
 3442DPPE   GL163159  34.997  21.123  13.906 -0.2311  0.1369  0.2204
 3442DPPE   GL263160  35.262  20.935  14.182 -0.0172 -0.2247  0.3035
 3442DPPE   C1A63161  35.443  21.304  13.926 -0.2994  0.0800  0.4429
 3442DPPE   C2A63162  35.681  21.722  14.005 -0.0868 -0.2321  0.0999
 3442DPPE   C3A63163  35.826  21.958  14.261 -0.3642 -0.1338 -0.0354
 3442DPPE   C4A63164  35.910  22.362  14.417 -0.0923  0.0865  0.4959
 3442DPPE   C1B63165  35.718  20.986  14.251 -0.0567  0.4213 -0.1859
 3442DPPE   C2B63166  36.021  21.290  14.163  0.0485  0.0378  0.2317
 3442DPPE   C3B63167  36.294  21.593  14.165  0.0525 -0.2115  0.1819
 3442DPPE   C4B63168  36.358  22.098  14.133 -0.1395  0.0938 -0.2866
 3443DPPE   NH363169  34.847  19.425  16.628 -0.3635  0.1054 -0.3193
 3443DPPE   PO463170  35.208  19.297  16.840  0.3063  0.0459 -0.2640
 3443DPPE   GL163171  34.880  19.661  17.115  0.1761 -0.0377  0.1757
 3443DPPE   GL263172  34.926  19.593  17.488  0.1058  0.2579  0.0880
 3443DPPE   C1A63173  34.491  19.659  17.281 -0.3848  0.3318 -0.2460
 3443DPPE   C2A63174  34.394  19.608  17.716  0.0562 -0.4090 -0.1174
 3443DPPE   C3A63175  34.108  19.452  18.105 -0.2006  0.0154  0.4654
 3443DPPE   C4A63176  34.234  19.216  18.434 -0.0882 -0.3531 -0.1737
 3443DPPE   C1B63177  34.730  20.046  17.517  0.1732  0.0536  0.1130
 3443DPPE   C2B63178  34.325  20.141  17.491 -0.0407 -0.0636  0.3301
 3443DPPE   C3B63179  33.834  20.250  17.416 -0.0536  0.1424 -0.2467
 3443DPPE   C4B63180  33.627  20.218  17.792  0.1809  0.0212 -0.0959
 3444DPPE   NH363181   0.534  14.213  18.111 -0.1677  0.1056 -0.0965
 3444DPPE   PO463182   0.765  14.638  18.010  0.4626 -0.1093 -0.0780
 3444DPPE   GL163183   1.200  14.756  17.986  0.0143 -0.3142  0.1762
 3444DPPE   GL263184   1.392  15.065  17.791  0.0658  0.0419 -0.2499
 3444DPPE   C1A63185   1.732  14.790  17.970 -0.0006  0.1493 -0.3977
 3444DPPE   C2A63186   2.166  14.861  18.134 -0.2697 -0.1326  0.1844
 3444DPPE   C3A63187   2.518  14.817  18.311  0.0724  0.1808 -0.0053
 3444DPPE   C4A63188   2.911  14.529  18.369 -0.0024  0.1314 -0.2306
 3444DPPE   C1B63189   1.878  15.237  17.720  0.5103  0.3081 -0.0150
 3444DPPE   C2B63190   2.173  15.513  17.730  0.3193 -0.1319 -0.1147
 3444DPPE   C3B63191   2.342  15.876  17.502 -0.0148 -0.0776 -0.2615
 3444DPPE   C4B63192   2.582  16.242  17.598  0.1534  0.1937  0.1015
 3445DPPE   NH363193  38.379  10.861  12.338  0.2185 -0.2980 -0.3392
 3445DPPE   PO463194  38.933  10.785  12.278 -0.2826 -0.0499 -0.0066
 3445DPPE   GL163195  38.933  10.356  12.075  0.1177  0.2359  0.7658
 3445DPPE   GL263196  38.726  10.199  11.798  0.3736 -0.1931 -0.2650
 3445DPPE   C1A63197  38.912   9.790  11.943  0.3348 -0.3209  0.1703
 3445DPPE   C2A63198  38.799   9.391  12.003 -0.2067  0.0617 -0.0811
 3445DPPE   C3A63199  38.656   9.078  12.248 -0.1375  0.2393 -0.0520
 3445DPPE   C4A63200  38.347   8.734  12.208 -0.1390 -0.0028 -0.1036
 3445DPPE   C1B63201  38.523   9.822  11.610  0.0295 -0.2859  0.0276
 3445DPPE   C2B63202  38.576   9.419  11.509 -0.0576  0.2884 -0.1109
 3445DPPE   C3B63203  38.634   9.060  11.285  0.0791  0.1149  0.1106
 3445DPPE   C4B63204  38.980   8.731  11.338  0.1477 -0.2983 -0.0794
 3446DPPE   NH363205  35.639  16.815   7.866 -0.0610 -0.1178  0.1701
 3446DPPE   PO463206  35.686  16.465   8.180  0.0881  0.2598  0.4093
 3446DPPE   GL163207  36.069  16.801   8.295  0.2556  0.0312 -0.0276
 3446DPPE   GL263208  35.967  16.976   8.608  0.0815  0.0689  0.0746
 3446DPPE   C1A63209  36.447  17.066   8.494 -0.0525  0.0349 -0.0279
 3446DPPE   C2A63210  36.826  17.218   8.575 -0.2960 -0.2727  0.1313
 3446DPPE   C3A63211  37.167  17.414   8.734  0.1576  0.3288  0.1223
 3446DPPE   C4A63212  37.368  17.822   8.735 -0.0082  0.1854  0.2079
 3446DPPE   C1B63213  36.152  17.337   8.759 -0.0571  0.0397 -0.3748
 3446DPPE   C2B63214  36.652  17.581   8.858  0.1664  0.0447 -0.0109
 3446DPPE   C3B63215  36.960  17.821   9.064 -0.3339  0.3667  0.1979
 3446DPPE   C4B63216  37.235  17.743   9.355 -0.0873 -0.2146 -0.0825
 3447DPPE   NH363217   1.073  14.010   3.832 -0.2269 -0.1739  0.0387
 3447DPPE   PO463218   1.098  13.802   3.479 -0.0049 -0.1439  0.1573
 3447DPPE   GL163219   1.191  13.851   3.011  0.1015  0.0003  0.0941
 3447DPPE   GL263220   0.916  13.794   2.751  0.2233 -0.1401  0.0252
 3447DPPE   C1A63221   1.267  13.593   2.548  0.4191 -0.0395  0.3242
 3447DPPE   C2A63222   1.007  13.452   2.180  0.0773 -0.0574  0.1506
 3447DPPE   C3A63223   0.714  13.141   2.117 -0.0402 -0.1533 -0.0202
 3447DPPE   C4A63224   0.249  13.010   2.012 -0.3455  0.1087 -0.1154
 3447DPPE   C1B63225   1.214  14.069   2.496 -0.1669 -0.1370 -0.0520
 3447DPPE   C2B63226   1.435  14.032   2.209  0.1024  0.0095 -0.1999
 3447DPPE   C3B63227   1.530  13.651   2.011  0.0178 -0.1161 -0.2456
 3447DPPE   C4B63228   1.167  13.464   1.748 -0.1808 -0.0093  0.4606
 3448DPPE   NH363229   0.634  11.806  10.827  0.3208 -0.0943  0.4009
 3448DPPE   PO463230   0.318  12.038  10.653  0.2462 -0.0216  0.4126
 3448DPPE   GL163231   0.601  12.332  10.657 -0.2601  0.0513 -0.0851
 3448DPPE   GL263232   0.772  12.391  10.351 -0.2423  0.1805  0.2681
 3448DPPE   C1A63233   0.759  12.753  10.919 -0.2750  0.0824  0.1251
 3448DPPE   C2A63234   0.948  13.159  10.972 -0.1283 -0.1443  0.3383
 3448DPPE   C3A63235   1.117  13.477  11.295  0.0832 -0.2866 -0.1337
 3448DPPE   C4A63236   1.470  13.662  11.519  0.0160 -0.2884 -0.3321
 3448DPPE   C1B63237   0.706  12.836  10.310  0.1139 -0.0072 -0.1574
 3448DPPE   C2B63238   0.677  13.252  10.410 -0.1535 -0.2628  0.1235
 3448DPPE   C3B63239   0.775  13.756  10.418 -0.0776 -0.3721  0.1897
 3448DPPE   C4B63240   0.965  14.114  10.333  0.1701 -0.2391  0.4007
 3449DPPE   NH363241   1.350  13.575  15.422  0.1418 -0.0659  0.1803
 3449DPPE   PO463242   1.289  13.582  15.041 -0.1123  0.1262 -0.1981
 3449DPPE   GL163243   1.553  13.764  14.774 -0.1503 -0.2213 -0.1753
 3449DPPE   GL263244   1.806  13.556  14.886 -0.1227 -0.0161 -0.0214
 3449DPPE   C1A63245   1.631  14.061  14.381  0.1817  0.2323  0.0738
 3449DPPE   C2A63246   1.766  14.085  14.013 -0.1024  0.2016  0.2756
 3449DPPE   C3A63247   1.993  14.444  13.893  0.0718  0.2119  0.4441
 3449DPPE   C4A63248   2.482  14.477  13.807  0.2208 -0.0191  0.2315
 3449DPPE   C1B63249   1.905  13.996  14.974  0.0216 -0.1884 -0.3269
 3449DPPE   C2B63250   2.308  14.231  14.997 -0.1841 -0.1375 -0.2222
 3449DPPE   C3B63251   2.690  14.303  15.193 -0.2323 -0.0614 -0.0764
 3449DPPE   C4B63252   3.038  14.099  15.347 -0.0797 -0.4058 -0.3576
 3450DPPE   NH363253   1.591  11.606   5.011  0.0621  0.1642 -0.0052
 3450DPPE   PO463254   1.581  11.802   4.615 -0.2192 -0.0977 -0.1906
 3450DPPE   GL163255   1.642  11.526   4.284  0.0675 -0.1527 -0.1325
 3450DPPE   GL263256   1.890  11.465   4.137 -0.0672  0.0370  0.1035
 3450DPPE   C1A63257   1.456  11.310   3.986 -0.4240 -0.2327 -0.0374
 3450DPPE   C2A63258   1.400  11.105   3.670 -0.1282  0.0643  0.0186
 3450DPPE   C3A63259   1.505  10.865   3.294 -0.0121 -0.0793  0.2138
 3450DPPE   C4A63260   1.903  10.790   3.203  0.2783  0.0090 -0.2601
 3450DPPE   C1B63261   2.142  11.141   4.145 -0.0376 -0.0613 -0.0934
 3450DPPE   C2B63262   2.557  10.878   4.311  0.0690 -0.1238 -0.0584
 3450DPPE   C3B63263   2.823  10.840   4.694  0.0141  0.3266  0.2352
 3450DPPE   C4B63264   2.948  10.914   5.110 -0.2595  0.2348  0.1015
 3451DPPE   NH363265  33.758  19.318  15.333  0.1102 -0.0689 -0.0070
 3451DPPE   PO463266  33.622  19.317  14.980  0.0843 -0.1228  0.1836
 3451DPPE   GL163267  33.224  19.220  14.945 -0.3427  0.0933  0.0904
 3451DPPE   GL263268  33.267  18.876  14.854 -0.2409  0.0980  0.0931
 3451DPPE   C1A63269  32.843  19.283  15.195 -0.1188  0.3101 -0.1094
 3451DPPE   C2A63270  32.476  19.237  15.501 -0.0269 -0.2477 -0.0207
 3451DPPE   C3A63271  32.055  19.167  15.733  0.0918 -0.0628  0.2520
 3451DPPE   C4A63272  31.940  18.978  16.197 -0.0865 -0.3380 -0.0998
 3451DPPE   C1B63273  32.867  18.809  14.942 -0.1876  0.3104 -0.1370
 3451DPPE   C2B63274  32.462  18.857  15.078  0.1583  0.0958  0.1789
 3451DPPE   C3B63275  32.087  18.614  15.111  0.0082  0.2324  0.1409
 3451DPPE   C4B63276  31.785  18.599  14.826  0.2343 -0.0235 -0.0647
 3452DPPE   NH363277  34.118  19.088  16.091  0.0091  0.2092 -0.2330
 3452DPPE   PO463278  33.984  18.981  15.724  0.0378  0.0361 -0.2424
 3452DPPE   GL163279  33.602  19.015  15.765 -0.0722 -0.1497  0.0089
 3452DPPE   GL263280  33.559  19.143  16.065  0.3445  0.2757 -0.1345
 3452DPPE   C1A63281  33.301  18.766  15.857 -0.1395  0.1359  0.3167
 3452DPPE   C2A63282  32.887  18.769  15.939 -0.1379  0.0707 -0.1427
 3452DPPE   C3A63283  32.806  18.734  16.413  0.0810 -0.3632  0.1926
 3452DPPE   C4A63284  32.533  18.438  16.766  0.0313 -0.0077  0.3239
 3452DPPE   C1B63285  33.079  19.176  16.248 -0.3197 -0.0631 -0.1473
 3452DPPE   C2B63286  32.848  19.281  16.560  0.2563 -0.1918  0.1463
 3452DPPE   C3B63287  32.434  19.414  16.359  0.1591  0.1612 -0.1588
 3452DPPE   C4B63288  32.097  19.515  16.087 -0.0855 -0.1728 -0.0963
 3453DPPE   NH363289  34.351  20.797   5.675 -0.2676  0.1190  0.0741
 3453DPPE   PO463290  33.955  20.873   5.794 -0.1378 -0.0053 -0.2376
 3453DPPE   GL163291  33.735  21.172   5.622  0.0023  0.1118 -0.3310
 3453DPPE   GL263292  33.877  21.341   5.357 -0.0267 -0.0768  0.0917
 3453DPPE   C1A63293  33.409  21.467   5.433  0.0233 -0.1017 -0.0520
 3453DPPE   C2A63294  33.170  21.608   5.104  0.0871  0.1905 -0.1971
 3453DPPE   C3A63295  32.794  21.649   4.783  0.2238 -0.3845  0.1987
 3453DPPE   C4A63296  32.463  21.803   4.816  0.0387  0.1396  0.0161
 3453DPPE   C1B63297  33.655  21.351   4.946 -0.1398  0.0248 -0.1157
 3453DPPE   C2B63298  33.662  21.652   4.727 -0.3836  0.0984  0.1323
 3453DPPE   C3B63299  33.415  21.977   4.689  0.4453  0.0352 -0.0182
 3453DPPE   C4B63300  33.216  22.337   4.413 -0.1023 -0.0484 -0.0968
 3454DPPE   NH363301  33.750  17.800  10.600 -0.0390  0.1148 -0.0644
 3454DPPE   PO463302  33.642  17.881  11.014  0.2773  0.0079  0.0323
 3454DPPE   GL163303  33.253  17.884  10.690  0.0533 -0.2270  0.0892
 3454DPPE   GL263304  33.173  18.269  10.608 -0.2926  0.2804 -0.0901
 3454DPPE   C1A63305  32.926  17.711  10.416  0.2407 -0.0612  0.0549
 3454DPPE   C2A63306  32.599  17.643  10.143  0.1480  0.1160  0.5092
 3454DPPE   C3A63307  32.434  17.309   9.921 -0.1137  0.0790 -0.2033
 3454DPPE   C4A63308  32.229  17.101   9.641  0.5207 -0.2559  0.0941
 3454DPPE   C1B63309  32.742  18.053  10.811  0.0036 -0.1113 -0.0389
 3454DPPE   C2B63310  32.518  17.666  10.707  0.1035 -0.2377  0.1111
 3454DPPE   C3B63311  32.104  17.530  10.387  0.1463 -0.1664 -0.0448
 3454DPPE   C4B63312  31.920  17.428   9.998 -0.0386 -0.0004  0.0309
 3455DPPE   NH363313  34.695  18.535   4.638 -0.2033 -0.2795 -0.1242
 3455DPPE   PO463314  34.373  18.705   5.013 -0.0282  0.1064  0.0221
 3455DPPE   GL163315  34.067  18.596   5.218  0.0447  0.2763 -0.3253
 3455DPPE   GL263316  34.174  18.295   5.376  0.3941 -0.0276 -0.2949
 3455DPPE   C1A63317  33.751  18.471   5.176 -0.0941 -0.0088  0.1515
 3455DPPE   C2A63318  33.534  18.341   4.902 -0.4886  0.1975 -0.1955
 3455DPPE   C3A63319  33.154  18.332   4.971 -0.0399 -0.2251 -0.1173
 3455DPPE   C4A63320  32.703  18.321   4.993 -0.0456 -0.1621  0.1908
 3455DPPE   C1B63321  33.948  17.992   5.070  0.1457 -0.0659  0.3339
 3455DPPE   C2B63322  33.590  17.780   5.036 -0.0465  0.3330 -0.0794
 3455DPPE   C3B63323  33.302  17.801   4.744 -0.3176  0.2546 -0.3927
 3455DPPE   C4B63324  32.907  17.964   4.756 -0.1731 -0.0120 -0.3847
 3456DPPE   NH363325  33.447  19.702  10.956  0.0938  0.2901  0.4132
 3456DPPE   PO463326  33.107  19.944  10.750  0.1772 -0.0113 -0.3083
 3456DPPE   GL163327  32.781  20.097  10.836  0.3447  0.1182 -0.2329
 3456DPPE   GL263328  32.628  20.227  10.599  0.2162  0.0050  0.2446
 3456DPPE   C1A63329  32.446  19.922  10.974 -0.3045  0.1770  0.2544
 3456DPPE   C2A63330  32.116  19.618  10.961 -0.0684 -0.3850  0.0283
 3456DPPE   C3A63331  31.641  19.739  11.001  0.1616  0.2085  0.0235
 3456DPPE   C4A63332  31.134  19.650  11.027 -0.4739  0.0784 -0.0568
 3456DPPE   C1B63333  32.219  20.244  10.647  0.3010 -0.0302 -0.3370
 3456DPPE   C2B63334  31.703  20.315  10.732  0.0399 -0.4420  0.0434
 3456DPPE   C3B63335  31.317  20.199  10.840 -0.1656 -0.1942  0.0265
 3456DPPE   C4B63336  30.992  20.251  11.138 -0.1698 -0.1738  0.0252
 3457DPPE   NH363337  35.133  18.723   4.186 -0.1601 -0.0291  0.0663
 3457DPPE   PO463338  35.184  19.057   3.992  0.0140 -0.0382 -0.2162
 3457DPPE   GL163339  34.911  18.948   3.702 -0.0990  0.1409 -0.0221
 3457DPPE   GL263340  35.029  19.240   3.542 -0.0160  0.0273 -0.2483
 3457DPPE   C1A63341  34.603  18.658   3.516 -0.0006 -0.0380  0.3743
 3457DPPE   C2A63342  34.287  18.685   3.217 -0.2957  0.2257  0.1960
 3457DPPE   C3A63343  34.110  18.626   2.802 -0.1296  0.2249  0.1382
 3457DPPE   C4A63344  33.766  18.880   2.593 -0.2503 -0.0695 -0.2738
 3457DPPE   C1B63345  34.619  19.113   3.309 -0.0065 -0.1201 -0.4320
 3457DPPE   C2B63346  34.536  19.034   2.938 -0.0550 -0.1140 -0.2042
 3457DPPE   C3B63347  34.206  19.148   2.922  0.2695 -0.1353  0.0343
 3457DPPE   C4B63348  33.760  19.151   3.009  0.0231  0.0735 -0.2012
 3458DPPE   NH363349  35.876  15.397  10.983 -0.0839  0.1789  0.2384
 3458DPPE   PO463350  36.078  15.005  11.072  0.1166 -0.2262  0.2804
 3458DPPE   GL163351  36.414  14.924  10.851  0.1535 -0.3850  0.0809
 3458DPPE   GL263352  36.403  14.929  10.505  0.0169  0.2099 -0.0483
 3458DPPE   C1A63353  36.815  14.754  10.776 -0.2708  0.0105 -0.1529
 3458DPPE   C2A63354  37.226  14.895  10.563  0.0906 -0.3190 -0.2082
 3458DPPE   C3A63355  37.532  14.986  10.388  0.0875  0.0590  0.2493
 3458DPPE   C4A63356  37.975  15.172  10.205  0.0830 -0.3632  0.1681
 3458DPPE   C1B63357  36.833  14.791  10.284 -0.2326 -0.4024 -0.0348
 3458DPPE   C2B63358  37.171  14.708  10.069  0.0046  0.1752  0.2314
 3458DPPE   C3B63359  37.536  14.889   9.879  0.0426  0.0725  0.2782
 3458DPPE   C4B63360  37.779  15.205   9.763  0.0274  0.2178 -0.2508
 3459DPPE   NH363361  33.295  20.852  11.995  0.0635 -0.0052  0.0667
 3459DPPE   PO463362  32.947  20.719  11.906 -0.2917 -0.0672  0.1233
 3459DPPE   GL163363  32.557  20.659  12.049  0.3221 -0.2043  0.0042
 3459DPPE   GL263364  32.360  20.927  12.243 -0.0302 -0.0099 -0.2101
 3459DPPE   C1A63365  32.220  20.381  12.166 -0.0364 -0.3112  0.0168
 3459DPPE   C2A63366  31.707  20.290  12.219 -0.4920  0.0769 -0.1369
 3459DPPE   C3A63367  31.342  20.103  12.355 -0.2323 -0.1324 -0.0197
 3459DPPE   C4A63368  31.005  19.875  12.358  0.3293 -0.0823  0.2221
 3459DPPE   C1B63369  31.962  21.203  12.359 -0.0301 -0.1820  0.0955
 3459DPPE   C2B63370  31.656  21.502  12.429  0.2423  0.4606  0.0219
 3459DPPE   C3B63371  31.461  21.816  12.403 -0.0485  0.0667  0.4634
 3459DPPE   C4B63372  31.029  21.765  12.326  0.1717 -0.2071 -0.0418
 3460DPPE   NH363373  34.388  18.235   7.666  0.0829 -0.4292  0.0299
 3460DPPE   PO463374  34.135  18.360   7.991 -0.2341  0.0132  0.0747
 3460DPPE   GL163375  33.926  17.950   7.946  0.1350  0.1152  0.0635
 3460DPPE   GL263376  33.653  17.853   8.073  0.0906 -0.0546  0.2813
 3460DPPE   C1A63377  33.861  17.566   7.693 -0.0116  0.1813  0.2474
 3460DPPE   C2A63378  33.527  17.331   7.593  0.1729  0.0033 -0.0816
 3460DPPE   C3A63379  33.203  17.269   7.351 -0.0615 -0.0555  0.1461
 3460DPPE   C4A63380  32.811  17.295   7.090  0.1048  0.1144 -0.3269
 3460DPPE   C1B63381  33.246  17.843   7.883 -0.1289  0.0985 -0.0555
 3460DPPE   C2B63382  32.748  17.886   7.875  0.0213 -0.3792  0.2244
 3460DPPE   C3B63383  32.309  17.897   7.956  0.1631 -0.2143 -0.3014
 3460DPPE   C4B63384  32.008  17.570   7.814 -0.3940 -0.0955  0.1275
 3461DPPE   NH363385  36.070  15.067  12.108 -0.2730 -0.0503 -0.0069
 3461DPPE   PO463386  35.924  15.346  11.840  0.3059  0.1836 -0.0312
 3461DPPE   GL163387  36.308  15.584  11.926  0.3649  0.1325  0.2772
 3461DPPE   GL263388  36.295  15.888  11.875  0.1248 -0.1321  0.2127
 3461DPPE   C1A63389  36.718  15.729  12.062 -0.2260 -0.0331  0.2005
 3461DPPE   C2A63390  37.112  16.006  12.111 -0.0812  0.0217 -0.2115
 3461DPPE   C3A63391  37.257  16.201  12.538  0.0101 -0.1121 -0.0801
 3461DPPE   C4A63392  37.470  16.484  12.750 -0.2707  0.1983 -0.0641
 3461DPPE   C1B63393  36.634  16.248  11.873  0.1176  0.2271 -0.0195
 3461DPPE   C2B63394  36.952  16.450  11.827  0.0285 -0.0290  0.0633
 3461DPPE   C3B63395  37.390  16.660  11.919 -0.0256  0.3348  0.1265
 3461DPPE   C4B63396  37.833  16.497  11.668  0.3088 -0.0108 -0.0193
 3462DPPE   NH363397   2.191  12.560   4.872 -0.4283 -0.0142  0.2961
 3462DPPE   PO463398   2.100  12.812   5.233  0.0344 -0.3223  0.0345
 3462DPPE   GL163399   2.453  12.776   5.323 -0.2050 -0.0285 -0.2600
 3462DPPE   GL263400   2.509  12.519   5.228  0.1452 -0.0282  0.1339
 3462DPPE   C1A63401   2.894  12.820   5.372  0.0629  0.1112  0.0377
 3462DPPE   C2A63402   3.227  12.829   5.779  0.0821 -0.0735 -0.0813
 3462DPPE   C3A63403   3.659  12.697   5.913 -0.3249  0.1781 -0.2422
 3462DPPE   C4A63404   3.830  12.307   5.976  0.0124 -0.1498  0.0292
 3462DPPE   C1B63405   2.894  12.488   4.997  0.2064 -0.2055 -0.0656
 3462DPPE   C2B63406   3.314  12.362   4.819  0.1064 -0.0699 -0.0631
 3462DPPE   C3B63407   3.742  12.331   4.573  0.1080 -0.2019 -0.1708
 3462DPPE   C4B63408   4.251  12.432   4.505  0.0308  0.2660 -0.2187
 3463DPPE   NH363409  38.376  13.710  14.335  0.0741  0.2152  0.0303
 3463DPPE   PO463410  38.057  14.026  14.144 -0.1294 -0.3600  0.2503
 3463DPPE   GL163411  38.235  14.279  13.902  0.0253  0.1832 -0.3224
 3463DPPE   GL263412  38.166  14.551  13.734  0.0385 -0.1699  0.0501
 3463DPPE   C1A63413  38.651  14.320  13.573  0.0989 -0.1960  0.0748
 3463DPPE   C2A63414  38.849  14.693  13.465 -0.1089 -0.1552 -0.3013
 3463DPPE   C3A63415  39.065  14.998  13.467 -0.1516  0.0576 -0.1129
 3463DPPE   C4A63416  39.370  15.423  13.706  0.1831 -0.0861 -0.0906
 3463DPPE   C1B63417  38.462  14.875  13.723  0.0668  0.2579  0.0998
 3463DPPE   C2B63418  38.734  15.265  13.725  0.3823 -0.0513 -0.1550
 3463DPPE   C3B63419  38.875  15.466  13.437  0.0779  0.2745  0.0636
 3463DPPE   C4B63420  39.145  15.751  13.361  0.3157 -0.0081  0.2369
 3464DPPE   NH363421  34.313  18.200   6.332 -0.0399 -0.2034  0.1479
 3464DPPE   PO463422  34.553  17.982   6.599  0.3032  0.0589 -0.1030
 3464DPPE   GL163423  34.254  17.675   6.357 -0.4752 -0.3657 -0.0717
 3464DPPE   GL263424  34.153  17.770   6.109  0.0580 -0.3930  0.1767
 3464DPPE   C1A63425  33.969  17.352   6.145 -0.0076  0.1525 -0.0690
 3464DPPE   C2A63426  33.740  17.207   5.878 -0.0341 -0.3138 -0.2093
 3464DPPE   C3A63427  33.387  17.101   5.772 -0.2245 -0.1558 -0.1278
 3464DPPE   C4A63428  32.957  16.990   5.940 -0.1074  0.1620 -0.0547
 3464DPPE   C1B63429  33.737  17.714   5.904  0.0370  0.0266  0.4823
 3464DPPE   C2B63430  33.399  17.626   6.082  0.0269  0.0309  0.0434
 3464DPPE   C3B63431  32.948  17.460   6.184 -0.1776 -0.0863  0.0159
 3464DPPE   C4B63432  32.556  17.294   5.950  0.4909 -0.2985  0.0819
 3465DPPE   NH363433  36.407  16.854   6.309 -0.0326 -0.0405  0.0401
 3465DPPE   PO463434  36.295  17.035   6.720 -0.1537  0.0563 -0.1321
 3465DPPE   GL163435  36.577  17.160   6.987 -0.2243 -0.1938 -0.0664
 3465DPPE   GL263436  36.870  17.100   7.093 -0.4096 -0.0636 -0.1331
 3465DPPE   C1A63437  36.611  17.350   7.409  0.2386 -0.1632 -0.1468
 3465DPPE   C2A63438  36.958  17.568   7.607  0.1461 -0.2500 -0.1065
 3465DPPE   C3A63439  37.413  17.569   7.729  0.4014  0.1747  0.0486
 3465DPPE   C4A63440  37.736  17.590   7.975  0.0594 -0.0444  0.1269
 3465DPPE   C1B63441  37.226  17.272   7.383 -0.0451 -0.2292  0.1115
 3465DPPE   C2B63442  37.564  17.148   7.457  0.0673  0.2641 -0.2398
 3465DPPE   C3B63443  37.816  16.934   7.664 -0.0166 -0.4244  0.0169
 3465DPPE   C4B63444  38.188  17.102   7.840  0.2708 -0.0876  0.0549
 3466DPPE   NH363445  34.107  17.370   9.142 -0.4293 -0.1660 -0.1147
 3466DPPE   PO463446  33.923  17.304   8.752 -0.1127  0.3465 -0.1632
 3466DPPE   GL163447  33.652  17.119   8.719 -0.0595  0.0453  0.0397
 3466DPPE   GL263448  33.382  17.352   8.594 -0.3040  0.2757  0.3079
 3466DPPE   C1A63449  33.319  16.845   8.565 -0.3665  0.0165  0.0492
 3466DPPE   C2A63450  33.000  16.685   8.288 -0.3564 -0.1856 -0.0694
 3466DPPE   C3A63451  33.107  16.389   8.014  0.3342  0.4835  0.4885
 3466DPPE   C4A63452  32.942  16.438   7.578 -0.1837 -0.0399  0.1136
 3466DPPE   C1B63453  33.020  17.209   8.365 -0.3664  0.0110  0.3013
 3466DPPE   C2B63454  32.684  17.006   8.163 -0.0982 -0.0618 -0.0251
 3466DPPE   C3B63455  32.370  16.740   8.166  0.0883  0.0330  0.1570
 3466DPPE   C4B63456  31.891  16.764   7.984 -0.1414  0.2199 -0.0186
 3467DPPE   NH363457  35.279  18.842  15.513 -0.0037  0.0023  0.1931
 3467DPPE   PO463458  35.145  18.708  15.121  0.4069  0.1335 -0.0632
 3467DPPE   GL163459  35.524  18.751  14.830 -0.4079 -0.2949 -0.3789
 3467DPPE   GL263460  35.511  19.068  14.832  0.2672 -0.0514 -0.1062
 3467DPPE   C1A63461  35.714  18.911  14.340 -0.0513  0.1669  0.1132
 3467DPPE   C2A63462  36.040  19.085  14.308 -0.0298 -0.0703  0.0210
 3467DPPE   C3A63463  36.534  18.954  14.196 -0.0737 -0.0548 -0.1096
 3467DPPE   C4A63464  36.894  18.800  13.929 -0.2121  0.2622  0.0360
 3467DPPE   C1B63465  35.965  18.974  14.806 -0.1272  0.1758  0.0320
 3467DPPE   C2B63466  36.454  19.032  14.673 -0.2615  0.0365 -0.1407
 3467DPPE   C3B63467  36.873  18.878  14.530 -0.3753  0.4093 -0.1688
 3467DPPE   C4B63468  37.305  18.770  14.277 -0.2922 -0.3118  0.1956
 3468DPPE   NH363469  35.520  17.900  17.726 -0.0856  0.1330  0.2222
 3468DPPE   PO463470  35.526  18.269  17.645 -0.0492 -0.0382 -0.3095
 3468DPPE   GL163471  35.632  18.747  17.912 -0.1785 -0.0327  0.1316
 3468DPPE   GL263472  35.890  18.816  17.990  0.0867 -0.1556 -0.1149
 3468DPPE   C1A63473  35.536  18.954  18.267 -0.0672  0.2303 -0.3886
 3468DPPE   C2A63474  35.310  19.149  18.553  0.0376  0.1790  0.0324
 3468DPPE   C3A63475  35.301  18.946  19.086 -0.1652  0.0005  0.1958
 3468DPPE   C4A63476  35.229  18.775  19.449 -0.0448 -0.2185 -0.1404
 3468DPPE   C1B63477  36.023  19.078  18.362  0.0425 -0.2444  0.2194
 3468DPPE   C2B63478  36.294  19.053  18.700  0.1952  0.1514 -0.0633
 3468DPPE   C3B63479  36.757  19.210  18.704  0.0083  0.1229  0.0601
 3468DPPE   C4B63480  37.093  19.473  19.018 -0.1830  0.1852  0.4371
 3469DPPE   NH363481  36.104  13.395  11.197 -0.0203  0.0631  0.2419
 3469DPPE   PO463482  36.580  13.525  11.084  0.4278 -0.1823 -0.2419
 3469DPPE   GL163483  36.834  13.694  10.953  0.2013  0.3562 -0.0635
 3469DPPE   GL263484  36.938  14.052  10.973  0.2382  0.1076 -0.2595
 3469DPPE   C1A63485  37.083  13.808  10.557 -0.0372  0.0332 -0.1788
 3469DPPE   C2A63486  37.435  13.764  10.242 -0.2248 -0.1606 -0.3284
 3469DPPE   C3A63487  37.642  13.871   9.868 -0.1467  0.2269  0.3005
 3469DPPE   C4A63488  37.958  14.009   9.600 -0.1234 -0.0924  0.2170
 3469DPPE   C1B63489  37.446  14.005  10.859 -0.3326 -0.3931  0.3175
 3469DPPE   C2B63490  37.811  14.215  10.742  0.1248 -0.0866  0.0806
 3469DPPE   C3B63491  38.173  14.363  10.533 -0.2806  0.3075 -0.2500
 3469DPPE   C4B63492  38.318  14.042  10.416 -0.0250 -0.0296  0.0119
 3470DPPE   NH363493   0.912  14.079  15.025  0.1162 -0.2288 -0.0790
 3470DPPE   PO463494   0.914  13.994  15.424 -0.0268 -0.2112  0.1678
 3470DPPE   GL163495   1.358  14.144  15.447  0.0251 -0.0333 -0.2843
 3470DPPE   GL263496   1.428  14.122  15.119 -0.0408 -0.0290 -0.0917
 3470DPPE   C1A63497   1.827  14.102  15.454  0.0427 -0.1236 -0.2005
 3470DPPE   C2A63498   2.245  14.257  15.561  0.1454 -0.1049 -0.1287
 3470DPPE   C3A63499   2.521  14.564  15.682  0.1160  0.2586 -0.0420
 3470DPPE   C4A63500   2.890  14.626  15.974  0.2903  0.0590  0.3632
 3470DPPE   C1B63501   1.724  14.426  15.124  0.6472  0.1927 -0.2382
 3470DPPE   C2B63502   1.902  14.474  14.765 -0.0922  0.3992 -0.1815
 3470DPPE   C3B63503   2.133  14.239  14.388  0.0897 -0.0684  0.3338
 3470DPPE   C4B63504   2.515  14.049  14.088  0.1770 -0.1054  0.2393
 3471DPPE   NH363505  34.342  22.931   8.781 -0.0476  0.0451  0.1312
 3471DPPE   PO463506  34.370  22.618   8.458 -0.3060 -0.0500  0.0258
 3471DPPE   GL163507  34.696  22.548   8.753  0.0378 -0.0392  0.1165
 3471DPPE   GL263508  34.720  22.432   8.997  0.2347  0.2186  0.3822
 3471DPPE   C1A63509  35.129  22.620   8.683 -0.2008 -0.0815  0.0536
 3471DPPE   C2A63510  35.554  22.653   8.951 -0.0127 -0.1126  0.0890
 3471DPPE   C3A63511  35.916  23.031   9.108 -0.1259  0.1649  0.1072
 3471DPPE   C4A63512  36.236  23.359   9.122 -0.1346 -0.1335  0.1266
 3471DPPE   C1B63513  34.996  22.470   9.267 -0.3642  0.0199  0.0582
 3471DPPE   C2B63514  35.367  22.396   9.403 -0.0780 -0.2309 -0.3130
 3471DPPE   C3B63515  35.764  22.385   9.450 -0.0853  0.0751 -0.2447
 3471DPPE   C4B63516  35.876  22.438   9.821  0.3300  0.0893  0.2988
 3472DPPE   NH363517  35.740  16.376   4.917 -0.0202  0.3621  0.1630
 3472DPPE   PO463518  36.156  16.257   4.886  0.0653  0.0246 -0.0812
 3472DPPE   GL163519  35.837  15.996   4.637 -0.0163  0.1415  0.0627
 3472DPPE   GL263520  35.868  15.602   4.770  0.0146 -0.0405  0.0142
 3472DPPE   C1A63521  35.607  15.830   4.172 -0.0559  0.1321 -0.1064
 3472DPPE   C2A63522  35.282  15.850   3.751  0.0991  0.2374 -0.0186
 3472DPPE   C3A63523  34.902  15.710   3.653  0.4551 -0.1958 -0.0409
 3472DPPE   C4A63524  34.485  15.390   3.802 -0.0324 -0.0187  0.0142
 3472DPPE   C1B63525  35.671  15.307   4.523  0.1707 -0.2635  0.0090
 3472DPPE   C2B63526  35.557  14.915   4.306  0.2137 -0.0227 -0.0374
 3472DPPE   C3B63527  35.464  14.511   4.071  0.0351 -0.1305  0.0396
 3472DPPE   C4B63528  35.048  14.533   3.845 -0.2057  0.2976  0.2516
 3473DPPE   NH363529  36.271  16.342  14.666  0.1735  0.2937  0.1735
 3473DPPE   PO463530  35.915  16.638  14.750  0.0295 -0.0817  0.2109
 3473DPPE   GL163531  36.118  17.055  14.608  0.4112  0.3686  0.0929
 3473DPPE   GL263532  36.264  17.067  14.905 -0.3053  0.0297 -0.0039
 3473DPPE   C1A63533  36.306  17.365  14.288  0.4381 -0.2088  0.0034
 3473DPPE   C2A63534  36.066  17.519  14.005 -0.0646  0.0552 -0.0851
 3473DPPE   C3A63535  36.220  17.576  13.520  0.0259  0.0937  0.0587
 3473DPPE   C4A63536  36.549  17.735  13.406  0.0212 -0.1200  0.1763
 3473DPPE   C1B63537  36.422  17.468  14.763 -0.1866  0.0469 -0.4737
 3473DPPE   C2B63538  36.618  17.720  14.428 -0.0123 -0.1444  0.0568
 3473DPPE   C3B63539  36.950  17.944  14.147 -0.1078 -0.1714 -0.1333
 3473DPPE   C4B63540  37.182  18.273  13.902  0.0473  0.3128  0.1882
 3474DPPE   NH363541  37.385  17.370   2.637 -0.0171 -0.0188 -0.0918
 3474DPPE   PO463542  37.644  17.009   2.493  0.0964 -0.3097  0.0889
 3474DPPE   GL163543  37.894  17.065   2.130 -0.1349  0.1607 -0.1172
 3474DPPE   GL263544  38.289  17.063   2.134 -0.1447 -0.0075  0.0337
 3474DPPE   C1A63545  38.057  17.379   1.893  0.0620  0.0870  0.3059
 3474DPPE   C2A63546  38.378  17.283   1.684 -0.1498 -0.1376 -0.0116
 3474DPPE   C3A63547  38.746  17.023   1.801 -0.1391 -0.0441  0.2177
 3474DPPE   C4A63548  39.127  16.871   1.941 -0.0780  0.0291 -0.2738
 3474DPPE   C1B63549  38.363  16.737   1.851  0.3754  0.2528 -0.0415
 3474DPPE   C2B63550  38.577  16.729   1.437  0.1603  0.0298  0.0222
 3474DPPE   C3B63551  39.053  16.750   1.431  0.0839  0.0069  0.3309
 3474DPPE   C4B63552  39.464  16.841   1.246 -0.0643 -0.2514  0.0149
 3475DPPE   NH363553  35.438  21.909   4.946  0.0594  0.1275 -0.0241
 3475DPPE   PO463554  35.604  22.214   5.190  0.1139 -0.0697  0.0876
 3475DPPE   GL163555  35.812  22.343   4.881  0.1832 -0.0408 -0.1223
 3475DPPE   GL263556  35.478  22.333   4.624 -0.0609 -0.0613 -0.3861
 3475DPPE   C1A63557  36.209  22.232   4.712 -0.0714  0.2159 -0.1407
 3475DPPE   C2A63558  36.602  22.352   4.708 -0.1502 -0.1383  0.1185
 3475DPPE   C3A63559  37.057  22.261   4.620  0.3827  0.1299 -0.1599
 3475DPPE   C4A63560  37.469  22.570   4.442  0.3167 -0.1679  0.3644
 3475DPPE   C1B63561  35.371  22.367   4.193 -0.1037  0.0663  0.2574
 3475DPPE   C2B63562  35.266  22.702   3.982 -0.0088  0.0574  0.2113
 3475DPPE   C3B63563  35.404  23.112   3.811 -0.2150  0.2354  0.1140
 3475DPPE   C4B63564  35.555  23.531   3.569 -0.0104  0.1339 -0.2303
 3476DPPE   NH363565  38.093  17.809   2.916  0.1094 -0.0451  0.1906
 3476DPPE   PO463566  37.866  17.494   2.532  0.0626  0.0561  0.2626
 3476DPPE   GL163567  37.589  17.439   2.186 -0.1740  0.3571  0.1076
 3476DPPE   GL263568  37.218  17.365   2.117 -0.1276 -0.0907  0.0644
 3476DPPE   C1A63569  37.513  17.182   1.803  0.0802 -0.0479  0.0323
 3476DPPE   C2A63570  37.214  17.114   1.459  0.3615  0.0617  0.1173
 3476DPPE   C3A63571  36.832  17.051   1.291 -0.1357  0.1658 -0.2566
 3476DPPE   C4A63572  36.576  16.929   0.913  0.0625  0.0566  0.0597
 3476DPPE   C1B63573  36.901  17.431   1.783  0.2303  0.3893  0.0611
 3476DPPE   C2B63574  36.655  17.770   1.609 -0.1949  0.0340  0.1564
 3476DPPE   C3B63575  36.227  17.890   1.636 -0.0621 -0.1403 -0.1889
 3476DPPE   C4B63576  35.834  18.048   1.369  0.0451  0.0988 -0.0069
 3477DPPE   NH363577  37.171  17.309  16.812  0.1107 -0.0877  0.1634
 3477DPPE   PO463578  37.052  17.229  17.283  0.0591 -0.2779  0.3340
 3477DPPE   GL163579  37.394  17.572  17.311  0.3051 -0.0131  0.1963
 3477DPPE   GL263580  37.455  17.663  17.015 -0.2827 -0.3075  0.0544
 3477DPPE   C1A63581  37.724  17.738  17.446  0.2075 -0.1185 -0.2366
 3477DPPE   C2A63582  37.970  17.875  17.873 -0.0844  0.0404 -0.1683
 3477DPPE   C3A63583  38.099  18.206  17.964 -0.2291 -0.0325 -0.0648
 3477DPPE   C4A63584  38.361  18.436  18.021  0.0018  0.1629  0.2823
 3477DPPE   C1B63585  37.863  17.766  16.956 -0.0597  0.2239 -0.0102
 3477DPPE   C2B63586  38.364  17.796  16.933  0.0823 -0.2771 -0.1356
 3477DPPE   C3B63587  38.789  17.919  16.663  0.1291 -0.1582  0.1140
 3477DPPE   C4B63588  39.202  17.893  16.573 -0.1523  0.0552 -0.0763
 3478DPPE   NH363589  34.153  17.558  10.744 -0.4160  0.0205  0.0517
 3478DPPE   PO463590  34.335  17.731  10.401  0.0629  0.1035 -0.1372
 3478DPPE   GL163591  34.685  17.939  10.342  0.1068  0.0949  0.3206
 3478DPPE   GL263592  34.807  17.985   9.983  0.2777  0.3560  0.1312
 3478DPPE   C1A63593  35.151  18.086  10.353 -0.3402 -0.0053 -0.0933
 3478DPPE   C2A63594  35.624  18.072  10.373  0.1169  0.2414  0.1296
 3478DPPE   C3A63595  36.014  18.160  10.361  0.2088  0.1364 -0.0710
 3478DPPE   C4A63596  36.332  18.345  10.240 -0.3810 -0.0116 -0.2605
 3478DPPE   C1B63597  35.203  18.110   9.874 -0.1493 -0.0136  0.0567
 3478DPPE   C2B63598  35.573  18.345   9.715  0.2264 -0.0254 -0.1924
 3478DPPE   C3B63599  35.773  18.554  10.225  0.0216  0.1943  0.1011
 3478DPPE   C4B63600  35.993  18.646  10.553 -0.1963  0.1506 -0.2440
 3479DPPE   NH363601   1.731  11.702  14.409 -0.1840  0.3024  0.0665
 3479DPPE   PO463602   1.938  11.971  14.742 -0.4016  0.2815 -0.2226
 3479DPPE   GL163603   2.046  11.759  15.161  0.2968  0.1061  0.0881
 3479DPPE   GL263604   2.265  11.948  15.224  0.5087 -0.0204 -0.1964
 3479DPPE   C1A63605   2.148  11.429  15.537  0.1941 -0.3176  0.0044
 3479DPPE   C2A63606   2.473  11.129  15.586  0.1727 -0.1324  0.0717
 3479DPPE   C3A63607   2.680  10.769  15.545 -0.0360 -0.2572 -0.1984
 3479DPPE   C4A63608   2.996  10.503  15.583 -0.0422  0.1971  0.2636
 3479DPPE   C1B63609   2.540  11.661  15.405  0.3636  0.0647 -0.0746
 3479DPPE   C2B63610   2.790  11.617  15.742  0.0100 -0.0632  0.1635
 3479DPPE   C3B63611   3.189  11.323  15.848 -0.2888 -0.0607  0.1774
 3479DPPE   C4B63612   3.592  11.336  15.966  0.1354 -0.2981 -0.0339
 3480DPPE   NH363613  38.060  12.050   8.854  0.2410  0.0405 -0.0847
 3480DPPE   PO463614  38.199  11.592   8.844  0.3715 -0.0227  0.1569
 3480DPPE   GL163615  37.948  11.301   8.776 -0.3120  0.0331 -0.1155
 3480DPPE   GL263616  38.118  10.976   8.620 -0.3947 -0.0439 -0.3686
 3480DPPE   C1A63617  37.733  10.917   8.933  0.0695  0.1834 -0.1214
 3480DPPE   C2A63618  37.373  10.609   8.881 -0.2110 -0.0499 -0.3351
 3480DPPE   C3A63619  37.200  10.180   8.753  0.2931  0.2447 -0.0264
 3480DPPE   C4A63620  37.013  10.003   8.402  0.0885 -0.2311 -0.3256
 3480DPPE   C1B63621  37.878  10.553   8.638 -0.0350  0.1167 -0.0956
 3480DPPE   C2B63622  37.697  10.017   8.611 -0.1518  0.1975  0.1607
 3480DPPE   C3B63623  37.456   9.708   8.435  0.1062  0.2985  0.0755
 3480DPPE   C4B63624  37.229   9.287   8.510  0.1112  0.1014  0.0752
 3481DPPE   NH363625  37.249  13.014   9.288  0.1777 -0.2154 -0.1085
 3481DPPE   PO463626  36.958  13.190   9.659 -0.2228  0.1236  0.0433
 3481DPPE   GL163627  36.727  12.908   9.326  0.0136 -0.0892  0.0037
 3481DPPE   GL263628  36.935  12.661   9.111 -0.1905  0.0686 -0.2092
 3481DPPE   C1A63629  36.470  12.501   9.382  0.0045  0.2159  0.2945
 3481DPPE   C2A63630  36.207  12.172   9.278 -0.0238  0.1939  0.2031
 3481DPPE   C3A63631  35.977  12.034   8.902  0.1734 -0.0155 -0.0287
 3481DPPE   C4A63632  35.867  11.671   8.940 -0.1261  0.1963  0.1765
 3481DPPE   C1B63633  36.545  12.333   8.903 -0.3347  0.0917  0.2142
 3481DPPE   C2B63634  36.347  12.036   8.567 -0.1823 -0.1967  0.1067
 3481DPPE   C3B63635  36.119  11.873   8.445  0.2995  0.1251  0.2098
 3481DPPE   C4B63636  35.750  11.717   8.442 -0.1490 -0.0289  0.0377
 3482DPPE   NH363637   2.119  11.152  13.609 -0.1647  0.0989 -0.0242
 3482DPPE   PO463638   1.963  10.957  13.947  0.1303  0.3440  0.0262
 3482DPPE   GL163639   2.121  10.634  13.892 -0.2122  0.3839 -0.0471
 3482DPPE   GL263640   2.328  10.539  14.185 -0.3010 -0.0848  0.2533
 3482DPPE   C1A63641   2.097  10.289  13.748  0.2412  0.0894  0.3908
 3482DPPE   C2A63642   2.198   9.875  13.657 -0.0952 -0.3007 -0.2141
 3482DPPE   C3A63643   2.386   9.557  13.853  0.1113 -0.2944 -0.2691
 3482DPPE   C4A63644   2.397   9.543  14.336  0.0387 -0.4196 -0.1941
 3482DPPE   C1B63645   2.483  10.084  14.102  0.0340 -0.1054 -0.1629
 3482DPPE   C2B63646   2.704   9.909  13.712  0.0035  0.0842  0.0306
 3482DPPE   C3B63647   2.917   9.730  13.527  0.1497  0.0133 -0.0154
 3482DPPE   C4B63648   3.289   9.442  13.482  0.0013  0.1216  0.2825
 3483DPPE   NH363649  33.192  22.658   9.330 -0.1982  0.1414 -0.1625
 3483DPPE   PO463650  33.240  22.574   9.818 -0.0193 -0.0589  0.2694
 3483DPPE   GL163651  32.857  22.879   9.677 -0.0217 -0.0887 -0.1924
 3483DPPE   GL263652  32.729  22.892   9.331 -0.0551 -0.2097  0.0555
 3483DPPE   C1A63653  32.609  23.152   9.925  0.0794 -0.4640 -0.1240
 3483DPPE   C2A63654  32.621  23.573   9.949 -0.0435  0.0249  0.1246
 3483DPPE   C3A63655  32.662  23.925  10.195 -0.1442 -0.0070 -0.0545
 3483DPPE   C4A63656  32.716  24.281  10.045 -0.2565  0.3620 -0.2760
 3483DPPE   C1B63657  32.350  23.089   9.265 -0.0546  0.2284  0.0275
 3483DPPE   C2B63658  32.079  23.317   9.108 -0.3515  0.0793 -0.2579
 3483DPPE   C3B63659  32.039  23.737   8.989  0.2086  0.1448 -0.1629
 3483DPPE   C4B63660  32.219  24.063   8.790 -0.4010  0.0307  0.1817
 3484DPPE   NH363661   3.400  10.288   9.211 -0.1264 -0.0133  0.1761
 3484DPPE   PO463662   3.147  10.525   9.635 -0.2915 -0.3045 -0.1309
 3484DPPE   GL163663   3.699  10.507   9.587  0.1253 -0.1477  0.2118
 3484DPPE   GL263664   3.772  10.701   9.289 -0.2812  0.0023  0.3364
 3484DPPE   C1A63665   4.081  10.421   9.575  0.2354  0.1768  0.0663
 3484DPPE   C2A63666   4.518  10.480   9.647  0.4668  0.0295  0.1606
 3484DPPE   C3A63667   4.878  10.774   9.839 -0.2703 -0.4446  0.0854
 3484DPPE   C4A63668   5.075  11.172  10.051 -0.1733  0.0598  0.0486
 3484DPPE   C1B63669   3.854  11.076   9.403  0.1565 -0.0718 -0.2188
 3484DPPE   C2B63670   4.069  11.471   9.301 -0.1775 -0.1068 -0.0157
 3484DPPE   C3B63671   4.188  11.929   9.325 -0.2084 -0.0210 -0.0486
 3484DPPE   C4B63672   3.989  12.198   9.594  0.0429 -0.3277 -0.3129
 3485DPPE   NH363673   0.367  14.850  15.518  0.1178  0.0547 -0.1084
 3485DPPE   PO463674   0.416  14.849  15.920  0.0238 -0.5276  0.0421
 3485DPPE   GL163675   0.358  15.262  15.914 -0.2318  0.1791  0.2474
 3485DPPE   GL263676   0.155  15.293  15.758  0.2191 -0.0647  0.1249
 3485DPPE   C1A63677   0.475  15.705  15.913  0.1329 -0.0307  0.1475
 3485DPPE   C2A63678   0.757  15.887  16.079 -0.4323  0.2397 -0.1500
 3485DPPE   C3A63679   0.990  16.263  16.129  0.1198  0.2622 -0.0780
 3485DPPE   C4A63680   1.140  16.655  16.265 -0.0766 -0.3357 -0.2912
 3485DPPE   C1B63681   0.447  15.439  15.410  0.0953 -0.0598  0.0799
 3485DPPE   C2B63682   0.412  15.706  14.986 -0.1794  0.0801 -0.1310
 3485DPPE   C3B63683   0.348  16.026  14.680 -0.1654  0.0472 -0.1437
 3485DPPE   C4B63684   0.361  16.564  14.720 -0.2255  0.2700  0.0342
 3486DPPE   NH363685  37.201  13.178  14.769  0.1403 -0.2982  0.2963
 3486DPPE   PO463686  37.286  12.675  14.943 -0.1461  0.0784  0.3266
 3486DPPE   GL163687  37.276  12.292  14.872  0.0655 -0.1095  0.0805
 3486DPPE   GL263688  37.184  12.263  15.230 -0.1243 -0.1397  0.0083
 3486DPPE   C1A63689  37.124  11.840  14.923  0.1581  0.0211  0.0086
 3486DPPE   C2A63690  36.853  11.440  14.941 -0.0162  0.3194 -0.2531
 3486DPPE   C3A63691  36.754  11.073  14.724 -0.0928 -0.1037  0.0266
 3486DPPE   C4A63692  36.450  10.788  14.568  0.0744 -0.0763 -0.1039
 3486DPPE   C1B63693  36.850  12.197  15.480 -0.0304  0.2047 -0.2245
 3486DPPE   C2B63694  36.891  11.763  15.540 -0.0225  0.2528  0.0344
 3486DPPE   C3B63695  36.734  11.339  15.468  0.0814  0.0088 -0.2356
 3486DPPE   C4B63696  36.550  11.061  15.189  0.0089  0.1398 -0.2185
 3487DPPE   NH363697   2.049  13.523  15.757  0.1343 -0.0703 -0.0150
 3487DPPE   PO463698   2.282  13.184  15.615 -0.3620  0.0389  0.2088
 3487DPPE   GL163699   2.681  13.045  15.914  0.1570 -0.2223 -0.0555
 3487DPPE   GL263700   2.559  12.906  16.295 -0.1674 -0.2455 -0.1030
 3487DPPE   C1A63701   3.029  12.866  16.060  0.3808  0.0882 -0.3098
 3487DPPE   C2A63702   3.467  12.829  16.193  0.0371  0.0914  0.2015
 3487DPPE   C3A63703   3.954  12.790  16.077  0.0664 -0.0795 -0.0147
 3487DPPE   C4A63704   4.328  12.913  16.204 -0.0106  0.1579  0.1050
 3487DPPE   C1B63705   2.736  12.504  16.220  0.1517 -0.0092 -0.1617
 3487DPPE   C2B63706   3.012  12.136  16.074 -0.0965  0.3622 -0.0261
 3487DPPE   C3B63707   3.418  12.118  16.401  0.1027  0.0211  0.1293
 3487DPPE   C4B63708   3.702  12.011  16.548 -0.0611  0.0053  0.1497
 3488DPPE   NH363709  34.269  16.583  13.195  0.0112 -0.0161 -0.0751
 3488DPPE   PO463710  34.551  16.228  13.221 -0.1460  0.0532  0.0497
 3488DPPE   GL163711  34.098  16.107  13.245  0.1119 -0.1030 -0.1263
 3488DPPE   GL263712  34.095  15.741  13.303  0.0278  0.4098 -0.2187
 3488DPPE   C1A63713  33.612  16.005  13.277 -0.0395  0.0646  0.2024
 3488DPPE   C2A63714  33.206  16.002  13.495  0.0163  0.3458 -0.0074
 3488DPPE   C3A63715  32.851  15.974  13.645  0.0532  0.2225 -0.0931
 3488DPPE   C4A63716  32.569  16.167  13.834  0.0118  0.0055  0.2364
 3488DPPE   C1B63717  33.928  15.399  13.432 -0.0149  0.0346 -0.0385
 3488DPPE   C2B63718  33.536  15.050  13.471 -0.1149  0.0982 -0.0706
 3488DPPE   C3B63719  33.264  14.682  13.528 -0.3824 -0.0274  0.0911
 3488DPPE   C4B63720  32.870  14.547  13.403 -0.1696  0.1285  0.1029
 3489DPPE   NH363721  34.572  23.063   7.133  0.0417 -0.1321 -0.2113
 3489DPPE   PO463722  34.697  23.560   6.915  0.0171  0.0260  0.2420
 3489DPPE   GL163723  34.702  24.021   6.774 -0.1537 -0.1572 -0.1117
 3489DPPE   GL263724  34.344  24.157   6.994  0.1037 -0.1325  0.3028
 3489DPPE   C1A63725  34.972  24.309   6.723  0.1662 -0.0286 -0.1367
 3489DPPE   C2A63726  35.113  24.601   6.863  0.0928 -0.2617  0.1244
 3489DPPE   C3A63727  34.846  24.962   6.969  0.0703  0.0142 -0.0630
 3489DPPE   C4A63728  34.495  24.914   7.303  0.4400  0.0444  0.1587
 3489DPPE   C1B63729  34.540  24.556   6.826 -0.2459 -0.0069 -0.1359
 3489DPPE   C2B63730  34.297  24.951   6.866  0.2252  0.0407  0.0451
 3489DPPE   C3B63731  34.381  25.323   6.989  0.2351 -0.3175  0.2370
 3489DPPE   C4B63732  34.085  25.742   6.749  0.0503  0.0023 -0.0619
 3490DPPE   NH363733  36.170  14.547  15.310 -0.0962  0.0492  0.1506
 3490DPPE   PO463734  36.476  14.465  14.965 -0.1218  0.1861  0.0527
 3490DPPE   GL163735  36.145  14.091  14.960  0.0960 -0.1839  0.1380
 3490DPPE   GL263736  36.086  14.031  14.610  0.1280  0.1927 -0.2347
 3490DPPE   C1A63737  35.868  14.014  15.191  0.0909  0.4019 -0.0073
 3490DPPE   C2A63738  35.627  13.707  15.396  0.1600 -0.0492 -0.0866
 3490DPPE   C3A63739  35.297  13.456  15.530 -0.1193 -0.0939  0.3473
 3490DPPE   C4A63740  35.072  13.140  15.631  0.2473  0.0525  0.1243
 3490DPPE   C1B63741  35.877  13.631  14.790  0.1028  0.1150  0.5070
 3490DPPE   C2B63742  35.603  13.349  15.045 -0.3756  0.0058 -0.1645
 3490DPPE   C3B63743  35.345  13.073  15.162  0.3744  0.1266  0.1643
 3490DPPE   C4B63744  35.089  12.747  15.276  0.1568 -0.0903 -0.2439
 3491DPPE   NH363745  34.390  17.853   8.067  0.3352  0.0038 -0.1093
 3491DPPE   PO463746  34.210  17.577   8.245 -0.1635  0.1495 -0.0681
 3491DPPE   GL163747  33.853  17.395   8.237 -0.4277  0.3061 -0.1031
 3491DPPE   GL263748  33.664  17.088   8.262 -0.3568  0.1462  0.1338
 3491DPPE   C1A63749  33.418  17.423   8.051 -0.0729 -0.0177 -0.3827
 3491DPPE   C2A63750  32.981  17.425   7.892 -0.3211 -0.2151 -0.1556
 3491DPPE   C3A63751  32.790  17.201   7.701  0.0176  0.3085  0.0583
 3491DPPE   C4A63752  32.628  16.862   7.664  0.2475  0.0244 -0.1024
 3491DPPE   C1B63753  33.309  16.941   8.025  0.0965 -0.1829 -0.1909
 3491DPPE   C2B63754  33.136  16.860   7.694  0.2284 -0.2207 -0.1714
 3491DPPE   C3B63755  32.989  16.816   7.200  0.1630  0.0141  0.0552
 3491DPPE   C4B63756  32.642  16.793   6.995  0.0737  0.0818 -0.4738
 3492DPPE   NH363757  38.360  16.781   3.042  0.2694 -0.0941 -0.0926
 3492DPPE   PO463758  38.562  16.923   3.389  0.2233 -0.2572  0.2935
 3492DPPE   GL163759  38.872  16.961   3.677 -0.2363 -0.2041 -0.2737
 3492DPPE   GL263760  38.909  16.812   3.954  0.1818 -0.0801 -0.0726
 3492DPPE   C1A63761  39.173  17.283   3.807 -0.0301  0.2116  0.3808
 3492DPPE   C2A63762  39.267  17.648   3.635 -0.0704  0.2335  0.1783
 3492DPPE   C3A63763  39.142  17.926   3.344 -0.0171 -0.1484 -0.0388
 3492DPPE   C4A63764  39.045  18.132   3.083 -0.2323  0.1745  0.2833
 3492DPPE   C1B63765  39.375  16.794   3.962  0.1937 -0.1858  0.0868
 3492DPPE   C2B63766  39.827  16.849   3.778  0.0251 -0.1663  0.1331
 3492DPPE   C3B63767  40.249  17.155   3.818  0.0086 -0.1782 -0.1200
 3492DPPE   C4B63768  40.574  17.438   3.702  0.1288  0.1883 -0.2319
 3493DPPE   NH363769   0.187  12.614   5.674  0.1175 -0.0102  0.1549
 3493DPPE   PO463770   0.347  12.300   5.313  0.0369  0.1446 -0.3130
 3493DPPE   GL163771   0.442  11.964   5.127  0.0289 -0.2665  0.2818
 3493DPPE   GL263772   0.712  11.738   5.166 -0.2302 -0.1664  0.1829
 3493DPPE   C1A63773   0.361  11.608   4.853  0.2304 -0.2277 -0.0122
 3493DPPE   C2A63774   0.446  11.530   4.442 -0.2561 -0.0290  0.4073
 3493DPPE   C3A63775   0.047  11.433   4.141 -0.4615 -0.0956  0.0107
 3493DPPE   C4A63776  -0.115  11.603   3.706  0.2127  0.0028  0.2897
 3493DPPE   C1B63777   0.393  11.429   5.295  0.1047  0.0206  0.1314
 3493DPPE   C2B63778   0.060  11.113   5.148 -0.0040 -0.1544  0.4085
 3493DPPE   C3B63779  -0.098  10.863   4.848 -0.1354 -0.0207  0.0460
 3493DPPE   C4B63780  -0.178  10.586   4.597  0.0932  0.2175 -0.1003
 3494DPPE   NH363781   1.678  10.257   8.907  0.1828 -0.1865 -0.1656
 3494DPPE   PO463782   1.493  10.430   8.562 -0.1583 -0.1001  0.0686
 3494DPPE   GL163783   1.262  10.081   8.608  0.0414  0.1106 -0.0903
 3494DPPE   GL263784   0.974  10.105   8.456 -0.2039  0.1277 -0.0204
 3494DPPE   C1A63785   1.334   9.597   8.761 -0.1975 -0.0143  0.3032
 3494DPPE   C2A63786   1.315   9.136   8.824  0.1733 -0.2803  0.0892
 3494DPPE   C3A63787   1.575   8.869   9.105  0.1915  0.3557 -0.5471
 3494DPPE   C4A63788   1.501   8.479   9.110 -0.0415  0.1864 -0.0717
 3494DPPE   C1B63789   1.023   9.663   8.349 -0.1540  0.2294  0.0031
 3494DPPE   C2B63790   0.947   9.251   8.535 -0.0374 -0.3252 -0.2009
 3494DPPE   C3B63791   0.770   8.797   8.524 -0.2284 -0.1952  0.2066
 3494DPPE   C4B63792   1.076   8.443   8.375  0.5377  0.2076 -0.1788
 3495DPPE   NH363793  38.061  14.437  14.455  0.1336  0.2134 -0.0241
 3495DPPE   PO463794  37.820  14.743  14.688 -0.4234  0.4034  0.0777
 3495DPPE   GL163795  38.229  14.874  14.703 -0.0909  0.2263 -0.1248
 3495DPPE   GL263796  38.109  15.149  14.568  0.3405  0.2811  0.1512
 3495DPPE   C1A63797  38.706  14.799  14.577  0.0734  0.1442  0.0856
 3495DPPE   C2A63798  38.996  14.998  14.522  0.0240 -0.0219 -0.3298
 3495DPPE   C3A63799  39.278  15.280  14.329  0.0117  0.3245 -0.2891
 3495DPPE   C4A63800  39.697  15.587  14.126  0.2197 -0.0764 -0.0496
 3495DPPE   C1B63801  38.457  15.184  14.346  0.2199 -0.1960 -0.1765
 3495DPPE   C2B63802  38.777  15.429  14.338  0.4237 -0.0130  0.0442
 3495DPPE   C3B63803  39.010  15.771  14.357 -0.0256 -0.0198 -0.0908
 3495DPPE   C4B63804  39.074  16.276  14.443 -0.3785  0.0248  0.1358
 3496DPPE   NH363805   1.320  14.435   3.935  0.1183 -0.1017  0.1271
 3496DPPE   PO463806   1.035  14.445   3.568 -0.0167  0.3389  0.0603
 3496DPPE   GL163807   1.433  14.661   3.470  0.4367 -0.0240  0.1499
 3496DPPE   GL263808   1.694  14.655   3.659  0.0162 -0.3020 -0.1446
 3496DPPE   C1A63809   1.794  14.705   3.173 -0.0330 -0.1831 -0.1926
 3496DPPE   C2A63810   2.085  14.641   2.947 -0.0477 -0.0999  0.2378
 3496DPPE   C3A63811   2.135  14.374   2.692 -0.2966 -0.0566 -0.0815
 3496DPPE   C4A63812   2.517  14.061   2.706  0.0670  0.0952  0.1264
 3496DPPE   C1B63813   2.107  14.486   3.529 -0.0962  0.0356  0.1906
 3496DPPE   C2B63814   2.456  14.335   3.121 -0.0577 -0.0920 -0.2907
 3496DPPE   C3B63815   2.673  14.545   2.736  0.0136 -0.1949 -0.0315
 3496DPPE   C4B63816   3.148  14.618   2.690 -0.2662 -0.2078 -0.4778
 3497DPPE   NH363817  35.444  22.177   6.428 -0.2318 -0.2214  0.2185
 3497DPPE   PO463818  35.396  22.066   5.983  0.0212 -0.1804 -0.1693
 3497DPPE   GL163819  35.837  22.182   6.120 -0.3631 -0.2259 -0.0027
 3497DPPE   GL263820  36.112  22.422   5.987 -0.0314  0.0220 -0.2710
 3497DPPE   C1A63821  36.281  21.933   5.933  0.1442  0.0935  0.3719
 3497DPPE   C2A63822  36.760  21.914   5.979 -0.1403  0.2374 -0.2392
 3497DPPE   C3A63823  37.137  21.809   6.299  0.5525  0.1188  0.0743
 3497DPPE   C4A63824  37.490  21.816   6.331  0.2687  0.1147  0.0080
 3497DPPE   C1B63825  36.416  22.540   5.736  0.2080 -0.0463 -0.0218
 3497DPPE   C2B63826  36.614  22.905   5.923  0.1229 -0.1238 -0.2170
 3497DPPE   C3B63827  36.910  23.216   6.058  0.2115 -0.0098  0.0032
 3497DPPE   C4B63828  37.064  23.476   6.507  0.0851  0.0085  0.0965
 3498DPPE   NH363829  32.733  21.960  10.948 -0.0753 -0.2714  0.0605
 3498DPPE   PO463830  32.980  21.597  10.779  0.2612  0.2428 -0.0579
 3498DPPE   GL163831  32.565  21.582  10.687 -0.1162 -0.4080  0.3835
 3498DPPE   GL263832  32.383  21.646  10.439  0.1018  0.1529  0.2431
 3498DPPE   C1A63833  32.094  21.645  10.871 -0.0060  0.0381 -0.0843
 3498DPPE   C2A63834  31.876  21.770  11.179 -0.1148  0.0763  0.2211
 3498DPPE   C3A63835  31.507  21.755  11.460  0.1313  0.0825  0.0778
 3498DPPE   C4A63836  31.064  21.741  11.524  0.0482 -0.0133 -0.2599
 3498DPPE   C1B63837  31.965  21.681  10.291 -0.0786 -0.0053 -0.1441
 3498DPPE   C2B63838  31.549  21.776  10.244  0.3449 -0.0488  0.1520
 3498DPPE   C3B63839  31.174  21.858  10.047  0.2962  0.0419  0.0290
 3498DPPE   C4B63840  31.033  22.123   9.675 -0.2097 -0.2125 -0.2114
 3499DPPE   NH363841  36.971  12.072  11.570  0.2369 -0.0473  0.0405
 3499DPPE   PO463842  37.065  12.193  11.183  0.0257  0.0970 -0.0891
 3499DPPE   GL163843  36.965  11.856  10.903  0.3324 -0.2046 -0.0231
 3499DPPE   GL263844  37.164  11.578  10.882 -0.0126 -0.2515  0.0208
 3499DPPE   C1A63845  36.566  11.601  10.890  0.0781  0.0699  0.6234
 3499DPPE   C2A63846  36.414  11.150  10.761  0.2820  0.3950  0.1707
 3499DPPE   C3A63847  36.232  10.791  10.592  0.1198  0.3176 -0.2549
 3499DPPE   C4A63848  35.909  10.439  10.746  0.0758  0.1611 -0.0142
 3499DPPE   C1B63849  36.951  11.400  10.557 -0.1869 -0.0414 -0.3452
 3499DPPE   C2B63850  36.651  11.189  10.299 -0.0759  0.0635  0.2210
 3499DPPE   C3B63851  36.569  11.096   9.917  0.4420  0.0150  0.1065
 3499DPPE   C4B63852  36.193  11.200   9.700 -0.3798 -0.1125 -0.0790
 3500DPPE   NH363853  34.291  19.325  14.902  0.1215  0.0939  0.0691
 3500DPPE   PO463854  34.681  19.488  14.700  0.1296 -0.0289  0.1897
 3500DPPE   GL163855  35.028  19.431  14.425 -0.0163  0.2205  0.0505
 3500DPPE   GL263856  35.018  19.665  14.287 -0.0010 -0.0433  0.2902
 3500DPPE   C1A63857  35.572  19.404  14.399  0.1036 -0.1781 -0.2418
 3500DPPE   C2A63858  35.921  19.694  14.280 -0.0689  0.2202 -0.3854
 3500DPPE   C3A63859  36.044  20.011  13.996  0.0554  0.1511 -0.0703
 3500DPPE   C4A63860  36.257  20.423  13.867  0.0264  0.2689  0.0687
 3500DPPE   C1B63861  35.333  19.899  14.062  0.1865 -0.1280  0.0384
 3500DPPE   C2B63862  35.638  20.102  13.739 -0.0646 -0.0702 -0.3220
 3500DPPE   C3B63863  36.006  20.271  13.506  0.0808  0.2076  0.4041
 3500DPPE   C4B63864  36.335  20.156  13.207 -0.3526  0.0085 -0.3488
 3501DPPE   NH363865  35.723  17.535   4.141 -0.2347  0.0104 -0.2747
 3501DPPE   PO463866  35.586  17.500   4.494 -0.1012  0.0743  0.1679
 3501DPPE   GL163867  35.446  17.106   4.485  0.1499  0.1761  0.1735
 3501DPPE   GL263868  35.594  17.009   4.243 -0.1326  0.0649 -0.3124
 3501DPPE   C1A63869  35.152  16.822   4.430 -0.1334  0.0075  0.0468
 3501DPPE   C2A63870  34.931  16.693   4.086 -0.2198 -0.2014 -0.0526
 3501DPPE   C3A63871  34.631  16.837   3.919  0.2978 -0.3973  0.1650
 3501DPPE   C4A63872  34.241  16.791   3.676 -0.0966  0.1051  0.1588
 3501DPPE   C1B63873  35.387  16.866   3.860  0.1487  0.3450  0.0984
 3501DPPE   C2B63874  35.018  16.765   3.626 -0.2442  0.5787 -0.0072
 3501DPPE   C3B63875  34.682  16.614   3.452 -0.1370  0.2128 -0.1993
 3501DPPE   C4B63876  34.417  16.740   3.222  0.1715 -0.1873  0.1609
 3502DPPE   NH363877  35.549  20.871   4.966 -0.2044 -0.0467 -0.2724
 3502DPPE   PO463878  35.978  20.908   4.981 -0.1362  0.2803  0.2183
 3502DPPE   GL163879  36.360  21.055   4.863 -0.0266 -0.0531 -0.0668
 3502DPPE   GL263880  36.300  21.318   4.726  0.3788  0.0200 -0.5079
 3502DPPE   C1A63881  36.771  21.030   4.866  0.0196  0.1981  0.2721
 3502DPPE   C2A63882  37.160  21.100   4.770 -0.3443 -0.1402 -0.0439
 3502DPPE   C3A63883  37.499  21.304   4.958  0.0471 -0.1813 -0.0105
 3502DPPE   C4A63884  37.428  21.538   5.392 -0.1101 -0.3015  0.3662
 3502DPPE   C1B63885  36.256  21.695   4.424 -0.2311 -0.2531 -0.0736
 3502DPPE   C2B63886  36.350  22.176   4.240  0.3728  0.0320 -0.1464
 3502DPPE   C3B63887  36.634  22.304   4.089 -0.0019  0.0990  0.2727
 3502DPPE   C4B63888  37.083  22.179   4.084 -0.4665  0.1444  0.1834
 3503DPPE   NH363889   0.541  13.562  14.306  0.1022 -0.1879 -0.0492
 3503DPPE   PO463890   0.588  13.877  14.609 -0.1111 -0.0380 -0.2563
 3503DPPE   GL163891   0.835  14.249  14.513 -0.0030  0.1079  0.1052
 3503DPPE   GL263892   0.738  14.503  14.824 -0.0785  0.3481 -0.1732
 3503DPPE   C1A63893   0.899  14.675  14.340  0.0919 -0.1551  0.1507
 3503DPPE   C2A63894   1.274  14.947  14.498  0.1641  0.0899 -0.0105
 3503DPPE   C3A63895   1.436  14.674  14.687  0.0005 -0.0864  0.0316
 3503DPPE   C4A63896   1.298  14.349  14.623 -0.1023  0.2597 -0.0446
 3503DPPE   C1B63897   0.964  14.889  14.836 -0.1902  0.3577  0.0987
 3503DPPE   C2B63898   1.324  15.137  14.961  0.1503 -0.3387  0.1283
 3503DPPE   C3B63899   1.591  15.326  14.696  0.1981  0.1049  0.0558
 3503DPPE   C4B63900   1.741  15.398  14.245  0.1243  0.1451 -0.0774
 3504DPPE   NH363901  37.635  12.040  12.978 -0.2652 -0.1424 -0.2361
 3504DPPE   PO463902  37.742  11.719  12.951  0.0276  0.0388 -0.2916
 3504DPPE   GL163903  37.404  11.598  12.898 -0.0430 -0.0693 -0.0028
 3504DPPE   GL263904  37.378  11.402  12.679 -0.2307  0.1134  0.0420
 3504DPPE   C1A63905  37.008  11.737  13.004  0.0377  0.1991  0.2653
 3504DPPE   C2A63906  36.561  11.667  13.175  0.2374  0.1038  0.0956
 3504DPPE   C3A63907  36.215  11.481  13.360 -0.3387  0.2015  0.0586
 3504DPPE   C4A63908  35.834  11.282  13.621 -0.1275  0.0381 -0.1243
 3504DPPE   C1B63909  37.061  11.134  12.794 -0.0617 -0.1713  0.1652
 3504DPPE   C2B63910  36.621  10.995  12.744 -0.0155 -0.1475  0.1260
 3504DPPE   C3B63911  36.321  10.646  12.794  0.1492  0.0766 -0.0452
 3504DPPE   C4B63912  36.237  10.445  13.167  0.1580 -0.2501  0.3872
 3505DPPE   NH363913   1.514  10.605  11.257 -0.2085 -0.0969  0.2076
 3505DPPE   PO463914   1.409  10.321  10.810  0.3789  0.0990  0.1942
 3505DPPE   GL163915   1.300   9.990  10.761  0.0876  0.0422  0.2364
 3505DPPE   GL263916   1.399   9.778  10.458  0.0995  0.0047 -0.0034
 3505DPPE   C1A63917   0.940   9.614  10.656 -0.1416 -0.2095  0.0686
 3505DPPE   C2A63918   0.661   9.324  10.514 -0.2993 -0.0605 -0.1884
 3505DPPE   C3A63919   0.495   8.923  10.333 -0.2665 -0.2081  0.0938
 3505DPPE   C4A63920   0.313   8.569  10.330 -0.0790 -0.1621  0.0033
 3505DPPE   C1B63921   1.386   9.322  10.639 -0.0471  0.0049 -0.4931
 3505DPPE   C2B63922   1.094   9.130  10.691  0.1845  0.0322  0.0885
 3505DPPE   C3B63923   1.007   8.784  10.415 -0.2144 -0.0661  0.0503
 3505DPPE   C4B63924   1.260   8.374  10.261 -0.3700 -0.0307  0.0002
 3506DPPE   NH363925  35.623  19.544  16.687 -0.0970 -0.2899 -0.0188
 3506DPPE   PO463926  35.922  19.840  16.473  0.1553 -0.2498  0.0406
 3506DPPE   GL163927  36.024  20.189  16.622  0.2228  0.0324 -0.1741
 3506DPPE   GL263928  35.831  20.408  16.605 -0.0106 -0.1518  0.2881
 3506DPPE   C1A63929  36.362  20.509  16.812  0.0978 -0.3127  0.1786
 3506DPPE   C2A63930  36.186  20.704  17.075 -0.1617  0.0453  0.2879
 3506DPPE   C3A63931  35.917  21.014  17.256  0.1553 -0.4541 -0.0850
 3506DPPE   C4A63932  36.055  21.269  17.622  0.2651 -0.0212  0.1417
 3506DPPE   C1B63933  35.638  20.750  16.833  0.1179  0.1992  0.4200
 3506DPPE   C2B63934  35.315  20.796  17.105  0.2553 -0.1253 -0.2837
 3506DPPE   C3B63935  35.072  20.904  17.370  0.1456 -0.0582 -0.0607
 3506DPPE   C4B63936  34.895  21.197  17.479 -0.3343 -0.0943  0.3557
 3507DPPE   NH363937  36.866  18.143  17.671  0.0578  0.0727  0.2320
 3507DPPE   PO463938  36.435  18.161  17.742 -0.2061 -0.1457  0.0577
 3507DPPE   GL163939  36.498  18.213  18.251 -0.0130  0.1180 -0.0144
 3507DPPE   GL263940  36.295  18.466  18.216 -0.0294 -0.0092  0.1919
 3507DPPE   C1A63941  36.911  18.265  18.557 -0.0219  0.1064  0.1075
 3507DPPE   C2A63942  37.272  18.406  18.749  0.1791  0.0096 -0.1375
 3507DPPE   C3A63943  37.621  18.401  18.721  0.0482  0.1785 -0.1751
 3507DPPE   C4A63944  37.819  18.732  18.792 -0.0270 -0.1166  0.1709
 3507DPPE   C1B63945  36.629  18.678  18.454  0.4428 -0.1124 -0.3107
 3507DPPE   C2B63946  36.967  18.761  18.679 -0.3087  0.0929 -0.1939
 3507DPPE   C3B63947  37.016  18.684  19.206  0.2603 -0.1574 -0.2026
 3507DPPE   C4B63948  36.861  18.886  19.573 -0.0485 -0.0833 -0.0062
 3508DPPE   NH363949   2.908  10.142   9.971 -0.0738 -0.1160  0.1807
 3508DPPE   PO463950   2.821   9.968   9.598 -0.2359  0.0678 -0.2182
 3508DPPE   GL163951   2.947   9.494   9.452 -0.1226  0.0384 -0.0018
 3508DPPE   GL263952   2.961   9.361   9.157 -0.2841 -0.1015 -0.1904
 3508DPPE   C1A63953   3.075   8.968   9.395 -0.2544 -0.0872  0.4226
 3508DPPE   C2A63954   2.905   8.723   9.046  0.1905  0.0036  0.1311
 3508DPPE   C3A63955   2.799   8.713   8.545  0.0459 -0.1995 -0.2104
 3508DPPE   C4A63956   2.663   8.808   8.131  0.2248  0.2116 -0.1540
 3508DPPE   C1B63957   2.787   9.247   8.798 -0.1079  0.0567  0.0121
 3508DPPE   C2B63958   2.754   9.262   8.369 -0.1539  0.0743 -0.1140
 3508DPPE   C3B63959   2.655   9.684   8.039  0.0167 -0.1143  0.3450
 3508DPPE   C4B63960   2.506   9.572   7.654 -0.0045  0.2382  0.0835
 3509DPPE   NH363961   2.274  10.462   6.938 -0.1350 -0.0842 -0.1275
 3509DPPE   PO463962   2.284  10.494   7.416 -0.0304  0.0653 -0.0078
 3509DPPE   GL163963   2.346  10.069   7.269 -0.1648 -0.0357 -0.1049
 3509DPPE   GL263964   2.502   9.931   6.952  0.0579  0.1765 -0.0927
 3509DPPE   C1A63965   2.087   9.696   7.300 -0.1414  0.1679 -0.0489
 3509DPPE   C2A63966   2.107   9.250   7.165 -0.0049  0.5917  0.1416
 3509DPPE   C3A63967   1.726   9.053   7.038 -0.3111 -0.1417  0.1601
 3509DPPE   C4A63968   1.677   8.905   6.633 -0.0812 -0.1001  0.1083
 3509DPPE   C1B63969   2.871  10.086   7.110 -0.2335 -0.1285 -0.1048
 3509DPPE   C2B63970   3.196  10.369   7.362  0.2203 -0.0371  0.1597
 3509DPPE   C3B63971   3.572  10.513   7.122  0.3698 -0.1220 -0.1347
 3509DPPE   C4B63972   3.899  10.314   6.752 -0.0428 -0.4448 -0.0634
 3510DPPE   NH363973  34.746  20.919   7.952 -0.2081 -0.2809 -0.2019
 3510DPPE   PO463974  34.616  20.453   7.766  0.0199  0.0266  0.3339
 3510DPPE   GL163975  35.043  20.406   7.837 -0.1872 -0.1188 -0.1213
 3510DPPE   GL263976  35.215  20.045   7.856  0.1135  0.1398  0.0526
 3510DPPE   C1A63977  35.478  20.562   7.667  0.2458  0.0535  0.1227
 3510DPPE   C2A63978  35.797  20.548   7.792  0.1150  0.1704 -0.2777
 3510DPPE   C3A63979  36.218  20.467   7.821  0.1558  0.1201 -0.1901
 3510DPPE   C4A63980  36.609  20.434   8.022 -0.0713  0.0054  0.0894
 3510DPPE   C1B63981  35.657  20.128   7.979  0.3288  0.1739 -0.0403
 3510DPPE   C2B63982  35.977  20.068   8.160 -0.0523 -0.3014  0.1201
 3510DPPE   C3B63983  36.191  20.273   8.403 -0.1565  0.1966  0.0110
 3510DPPE   C4B63984  36.438  20.060   8.677 -0.1053 -0.1151  0.0440
 3511DPPE   NH363985  33.779  22.959   6.832  0.0275 -0.1885  0.1870
 3511DPPE   PO463986  33.844  22.541   6.635 -0.1167 -0.0181 -0.0711
 3511DPPE   GL163987  33.594  22.757   6.333 -0.0643  0.3373 -0.2826
 3511DPPE   GL263988  33.377  22.697   6.038  0.3545  0.1736  0.1833
 3511DPPE   C1A63989  33.277  23.129   6.220  0.1472 -0.2553  0.2931
 3511DPPE   C2A63990  33.102  23.570   6.294  0.2563 -0.2591 -0.2103
 3511DPPE   C3A63991  33.183  23.929   6.136  0.0726 -0.0647  0.0806
 3511DPPE   C4A63992  33.205  24.252   6.116 -0.1087 -0.1693  0.1480
 3511DPPE   C1B63993  33.642  23.092   5.778  0.0530 -0.0443 -0.2361
 3511DPPE   C2B63994  33.851  23.328   5.412  0.0236  0.1345 -0.0168
 3511DPPE   C3B63995  34.213  23.288   5.200  0.3084  0.2203 -0.3251
 3511DPPE   C4B63996  34.581  23.217   4.865 -0.1498  0.1521 -0.0783
 3512DPPE   NH363997   0.918  15.536   3.324  0.1216 -0.3076  0.4306
 3512DPPE   PO463998   0.844  15.760   3.042  0.5029  0.3156 -0.0712
 3512DPPE   GL163999   1.119  15.589   2.761 -0.0620 -0.0843  0.3229
 3512DPPE   GL264000   1.302  15.578   3.035 -0.1641  0.0078 -0.0226
 3512DPPE   C1A64001   1.402  15.870   2.609  0.0065  0.1996 -0.1946
 3512DPPE   C2A64002   1.538  16.283   2.501  0.1905 -0.2586  0.1716
 3512DPPE   C3A64003   1.668  16.647   2.436 -0.0970 -0.0464 -0.0602
 3512DPPE   C4A64004   1.845  17.020   2.673 -0.0073 -0.2874  0.2312
 3512DPPE   C1B64005   1.650  15.784   3.093 -0.0526  0.0032 -0.0923
 3512DPPE   C2B64006   1.892  15.972   2.748 -0.0438 -0.0573  0.0870
 3512DPPE   C3B64007   2.017  16.194   2.294 -0.1256 -0.0873  0.0398
 3512DPPE   C4B64008   2.101  16.603   1.995  0.2466 -0.1082 -0.2942
 3513DPPE   NH364009  37.474  11.504  12.213  0.2108 -0.0536  0.0098
 3513DPPE   PO464010  37.628  11.294  11.883  0.1489  0.2161 -0.0822
 3513DPPE   GL164011  37.274  11.104  11.913  0.2311 -0.0806 -0.0401
 3513DPPE   GL264012  37.058  11.211  12.187 -0.2489 -0.1032  0.0880
 3513DPPE   C1A64013  36.868  10.868  11.896  0.0738  0.0649 -0.0238
 3513DPPE   C2A64014  36.622  10.567  11.754  0.2529 -0.1305 -0.1459
 3513DPPE   C3A64015  36.627  10.216  11.551 -0.1128 -0.1074  0.0855
 3513DPPE   C4A64016  36.765   9.836  11.573  0.3089  0.2112 -0.1145
 3513DPPE   C1B64017  36.534  11.176  12.299  0.2565  0.1162  0.0850
 3513DPPE   C2B64018  36.113  11.048  12.566  0.0268  0.3829  0.2908
 3513DPPE   C3B64019  35.702  11.172  12.738  0.1351 -0.2041  0.2335
 3513DPPE   C4B64020  35.232  11.058  12.728  0.3028 -0.2683 -0.0115
 3514DPPE   NH364021  36.534  16.805  16.246 -0.1168 -0.2065  0.1205
 3514DPPE   PO464022  36.915  17.118  16.414  0.0017 -0.2450 -0.2773
 3514DPPE   GL164023  37.076  17.572  16.316  0.1264 -0.0085  0.0262
 3514DPPE   GL264024  36.946  17.753  16.668 -0.0299 -0.1088 -0.0279
 3514DPPE   C1A64025  37.235  17.864  16.061 -0.1020  0.3420 -0.2053
 3514DPPE   C2A64026  37.633  18.024  15.944 -0.0810 -0.3918 -0.2781
 3514DPPE   C3A64027  37.957  18.275  16.084  0.0033  0.1705 -0.3614
 3514DPPE   C4A64028  38.356  18.392  15.822  0.1904  0.0299 -0.2703
 3514DPPE   C1B64029  37.393  17.898  16.610  0.0302 -0.0425 -0.0388
 3514DPPE   C2B64030  37.642  17.750  16.405 -0.1943 -0.2577 -0.1194
 3514DPPE   C3B64031  37.973  17.649  16.092  0.2718 -0.0002 -0.5129
 3514DPPE   C4B64032  38.273  17.734  15.796 -0.1566  0.0922 -0.1788
 3515DPPE   NH364033  37.257  14.661   4.954  0.1341  0.0424 -0.1301
 3515DPPE   PO464034  37.499  14.302   4.841  0.0314  0.3853 -0.0762
 3515DPPE   GL164035  37.315  13.943   4.620 -0.0043 -0.1569 -0.0338
 3515DPPE   GL264036  37.419  13.615   4.569  0.3023 -0.1946 -0.1350
 3515DPPE   C1A64037  36.880  13.769   4.606 -0.1249 -0.1274 -0.2375
 3515DPPE   C2A64038  36.551  13.577   4.353  0.2566 -0.0188  0.0737
 3515DPPE   C3A64039  36.344  13.349   4.050  0.1599  0.2459  0.2358
 3515DPPE   C4A64040  36.123  13.208   3.679  0.0938 -0.1448  0.1421
 3515DPPE   C1B64041  37.145  13.495   4.251 -0.3012 -0.1088 -0.1442
 3515DPPE   C2B64042  37.156  13.122   4.137 -0.1097  0.0528 -0.1952
 3515DPPE   C3B64043  37.422  12.749   4.175 -0.2952  0.0643 -0.1428
 3515DPPE   C4B64044  37.844  12.742   4.146 -0.0587 -0.0028 -0.0290
 3516DPPE   NH364045   1.882  10.629  10.623 -0.0475  0.2343  0.1759
 3516DPPE   PO464046   2.254  10.352  10.709  0.3147  0.0331  0.1736
 3516DPPE   GL164047   2.198   9.820  10.820  0.1101  0.1111 -0.2783
 3516DPPE   GL264048   2.142   9.720  11.157 -0.2178 -0.0315 -0.0447
 3516DPPE   C1A64049   2.058   9.407  10.828  0.0760  0.0995 -0.4181
 3516DPPE   C2A64050   2.007   8.962  10.839  0.0574  0.3003 -0.1205
 3516DPPE   C3A64051   2.252   8.560  10.881 -0.3136  0.0476 -0.2211
 3516DPPE   C4A64052   2.718   8.585  10.794 -0.0904 -0.3838 -0.0831
 3516DPPE   C1B64053   2.103   9.423  11.421  0.0118 -0.1183 -0.3289
 3516DPPE   C2B64054   2.095   9.033  11.314  0.0226  0.3873 -0.1810
 3516DPPE   C3B64055   2.402   8.767  11.360 -0.1401  0.1669 -0.0239
 3516DPPE   C4B64056   2.853   8.704  11.542  0.2037 -0.1366  0.1622
 3517DPPE   NH364057   1.760  12.621   4.383 -0.0231 -0.2972  0.1914
 3517DPPE   PO464058   1.861  12.508   3.957 -0.0534  0.0552 -0.1153
 3517DPPE   GL164059   2.185  12.530   3.667  0.1372  0.1266  0.2606
 3517DPPE   GL264060   2.208  12.341   3.420 -0.0445  0.3809 -0.2451
 3517DPPE   C1A64061   2.577  12.789   3.648  0.3354  0.0657  0.3563
 3517DPPE   C2A64062   2.863  12.954   3.408  0.1647  0.2442  0.1830
 3517DPPE   C3A64063   3.110  13.267   3.142  0.4534 -0.1028  0.0001
 3517DPPE   C4A64064   3.376  13.293   2.765 -0.0293  0.1735  0.0155
 3517DPPE   C1B64065   2.642  12.289   3.396 -0.0542 -0.1739 -0.1488
 3517DPPE   C2B64066   3.149  12.358   3.419  0.4840  0.2679  0.0928
 3517DPPE   C3B64067   3.562  12.362   3.654 -0.0772  0.0242  0.0258
 3517DPPE   C4B64068   3.839  12.486   4.082  0.3121 -0.0888  0.0338
 3518DPPE   NH364069   0.143  15.152  17.710  0.0813 -0.0705 -0.1160
 3518DPPE   PO464070  -0.058  15.590  17.741  0.1638  0.0055 -0.0286
 3518DPPE   GL164071   0.279  15.779  17.951 -0.1517 -0.1118 -0.1036
 3518DPPE   GL264072   0.320  15.496  18.083  0.3950 -0.0312  0.0258
 3518DPPE   C1A64073   0.510  16.027  18.339  0.0499 -0.0141  0.1471
 3518DPPE   C2A64074   0.917  16.006  18.599  0.2489 -0.1832  0.2018
 3518DPPE   C3A64075   1.136  16.354  18.668  0.1761 -0.0181  0.0729
 3518DPPE   C4A64076   1.441  16.697  18.650 -0.0718 -0.0641 -0.0480
 3518DPPE   C1B64077   0.733  15.646  18.134  0.3378 -0.1251 -0.2138
 3518DPPE   C2B64078   1.234  15.834  18.289  0.1536  0.2333 -0.0255
 3518DPPE   C3B64079   1.658  15.739  18.315 -0.1504  0.0041  0.1168
 3518DPPE   C4B64080   1.869  15.852  18.526  0.2948 -0.0739  0.0430
 3519DPPE   NH364081  37.599  13.697  16.448 -0.5168  0.2423 -0.3080
 3519DPPE   PO464082  37.585  13.842  16.755  0.0553  0.0458  0.0444
 3519DPPE   GL164083  37.293  13.714  17.170 -0.0773 -0.0208 -0.1262
 3519DPPE   GL264084  37.053  13.455  16.954  0.0045 -0.1584 -0.1798
 3519DPPE   C1A64085  36.896  13.711  17.404  0.2232 -0.1197  0.1484
 3519DPPE   C2A64086  36.744  13.396  17.695 -0.0239  0.2054 -0.0209
 3519DPPE   C3A64087  36.423  13.024  17.624 -0.0210 -0.0856  0.0445
 3519DPPE   C4A64088  36.305  12.610  17.701  0.0838 -0.5175  0.3611
 3519DPPE   C1B64089  37.130  13.224  17.371 -0.3394  0.1104  0.0960
 3519DPPE   C2B64090  36.995  12.932  17.623  0.3083 -0.1521 -0.1771
 3519DPPE   C3B64091  37.087  12.503  17.750 -0.0531 -0.2510 -0.1138
 3519DPPE   C4B64092  37.008  12.025  17.995 -0.0008 -0.2115  0.1222
 3520DPPE   NH364093  36.419  19.345   3.829  0.1184 -0.1133 -0.2095
 3520DPPE   PO464094  36.165  19.563   3.944  0.0267 -0.2574 -0.2216
 3520DPPE   GL164095  36.558  19.878   3.844  0.1922  0.1309  0.1582
 3520DPPE   GL264096  36.753  20.012   4.094  0.1431 -0.1678  0.1607
 3520DPPE   C1A64097  36.819  20.049   3.413 -0.0727 -0.2899  0.0505
 3520DPPE   C2A64098  36.871  20.395   3.234 -0.2218 -0.0628  0.0030
 3520DPPE   C3A64099  36.914  20.706   3.441  0.0652  0.0290 -0.2828
 3520DPPE   C4A64100  36.997  20.928   3.073 -0.4124 -0.0544 -0.0259
 3520DPPE   C1B64101  37.017  20.338   3.747  0.1081 -0.2646  0.2944
 3520DPPE   C2B64102  37.372  20.358   3.521  0.0623  0.1922  0.1350
 3520DPPE   C3B64103  37.735  20.626   3.242  0.0576  0.0642 -0.1631
 3520DPPE   C4B64104  37.979  20.757   2.939  0.1158 -0.0194  0.2968
 3521DPPE   NH364105   0.594  16.939   3.193  0.0524 -0.1867  0.3840
 3521DPPE   PO464106   0.453  16.671   2.926 -0.1066 -0.0073  0.2448
 3521DPPE   GL164107   0.714  16.805   2.714 -0.2631 -0.2427 -0.2323
 3521DPPE   GL264108   1.043  16.694   2.909 -0.0202 -0.0771 -0.0382
 3521DPPE   C1A64109   1.069  16.692   2.401 -0.2126  0.1771  0.0263
 3521DPPE   C2A64110   1.366  16.930   2.123  0.1052  0.1804 -0.0336
 3521DPPE   C3A64111   1.274  16.853   1.713  0.0855 -0.3780 -0.1098
 3521DPPE   C4A64112   1.532  16.812   1.309 -0.5291  0.1449  0.1072
 3521DPPE   C1B64113   1.453  16.750   2.973 -0.1990  0.0638  0.1701
 3521DPPE   C2B64114   1.938  16.899   3.117 -0.0753 -0.0612 -0.1343
 3521DPPE   C3B64115   2.189  16.982   3.369  0.0135 -0.1980 -0.0289
 3521DPPE   C4B64116   2.545  16.738   3.440  0.1200 -0.1857 -0.1743
 3522DPPE   NH364117  37.235  14.876  14.543 -0.0864 -0.1402 -0.2098
 3522DPPE   PO464118  37.422  14.552  14.315 -0.0671 -0.3114  0.0241
 3522DPPE   GL164119  37.660  14.857  14.193 -0.0661 -0.1579 -0.2337
 3522DPPE   GL264120  38.005  14.840  14.170  0.0819 -0.0690 -0.0521
 3522DPPE   C1A64121  37.745  15.354  14.247  0.0699  0.0288  0.0324
 3522DPPE   C2A64122  38.102  15.579  14.352 -0.1375 -0.0169  0.4317
 3522DPPE   C3A64123  38.411  15.760  14.370 -0.1452 -0.2990  0.1527
 3522DPPE   C4A64124  38.673  16.073  14.148  0.2135 -0.1126 -0.3377
 3522DPPE   C1B64125  38.124  15.285  13.978  0.2214  0.1491 -0.1379
 3522DPPE   C2B64126  38.479  15.630  13.893  0.1552  0.1240 -0.0273
 3522DPPE   C3B64127  38.963  15.776  13.835 -0.1860  0.3985 -0.0019
 3522DPPE   C4B64128  39.258  15.988  13.920  0.0377  0.0355  0.0282
 3523DPPE   NH364129  35.400  17.105  18.088  0.3383 -0.0716  0.0899
 3523DPPE   PO464130  35.764  17.104  18.236  0.1855 -0.1285 -0.0565
 3523DPPE   GL164131  35.767  16.924  18.536  0.0855  0.2046 -0.3357
 3523DPPE   GL264132  36.069  16.848  18.658 -0.0709 -0.0496  0.0318
 3523DPPE   C1A64133  35.310  16.784  18.729  0.1063 -0.0897 -0.2141
 3523DPPE   C2A64134  35.179  16.441  18.868 -0.1255 -0.1398 -0.4963
 3523DPPE   C3A64135  35.225  16.029  18.976  0.1113 -0.0913  0.3022
 3523DPPE   C4A64136  35.504  15.720  19.189  0.1932 -0.1385 -0.1385
 3523DPPE   C1B64137  35.827  16.628  19.085 -0.1146 -0.0355 -0.0790
 3523DPPE   C2B64138  35.523  16.762  19.212 -0.0787  0.2678 -0.2239
 3523DPPE   C3B64139  35.235  17.005  19.300  0.1558 -0.0377 -0.1495
 3523DPPE   C4B64140  34.969  17.280  19.009  0.0226 -0.0137 -0.0099
 3524DPPE   NH364141  33.618  19.137  14.540  0.0944  0.2364  0.3244
 3524DPPE   PO464142  34.025  18.983  14.639  0.0863  0.0907  0.3690
 3524DPPE   GL164143  33.770  18.711  14.717  0.0312 -0.0247  0.2380
 3524DPPE   GL264144  33.636  18.673  14.390  0.2526  0.1526  0.2956
 3524DPPE   C1A64145  33.529  18.458  14.925  0.1932  0.1106  0.1689
 3524DPPE   C2A64146  33.179  18.421  15.097  0.0236  0.0614  0.0904
 3524DPPE   C3A64147  32.815  18.261  14.985  0.0178  0.1596 -0.0630
 3524DPPE   C4A64148  32.445  18.284  14.806  0.0654  0.0651  0.0352
 3524DPPE   C1B64149  33.235  18.469  14.536  0.0288 -0.0799  0.0552
 3524DPPE   C2B64150  32.843  18.535  14.486 -0.1496  0.1283 -0.0811
 3524DPPE   C3B64151  32.450  18.723  14.552 -0.0057 -0.1205 -0.2585
 3524DPPE   C4B64152  32.149  18.972  14.720 -0.1734  0.2407  0.0457
 3525DPPE   NH364153  35.825  13.955   9.941 -0.2481  0.1112  0.0698
 3525DPPE   PO464154  35.806  14.083   9.523 -0.3958  0.0011  0.0282
 3525DPPE   GL164155  35.454  13.751   9.404 -0.2999  0.0888 -0.3217
 3525DPPE   GL264156  35.599  13.525   9.570  0.0601  0.2279 -0.0586
 3525DPPE   C1A64157  35.031  13.808   9.427 -0.0759  0.1870 -0.1610
 3525DPPE   C2A64158  34.549  13.978   9.405  0.1625  0.1198  0.0466
 3525DPPE   C3A64159  34.271  14.015   9.685  0.2270 -0.3180 -0.1722
 3525DPPE   C4A64160  33.809  13.929   9.727  0.1353  0.2433  0.1956
 3525DPPE   C1B64161  35.245  13.380   9.247  0.1678 -0.0913 -0.0405
 3525DPPE   C2B64162  34.792  13.292   9.323 -0.2737  0.1540 -0.2675
 3525DPPE   C3B64163  34.622  13.120   9.752  0.1545 -0.0382 -0.3021
 3525DPPE   C4B64164  34.331  12.899  10.046 -0.2067 -0.0731  0.5059
 3526DPPE   NH364165   2.072  11.241  13.111 -0.1242  0.1725 -0.3382
 3526DPPE   PO464166   2.080  10.875  12.978 -0.0742 -0.1692 -0.0119
 3526DPPE   GL164167   2.086  10.366  13.087 -0.4864  0.3865 -0.4199
 3526DPPE   GL264168   1.842  10.146  12.897  0.1106  0.0594  0.3710
 3526DPPE   C1A64169   2.413  10.150  13.259  0.1080  0.0353  0.1489
 3526DPPE   C2A64170   2.831  10.126  13.229  0.0106 -0.0409 -0.2617
 3526DPPE   C3A64171   3.235  10.022  13.299  0.1482  0.3835  0.1017
 3526DPPE   C4A64172   3.636   9.773  13.351 -0.1277 -0.2156  0.3244
 3526DPPE   C1B64173   1.927   9.840  13.111 -0.0825 -0.1069 -0.0680
 3526DPPE   C2B64174   1.846   9.417  13.371 -0.1050  0.1243 -0.2572
 3526DPPE   C3B64175   2.204   9.088  13.452 -0.0595  0.1983 -0.3324
 3526DPPE   C4B64176   2.454   8.698  13.390 -0.1169  0.1823 -0.2982
 3527DPPE   NH364177   2.747  10.669   7.810  0.0285 -0.0745  0.1962
 3527DPPE   PO464178   2.810  10.935   8.173 -0.0625 -0.0165 -0.0362
 3527DPPE   GL164179   3.264  10.762   8.096  0.0069  0.4122 -0.1398
 3527DPPE   GL264180   3.536  10.582   8.358 -0.0760 -0.1150  0.2570
 3527DPPE   C1A64181   3.452  10.444   7.814  0.1743  0.2155  0.0139
 3527DPPE   C2A64182   3.569  10.099   7.601  0.1289  0.0444  0.0886
 3527DPPE   C3A64183   3.453   9.959   7.161 -0.2568  0.1282  0.0160
 3527DPPE   C4A64184   3.398  10.092   6.864 -0.1339  0.0640 -0.0733
 3527DPPE   C1B64185   3.794  10.918   8.313 -0.0735  0.0899 -0.3642
 3527DPPE   C2B64186   3.640  11.413   8.244  0.1958 -0.0337  0.0726
 3527DPPE   C3B64187   3.650  11.682   7.990 -0.2654 -0.1134  0.1083
 3527DPPE   C4B64188   3.736  12.064   7.883 -0.2561  0.0069  0.2027
 3528DPPE   NH364189  34.485  22.412  14.279 -0.0083  0.1771 -0.2689
 3528DPPE   PO464190  34.850  22.543  14.093  0.0425  0.2839 -0.1013
 3528DPPE   GL164191  35.003  22.652  14.495 -0.0673 -0.1136 -0.0560
 3528DPPE   GL264192  34.703  22.886  14.495 -0.4073  0.1495  0.2419
 3528DPPE   C1A64193  35.099  22.986  14.850  0.0146  0.0914 -0.0814
 3528DPPE   C2A64194  34.900  23.234  15.234 -0.1025 -0.1582  0.1548
 3528DPPE   C3A64195  34.907  23.244  15.640 -0.0147 -0.0941  0.0796
 3528DPPE   C4A64196  34.994  23.463  16.025 -0.2339  0.1021 -0.0064
 3528DPPE   C1B64197  34.959  23.229  14.423 -0.2345  0.0224  0.2722
 3528DPPE   C2B64198  35.099  23.633  14.290 -0.1137  0.2028 -0.0709
 3528DPPE   C3B64199  34.905  23.895  14.547 -0.2651 -0.2816  0.2263
 3528DPPE   C4B64200  34.556  23.754  14.865 -0.1360 -0.1814 -0.2506
 3529DPPE   NH364201   0.157  16.550   3.717  0.3102  0.2286  0.1413
 3529DPPE   PO464202   0.512  16.533   3.423 -0.2659 -0.0870  0.0412
 3529DPPE   GL164203   0.879  16.570   3.435 -0.1042 -0.1523 -0.3249
 3529DPPE   GL264204   1.077  16.913   3.411 -0.0946  0.0085  0.0958
 3529DPPE   C1A64205   1.338  16.454   3.378 -0.2432 -0.2759  0.2537
 3529DPPE   C2A64206   1.797  16.464   3.382 -0.2070 -0.0366 -0.2858
 3529DPPE   C3A64207   2.076  16.215   3.269  0.2353 -0.1819  0.0001
 3529DPPE   C4A64208   2.510  16.154   3.365  0.1012  0.0659 -0.0224
 3529DPPE   C1B64209   1.208  17.208   3.071  0.4242  0.3589 -0.1440
 3529DPPE   C2B64210   1.496  17.454   2.873 -0.1658 -0.0443 -0.3528
 3529DPPE   C3B64211   1.879  17.625   2.699 -0.2767  0.1261 -0.0135
 3529DPPE   C4B64212   2.118  18.019   2.839 -0.1795 -0.0505 -0.1561
 3530DPPE   NH364213   0.776  11.029   8.404  0.0186 -0.0128 -0.3760
 3530DPPE   PO464214   0.360  11.136   8.635  0.1359 -0.1724  0.3169
 3530DPPE   GL164215   0.317  10.812   8.570 -0.1231 -0.0941  0.0174
 3530DPPE   GL264216   0.189  10.677   8.850 -0.2046 -0.0184  0.1493
 3530DPPE   C1A64217   0.169  10.498   8.299 -0.1908 -0.3478  0.0340
 3530DPPE   C2A64218  -0.143  10.145   8.243 -0.1224  0.3143 -0.0332
 3530DPPE   C3A64219  -0.352   9.760   8.321 -0.2284 -0.0939  0.0752
 3530DPPE   C4A64220  -0.393   9.365   8.114 -0.0294 -0.0505 -0.1126
 3530DPPE   C1B64221   0.023  10.363   8.765  0.3628  0.4609 -0.1870
 3530DPPE   C2B64222  -0.233  10.007   8.726 -0.0661 -0.2704 -0.0471
 3530DPPE   C3B64223  -0.339   9.549   8.790  0.0622 -0.0123 -0.4152
 3530DPPE   C4B64224  -0.630   9.382   8.546  0.2152  0.2803 -0.0333
 3531DPPE   NH364225  35.908  13.746  11.440  0.4548  0.1131 -0.2010
 3531DPPE   PO464226  35.701  14.088  11.258 -0.0793  0.0100 -0.0326
 3531DPPE   GL164227  35.419  13.858  11.444  0.0212 -0.1759  0.0867
 3531DPPE   GL264228  35.517  13.758  11.770 -0.3347  0.0099  0.2903
 3531DPPE   C1A64229  34.983  13.784  11.443  0.0581 -0.2582 -0.1709
 3531DPPE   C2A64230  34.514  13.736  11.455  0.3270 -0.1834  0.2011
 3531DPPE   C3A64231  34.191  13.850  11.631 -0.0113 -0.1547 -0.0128
 3531DPPE   C4A64232  33.819  13.547  11.768  0.1400  0.1404  0.1220
 3531DPPE   C1B64233  35.206  13.470  11.894 -0.0467  0.1281 -0.1130
 3531DPPE   C2B64234  34.873  13.353  11.699  0.0964  0.2169  0.0460
 3531DPPE   C3B64235  34.711  12.943  11.470 -0.2644 -0.1288 -0.2024
 3531DPPE   C4B64236  34.356  12.755  11.237 -0.0719  0.1764 -0.4894
 3532DPPE   NH364237  34.473  19.269  16.354  0.0308  0.0627 -0.1768
 3532DPPE   PO464238  34.285  18.927  16.531 -0.1579  0.2981  0.1357
 3532DPPE   GL164239  33.972  18.989  16.784  0.1605  0.1512 -0.1676
 3532DPPE   GL264240  33.799  19.016  16.475  0.0205 -0.0008 -0.1609
 3532DPPE   C1A64241  33.598  18.730  16.861 -0.1536  0.0742 -0.0023
 3532DPPE   C2A64242  33.433  18.427  16.932 -0.0322  0.0832 -0.2031
 3532DPPE   C3A64243  33.158  18.117  17.250 -0.1619  0.2660  0.0245
 3532DPPE   C4A64244  32.719  18.089  17.050  0.1943 -0.0841 -0.0258
 3532DPPE   C1B64245  33.524  19.233  16.647 -0.1602 -0.1269 -0.0214
 3532DPPE   C2B64246  33.335  19.525  16.819 -0.1988 -0.0230  0.0952
 3532DPPE   C3B64247  33.073  19.613  17.014  0.0809  0.0986 -0.0628
 3532DPPE   C4B64248  32.817  19.932  17.006  0.0053 -0.0619 -0.2395
 3533DPPE   NH364249  34.158  19.706   8.637 -0.1530 -0.0865 -0.1952
 3533DPPE   PO464250  34.392  19.841   8.329 -0.1080  0.0123  0.0924
 3533DPPE   GL164251  34.861  19.908   8.309  0.0741  0.1631  0.1662
 3533DPPE   GL264252  34.828  19.747   8.617  0.3627 -0.0260  0.2513
 3533DPPE   C1A64253  35.332  20.045   8.321 -0.2620 -0.2533  0.1506
 3533DPPE   C2A64254  35.606  20.227   8.552  0.1180 -0.0828 -0.3425
 3533DPPE   C3A64255  35.995  20.267   8.881  0.0682  0.1864 -0.1451
 3533DPPE   C4A64256  36.309  20.470   8.923  0.1047  0.1233 -0.0447
 3533DPPE   C1B64257  35.201  19.864   8.756  0.0902  0.0171  0.1691
 3533DPPE   C2B64258  35.631  19.745   8.822 -0.0947  0.1290 -0.0691
 3533DPPE   C3B64259  36.093  19.840   9.018 -0.2053 -0.3044 -0.4514
 3533DPPE   C4B64260  36.303  19.452   9.272 -0.1775 -0.0827  0.0841
 3534DPPE   NH364261  34.935  16.662  12.518 -0.1035 -0.1570  0.1354
 3534DPPE   PO464262  34.864  16.965  12.092 -0.1728 -0.0078  0.1618
 3534DPPE   GL164263  35.145  17.321  11.905 -0.1873 -0.3312 -0.0313
 3534DPPE   GL264264  35.138  17.598  12.042  0.1294  0.1459 -0.0899
 3534DPPE   C1A64265  35.446  17.532  11.675 -0.0975 -0.0429 -0.3126
 3534DPPE   C2A64266  35.779  17.773  11.589  0.2569 -0.1413  0.0681
 3534DPPE   C3A64267  35.815  18.181  11.907 -0.0167  0.3829  0.3733
 3534DPPE   C4A64268  36.185  18.215  12.161 -0.0668  0.2123 -0.0685
 3534DPPE   C1B64269  35.531  17.485  12.195  0.0696 -0.5699  0.1828
 3534DPPE   C2B64270  35.945  17.504  12.036  0.0691 -0.0854  0.0501
 3534DPPE   C3B64271  36.203  17.820  11.850 -0.1100 -0.0537 -0.0574
 3534DPPE   C4B64272  36.541  18.022  11.773  0.0262  0.3550  0.2710
 3535DPPE   NH364273   2.568  11.518   6.126  0.2023  0.1705  0.2987
 3535DPPE   PO464274   2.391  11.394   5.769  0.1063  0.1587  0.1213
 3535DPPE   GL164275   2.775  11.227   5.570  0.1207  0.3763  0.1951
 3535DPPE   GL264276   3.004  11.324   5.410  0.2260  0.1206  0.0802
 3535DPPE   C1A64277   3.051  10.886   5.608 -0.0301  0.1188  0.1685
 3535DPPE   C2A64278   3.038  10.563   5.922  0.2302  0.0900  0.1515
 3535DPPE   C3A64279   2.789  10.132   5.842  0.0701  0.2323 -0.0170
 3535DPPE   C4A64280   2.877   9.754   6.165 -0.1202 -0.2825  0.2525
 3535DPPE   C1B64281   3.330  11.239   5.103 -0.1538  0.0653 -0.0789
 3535DPPE   C2B64282   3.617  11.470   4.748  0.0651 -0.0810  0.1247
 3535DPPE   C3B64283   3.971  11.289   4.594 -0.0744 -0.0588  0.0534
 3535DPPE   C4B64284   3.926  11.096   4.308  0.0470  0.1288  0.6537
 3536DPPE   NH364285   0.385  12.257  14.555  0.0167 -0.1131 -0.0916
 3536DPPE   PO464286   0.018  12.026  14.341  0.0930  0.1416 -0.3176
 3536DPPE   GL164287  -0.121  11.723  14.637  0.3053  0.1819  0.0432
 3536DPPE   GL264288  -0.092  11.712  14.929 -0.0935  0.1645 -0.1210
 3536DPPE   C1A64289  -0.380  11.318  14.629 -0.2035 -0.1850  0.1135
 3536DPPE   C2A64290  -0.466  11.015  14.904  0.0109 -0.1354  0.1496
 3536DPPE   C3A64291  -0.746  10.795  15.032 -0.1091  0.0421  0.1190
 3536DPPE   C4A64292  -0.846  10.363  15.131 -0.1567  0.1992 -0.2987
 3536DPPE   C1B64293  -0.469  11.599  15.152 -0.1619  0.0198 -0.0214
 3536DPPE   C2B64294  -0.721  11.314  15.271  0.2629  0.0286 -0.1403
 3536DPPE   C3B64295  -0.857  11.349  15.722 -0.0222  0.1125 -0.0495
 3536DPPE   C4B64296  -0.901  11.064  16.028  0.0316 -0.2764 -0.2269
 3537DPPE   NH364297   2.763   9.882   9.068  0.3036 -0.2936  0.0384
 3537DPPE   PO464298   3.094   9.900   9.210 -0.1066 -0.1406  0.1406
 3537DPPE   GL164299   3.439   9.787   9.037 -0.1359  0.3838  0.2348
 3537DPPE   GL264300   3.636   9.720   9.321  0.1866 -0.1309 -0.0518
 3537DPPE   C1A64301   3.534   9.654   8.690  0.2400  0.2520 -0.2133
 3537DPPE   C2A64302   3.687   9.597   8.278 -0.0080  0.1414  0.0625
 3537DPPE   C3A64303   3.985   9.426   7.908 -0.2241  0.1253 -0.1403
 3537DPPE   C4A64304   4.096   9.299   7.499 -0.0436  0.1053  0.2468
 3537DPPE   C1B64305   3.447   9.357   9.338  0.1231 -0.0016  0.1229
 3537DPPE   C2B64306   3.379   9.081   9.009  0.1591 -0.2140 -0.2940
 3537DPPE   C3B64307   3.299   8.778   8.767 -0.1766 -0.0743  0.0127
 3537DPPE   C4B64308   3.364   8.408   8.568  0.3823  0.0100  0.0728
 3538DPPE   NH364309  37.307  16.952   2.904 -0.3231 -0.1509 -0.0680
 3538DPPE   PO464310  36.912  17.289   2.899  0.2351 -0.1124  0.3339
 3538DPPE   GL164311  36.886  17.117   2.419  0.2605 -0.0862 -0.3482
 3538DPPE   GL264312  37.070  16.856   2.445  0.0138  0.1444  0.1254
 3538DPPE   C1A64313  36.539  16.816   2.214  0.1100  0.0584  0.0634
 3538DPPE   C2A64314  36.428  16.462   2.082  0.1234 -0.2173  0.0205
 3538DPPE   C3A64315  36.079  16.271   1.863 -0.3864  0.0118  0.0923
 3538DPPE   C4A64316  36.107  15.985   1.609 -0.0355  0.2290  0.1757
 3538DPPE   C1B64317  37.094  16.859   1.939 -0.0277 -0.2851  0.2244
 3538DPPE   C2B64318  36.684  16.757   1.703  0.1491 -0.1472 -0.0141
 3538DPPE   C3B64319  36.496  16.665   1.274 -0.1943  0.0188  0.1172
 3538DPPE   C4B64320  36.360  16.455   0.843 -0.2751 -0.1935  0.2776
 3539DPPE   NH364321  38.339  14.811  15.835  0.0942  0.1931  0.1013
 3539DPPE   PO464322  38.205  15.048  15.521 -0.1393 -0.1025  0.1020
 3539DPPE   GL164323  38.147  15.453  15.496 -0.4240  0.0269  0.1217
 3539DPPE   GL264324  38.366  15.515  15.322  0.0163 -0.0218  0.3727
 3539DPPE   C1A64325  38.150  15.934  15.272 -0.1122  0.1830  0.0696
 3539DPPE   C2A64326  38.399  16.199  15.164  0.1488 -0.3324 -0.2494
 3539DPPE   C3A64327  38.881  16.252  15.096 -0.0749  0.0956  0.4055
 3539DPPE   C4A64328  39.271  16.010  14.958 -0.0147  0.2206 -0.1685
 3539DPPE   C1B64329  38.625  15.885  15.474 -0.3218  0.3179 -0.1907
 3539DPPE   C2B64330  39.086  15.900  15.426  0.0317 -0.1522  0.1406
 3539DPPE   C3B64331  39.506  16.102  15.451  0.2334  0.1163  0.1338
 3539DPPE   C4B64332  39.749  16.372  15.364  0.0196  0.4134  0.2895
 3540DPPE   NH364333  34.519  22.785  10.291  0.2432  0.0628  0.0329
 3540DPPE   PO464334  34.324  22.744  10.699 -0.1362 -0.0067  0.2331
 3540DPPE   GL164335  34.731  23.002  10.763  0.2123 -0.0023  0.0006
 3540DPPE   GL264336  34.797  22.847  11.124 -0.0166 -0.3979  0.0865
 3540DPPE   C1A64337  35.031  23.316  10.781  0.2680 -0.1033  0.1941
 3540DPPE   C2A64338  35.440  23.517  10.848 -0.3316 -0.1441 -0.0421
 3540DPPE   C3A64339  35.819  23.676  10.819 -0.0117 -0.0846  0.2829
 3540DPPE   C4A64340  36.211  23.731  10.709 -0.1734 -0.3083  0.1174
 3540DPPE   C1B64341  35.018  23.193  11.288 -0.0330  0.0223  0.0943
 3540DPPE   C2B64342  35.439  23.256  11.408  0.1535  0.2080  0.0176
 3540DPPE   C3B64343  35.505  23.528  11.798  0.3229 -0.1273 -0.2220
 3540DPPE   C4B64344  35.927  23.626  12.017 -0.2990  0.0867  0.2435
 3541DPPE   NH364345  33.523  22.839   7.859 -0.1020  0.2526 -0.0482
 3541DPPE   PO464346  33.550  23.175   7.667  0.2586 -0.3784 -0.1079
 3541DPPE   GL164347  33.313  23.343   7.446 -0.1067 -0.1620 -0.3182
 3541DPPE   GL264348  33.273  23.246   7.063 -0.0989 -0.0548  0.0887
 3541DPPE   C1A64349  33.194  23.668   7.320 -0.5536  0.1003 -0.0982
 3541DPPE   C2A64350  32.858  23.819   7.248 -0.1383 -0.0179  0.0425
 3541DPPE   C3A64351  32.619  23.597   7.387 -0.4958 -0.0546  0.2685
 3541DPPE   C4A64352  32.311  23.401   7.411  0.1640 -0.2396  0.0313
 3541DPPE   C1B64353  32.922  23.205   7.256  0.2278  0.1731 -0.0129
 3541DPPE   C2B64354  32.586  22.914   7.369 -0.1548 -0.0696  0.2164
 3541DPPE   C3B64355  32.252  22.750   7.359  0.2096  0.0664 -0.0145
 3541DPPE   C4B64356  32.104  22.505   6.916  0.0533  0.0492  0.2240
 3542DPPE   NH364357  33.882  18.730  10.295 -0.0499 -0.0899 -0.0619
 3542DPPE   PO464358  33.625  18.307  10.215 -0.1804  0.1434  0.0018
 3542DPPE   GL164359  33.223  18.229  10.162  0.1032 -0.0225  0.0453
 3542DPPE   GL264360  33.092  18.277   9.819 -0.0993  0.3282  0.4970
 3542DPPE   C1A64361  32.810  18.147  10.298  0.5372 -0.0180  0.1858
 3542DPPE   C2A64362  32.306  18.056  10.430 -0.0800 -0.0536 -0.0909
 3542DPPE   C3A64363  31.874  17.986  10.517  0.2933 -0.1552  0.4438
 3542DPPE   C4A64364  31.446  17.771  10.537 -0.0281 -0.1653 -0.1421
 3542DPPE   C1B64365  32.708  18.123   9.821 -0.1214  0.3668  0.2847
 3542DPPE   C2B64366  32.421  18.059   9.460  0.1046  0.2511 -0.3693
 3542DPPE   C3B64367  31.927  17.922   9.378  0.0068  0.2988  0.2389
 3542DPPE   C4B64368  31.572  18.072   9.622  0.2408  0.0867 -0.1255
 3543DPPE   NH364369  38.096  14.727   4.003  0.0613 -0.0099  0.2595
 3543DPPE   PO464370  38.358  14.304   3.891 -0.0900  0.2096  0.0080
 3543DPPE   GL164371  37.927  14.158   3.850  0.0324  0.3187  0.3800
 3543DPPE   GL264372  37.849  13.972   3.523 -0.1156 -0.3107 -0.3199
 3543DPPE   C1A64373  37.507  13.858   3.918 -0.2087 -0.0293  0.1209
 3543DPPE   C2A64374  37.306  13.503   3.791  0.1804  0.3328 -0.2458
 3543DPPE   C3A64375  36.814  13.354   3.901  0.0245 -0.3198  0.0942
 3543DPPE   C4A64376  36.707  12.894   3.836  0.1691 -0.2800  0.0584
 3543DPPE   C1B64377  37.641  13.985   3.120 -0.2818  0.0800 -0.1752
 3543DPPE   C2B64378  37.437  13.849   2.918 -0.0040 -0.0404  0.4129
 3543DPPE   C3B64379  37.076  13.608   2.908  0.0547  0.3821  0.0343
 3543DPPE   C4B64380  36.801  13.443   2.595 -0.3932  0.0284  0.2868
 3544DPPE   NH364381  34.389  22.245  12.279 -0.0443 -0.0385 -0.4869
 3544DPPE   PO464382  34.573  22.300  12.726  0.0939 -0.2432  0.0203
 3544DPPE   GL164383  34.861  22.402  12.463 -0.4252  0.4249  0.0234
 3544DPPE   GL264384  34.899  22.101  12.259 -0.2428  0.3493 -0.1011
 3544DPPE   C1A64385  35.203  22.691  12.411  0.4612  0.0013 -0.0994
 3544DPPE   C2A64386  35.546  22.917  12.456 -0.0928  0.4436  0.0483
 3544DPPE   C3A64387  35.913  23.132  12.573  0.1018 -0.0262 -0.1048
 3544DPPE   C4A64388  36.299  23.291  12.744  0.2705 -0.0213  0.2228
 3544DPPE   C1B64389  35.330  22.092  12.230  0.0155  0.0421  0.0467
 3544DPPE   C2B64390  35.552  22.474  12.206  0.0660  0.0664 -0.0569
 3544DPPE   C3B64391  35.885  22.681  12.143  0.0251 -0.0770  0.0492
 3544DPPE   C4B64392  36.267  22.872  12.366  0.1314  0.2544 -0.2101
 3545DPPE   NH364393  33.305  18.093  12.435  0.0202 -0.0471  0.1547
 3545DPPE   PO464394  33.320  18.148  11.972 -0.5409  0.0401 -0.0852
 3545DPPE   GL164395  32.987  17.841  12.078  0.3375 -0.2795  0.0558
 3545DPPE   GL264396  32.591  17.972  12.161  0.0061  0.3424  0.1879
 3545DPPE   C1A64397  32.638  17.535  12.318 -0.3564  0.1506 -0.0760
 3545DPPE   C2A64398  32.228  17.265  12.437 -0.1369  0.0726 -0.2749
 3545DPPE   C3A64399  31.917  17.157  12.653  0.3280  0.1963 -0.0967
 3545DPPE   C4A64400  31.511  17.120  12.914 -0.1049 -0.1346  0.2701
 3545DPPE   C1B64401  32.235  17.791  12.442  0.0875  0.1268  0.0915
 3545DPPE   C2B64402  31.947  17.699  12.675 -0.1351  0.0134 -0.4424
 3545DPPE   C3B64403  31.483  17.567  12.612  0.2259  0.2043  0.1944
 3545DPPE   C4B64404  31.212  17.739  12.273  0.1478  0.2614  0.1390
 3546DPPE   NH364405  33.600  19.219   7.749 -0.3419  0.0933  0.0178
 3546DPPE   PO464406  33.540  18.849   7.869 -0.3160  0.2843  0.1067
 3546DPPE   GL164407  33.209  18.516   7.813  0.0030 -0.0825 -0.0413
 3546DPPE   GL264408  33.453  18.401   7.594  0.3455 -0.2577  0.1379
 3546DPPE   C1A64409  32.839  18.436   7.941 -0.2209  0.4328 -0.2387
 3546DPPE   C2A64410  32.482  18.286   7.811  0.1781  0.1064  0.1972
 3546DPPE   C3A64411  32.430  18.037   7.435  0.2805 -0.0419 -0.0827
 3546DPPE   C4A64412  32.523  17.733   7.046 -0.0928  0.2189  0.1142
 3546DPPE   C1B64413  33.163  18.225   7.234  0.0370 -0.2386  0.1554
 3546DPPE   C2B64414  32.878  18.171   6.883  0.1792 -0.0274 -0.1403
 3546DPPE   C3B64415  32.497  18.149   6.758 -0.1322  0.3868  0.3238
 3546DPPE   C4B64416  31.995  18.381   6.642 -0.3715 -0.0072 -0.0438
 3547DPPE   NH364417  35.794  14.854  15.362  0.3644  0.0534  0.0981
 3547DPPE   PO464418  36.097  14.784  15.756  0.0268  0.1928 -0.0798
 3547DPPE   GL164419  36.005  14.528  16.156  0.0970 -0.4018  0.0531
 3547DPPE   GL264420  35.678  14.708  16.295  0.0342  0.2854 -0.0680
 3547DPPE   C1A64421  35.926  14.059  16.246  0.1220  0.0038  0.2021
 3547DPPE   C2A64422  35.624  13.846  16.368 -0.0132  0.2437  0.2975
 3547DPPE   C3A64423  35.244  13.733  16.532 -0.0448 -0.0087 -0.2072
 3547DPPE   C4A64424  34.796  13.542  16.770 -0.0893  0.4644  0.0612
 3547DPPE   C1B64425  35.498  14.320  16.376 -0.2380 -0.3222  0.0399
 3547DPPE   C2B64426  35.154  14.233  16.472 -0.1647  0.2011 -0.0814
 3547DPPE   C3B64427  34.804  14.053  16.712 -0.1454  0.0206  0.1749
 3547DPPE   C4B64428  34.632  13.822  16.332  0.4462 -0.5152 -0.0536
 3548DPPE   NH364429  37.069  14.440   6.137  0.1865  0.1509 -0.0589
 3548DPPE   PO464430  36.903  14.327   6.493 -0.4409  0.0429  0.2773
 3548DPPE   GL164431  36.612  13.970   6.288  0.0928 -0.0805 -0.2814
 3548DPPE   GL264432  36.670  13.854   6.014  0.1079 -0.0708 -0.0377
 3548DPPE   C1A64433  36.238  13.741   6.297  0.2560  0.2985 -0.0078
 3548DPPE   C2A64434  35.988  13.561   6.115 -0.1413 -0.1749  0.1696
 3548DPPE   C3A64435  35.804  13.175   6.064 -0.1868  0.3360 -0.0325
 3548DPPE   C4A64436  35.350  13.019   5.903 -0.3513 -0.0085  0.0048
 3548DPPE   C1B64437  36.484  13.716   5.644  0.1357  0.4846  0.3109
 3548DPPE   C2B64438  36.000  13.633   5.521  0.1091  0.0828  0.0527
 3548DPPE   C3B64439  35.743  13.319   5.433  0.0207 -0.0359  0.0495
 3548DPPE   C4B64440  35.391  13.152   5.433  0.2155 -0.2930  0.1922
 3549DPPE   NH364441  35.798  19.667   3.701 -0.2345  0.1234  0.0108
 3549DPPE   PO464442  35.540  19.853   3.336  0.1926 -0.1122  0.4331
 3549DPPE   GL164443  35.510  19.776   2.842 -0.4174  0.0826 -0.0171
 3549DPPE   GL264444  35.252  19.668   2.778  0.2437  0.1458 -0.0424
 3549DPPE   C1A64445  35.714  19.888   2.459 -0.2815  0.3663 -0.3251
 3549DPPE   C2A64446  36.077  19.850   2.299 -0.0539  0.0527  0.2448
 3549DPPE   C3A64447  36.293  20.184   2.172  0.0032  0.0405 -0.1659
 3549DPPE   C4A64448  36.627  20.266   1.877  0.0181 -0.2444  0.0255
 3549DPPE   C1B64449  34.817  19.905   2.700  0.2726  0.0893  0.3040
 3549DPPE   C2B64450  34.822  20.197   2.461 -0.0107  0.3731 -0.0331
 3549DPPE   C3B64451  34.811  20.478   2.162 -0.0262  0.3805 -0.0388
 3549DPPE   C4B64452  35.002  20.706   1.771 -0.1134 -0.0162  0.0614
 3550DPPE   NH364453   1.455  11.408  14.095 -0.0875 -0.0358  0.0229
 3550DPPE   PO464454   1.738  11.213  14.387  0.1046  0.1300 -0.0133
 3550DPPE   GL164455   1.812  10.942  14.862 -0.0912 -0.1137 -0.2204
 3550DPPE   GL264456   1.793  11.134  15.230 -0.1773 -0.1907 -0.1625
 3550DPPE   C1A64457   1.733  10.620  15.181 -0.1042 -0.1927  0.2196
 3550DPPE   C2A64458   1.680  10.261  15.485 -0.1841 -0.0098  0.1344
 3550DPPE   C3A64459   1.239  10.006  15.498  0.0897 -0.3955  0.0144
 3550DPPE   C4A64460   0.923  10.089  15.145  0.1353 -0.2815 -0.0774
 3550DPPE   C1B64461   2.077  10.883  15.503  0.3302 -0.3362  0.2890
 3550DPPE   C2B64462   1.997  10.579  15.714  0.0778  0.5855 -0.1487
 3550DPPE   C3B64463   1.928  10.491  16.079 -0.1671  0.0062  0.1104
 3550DPPE   C4B64464   1.620  10.596  16.383  0.0388 -0.0636 -0.1973
 3551DPPE   NH364465   0.711  13.771   3.166 -0.0227 -0.2617 -0.0848
 3551DPPE   PO464466   0.860  14.246   3.074  0.0658 -0.3040  0.1244
 3551DPPE   GL164467   1.055  14.518   2.722  0.1226 -0.1956 -0.0066
 3551DPPE   GL264468   1.341  14.634   2.924 -0.2112  0.0481  0.0618
 3551DPPE   C1A64469   1.101  14.517   2.327  0.1223  0.4312  0.0258
 3551DPPE   C2A64470   1.050  14.791   2.053  0.0233 -0.3211 -0.3222
 3551DPPE   C3A64471   1.181  14.948   1.668 -0.1140  0.0941 -0.0141
 3551DPPE   C4A64472   1.556  14.860   1.578 -0.0764 -0.1089 -0.0340
 3551DPPE   C1B64473   1.649  14.963   2.762  0.1012 -0.1538 -0.2764
 3551DPPE   C2B64474   1.578  15.352   2.659  0.2805  0.3745  0.2750
 3551DPPE   C3B64475   1.765  15.589   2.434  0.1186 -0.0841  0.1490
 3551DPPE   C4B64476   2.261  15.743   2.395  0.2073  0.1613 -0.3897
 3552DPPE   NH364477   0.569  14.752   4.480  0.3559 -0.0280 -0.1502
 3552DPPE   PO464478   0.942  14.895   4.274 -0.1872 -0.0142 -0.0235
 3552DPPE   GL164479   1.225  15.080   4.525  0.1246  0.0551  0.2857
 3552DPPE   GL264480   1.632  15.008   4.459 -0.2610  0.0396  0.1324
 3552DPPE   C1A64481   1.521  15.408   4.640  0.0879  0.0120 -0.3762
 3552DPPE   C2A64482   1.875  15.786   4.653  0.1623  0.2949 -0.2738
 3552DPPE   C3A64483   2.136  16.064   4.798 -0.2004 -0.0038  0.0482
 3552DPPE   C4A64484   2.312  16.182   5.290  0.4168  0.0166  0.0409
 3552DPPE   C1B64485   1.991  14.807   4.561  0.1859 -0.0168  0.0821
 3552DPPE   C2B64486   2.363  14.724   4.695 -0.5391 -0.0238  0.0293
 3552DPPE   C3B64487   2.798  14.821   4.917 -0.0421 -0.0845 -0.3252
 3552DPPE   C4B64488   2.841  15.229   5.208  0.0838  0.1066  0.0157
 3553DPPE   NH364489  34.394  15.726  11.942  0.0860 -0.0900 -0.0201
 3553DPPE   PO464490  34.213  15.608  11.475 -0.4459 -0.0560 -0.0577
 3553DPPE   GL164491  34.160  15.150  11.379 -0.2338 -0.0744 -0.0036
 3553DPPE   GL264492  34.044  15.048  11.155  0.2489 -0.2566 -0.1520
 3553DPPE   C1A64493  33.889  14.768  11.477  0.2391  0.3469 -0.0459
 3553DPPE   C2A64494  33.604  14.461  11.251  0.2083 -0.1976 -0.0065
 3553DPPE   C3A64495  33.217  14.332  11.089  0.0180  0.0322 -0.0702
 3553DPPE   C4A64496  32.817  14.070  11.087 -0.1180 -0.2013  0.1865
 3553DPPE   C1B64497  33.641  14.906  10.945 -0.0839  0.2282  0.1551
 3553DPPE   C2B64498  33.273  14.706  10.748 -0.0940  0.1260 -0.1022
 3553DPPE   C3B64499  32.909  14.354  10.657 -0.0191 -0.1940  0.1743
 3553DPPE   C4B64500  32.881  14.043  10.335 -0.1188  0.1334 -0.2382
 3554DPPE   NH364501  36.924  14.129   9.164  0.1949 -0.1802 -0.3072
 3554DPPE   PO464502  36.692  14.519   8.962 -0.2450 -0.1439 -0.0657
 3554DPPE   GL164503  36.815  14.869   8.923 -0.3890 -0.0973 -0.4570
 3554DPPE   GL264504  36.830  15.016   9.230  0.0297  0.0845  0.0633
 3554DPPE   C1A64505  37.067  15.152   8.720  0.0800 -0.4030  0.1710
 3554DPPE   C2A64506  37.399  15.063   8.444 -0.3418 -0.0085 -0.0470
 3554DPPE   C3A64507  37.689  15.192   8.214  0.1582  0.0714  0.0247
 3554DPPE   C4A64508  38.047  15.427   8.142  0.2699 -0.1746  0.1123
 3554DPPE   C1B64509  37.240  15.237   9.224 -0.0447 -0.0134 -0.0707
 3554DPPE   C2B64510  37.686  15.275   9.315 -0.2893  0.1135  0.1061
 3554DPPE   C3B64511  38.085  15.552   9.307 -0.1325  0.0638  0.1190
 3554DPPE   C4B64512  38.513  15.598   9.154  0.0712 -0.1165 -0.0375
 3555DPPE   NH364513  36.010  15.046  16.304  0.0683 -0.2982 -0.1161
 3555DPPE   PO464514  35.852  15.435  16.139  0.1714  0.0549  0.1793
 3555DPPE   GL164515  35.552  15.244  16.331  0.2722  0.0034  0.3459
 3555DPPE   GL264516  35.660  15.183  16.671  0.0830  0.1840 -0.2249
 3555DPPE   C1A64517  35.241  14.922  16.481  0.2015  0.0805  0.2796
 3555DPPE   C2A64518  34.862  14.632  16.643  0.1690  0.1584 -0.0149
 3555DPPE   C3A64519  34.438  14.450  16.886  0.1622  0.0036  0.1082
 3555DPPE   C4A64520  34.151  14.243  16.714 -0.2688 -0.0075  0.1743
 3555DPPE   C1B64521  35.275  15.144  16.918  0.2875  0.1513  0.4098
 3555DPPE   C2B64522  34.969  14.948  17.016 -0.0414  0.0447 -0.1156
 3555DPPE   C3B64523  34.841  14.719  17.339  0.0082  0.1787 -0.0508
 3555DPPE   C4B64524  35.081  14.548  17.542 -0.2491  0.2311 -0.2002
 3556DPPE   NH364525  37.447  16.697  17.647  0.1463  0.2580 -0.1667
 3556DPPE   PO464526  37.348  16.802  17.278 -0.0563 -0.0652 -0.2157
 3556DPPE   GL164527  37.597  17.112  17.235  0.0508  0.3855 -0.4341
 3556DPPE   GL264528  37.779  17.085  17.547  0.2889  0.1998 -0.0622
 3556DPPE   C1A64529  37.991  17.386  17.212 -0.0675  0.0693  0.0365
 3556DPPE   C2A64530  38.455  17.403  17.284 -0.3438 -0.0755 -0.1700
 3556DPPE   C3A64531  38.993  17.289  17.351 -0.1914  0.1091 -0.1894
 3556DPPE   C4A64532  39.356  17.313  17.032 -0.1881 -0.0102  0.0976
 3556DPPE   C1B64533  37.885  17.332  17.768 -0.1331  0.0357  0.1918
 3556DPPE   C2B64534  38.219  17.482  17.734  0.1202  0.0461  0.0770
 3556DPPE   C3B64535  38.553  17.605  17.863 -0.4422 -0.2018 -0.1006
 3556DPPE   C4B64536  38.566  18.062  17.761 -0.0062  0.1033  0.0454
 3557DPPE   NH364537  35.220  16.637  16.793 -0.0733  0.0760  0.2052
 3557DPPE   PO464538  34.976  17.056  16.837  0.0997 -0.2085  0.2790
 3557DPPE   GL164539  34.502  16.998  17.069 -0.2013 -0.0160 -0.0913
 3557DPPE   GL264540  34.222  17.111  16.787 -0.1645 -0.0505  0.1488
 3557DPPE   C1A64541  34.138  16.754  17.095  0.3711  0.0127  0.2623
 3557DPPE   C2A64542  33.877  16.594  17.464  0.0225 -0.0263 -0.2227
 3557DPPE   C3A64543  33.668  16.419  17.797 -0.0874 -0.0698 -0.1392
 3557DPPE   C4A64544  33.375  16.383  18.105 -0.0793 -0.2002  0.3001
 3557DPPE   C1B64545  33.944  17.329  17.027  0.0646  0.0650  0.0717
 3557DPPE   C2B64546  33.607  17.454  17.141 -0.2154 -0.3813  0.0018
 3557DPPE   C3B64547  33.186  17.510  17.164 -0.0592 -0.0063 -0.0556
 3557DPPE   C4B64548  32.979  17.670  16.802  0.0271  0.1528 -0.0590
 3558DPPE   NH364549  37.251  14.758   4.006  0.1475  0.1374  0.1243
 3558DPPE   PO464550  37.293  14.880   4.519  0.4939  0.0956  0.0657
 3558DPPE   GL164551  37.216  14.399   4.322 -0.2025 -0.1535 -0.0794
 3558DPPE   GL264552  36.939  14.337   4.621 -0.0424  0.0601  0.0014
 3558DPPE   C1A64553  37.083  14.003   4.177 -0.1382 -0.1819  0.1778
 3558DPPE   C2A64554  36.846  13.861   3.888 -0.1447  0.0831 -0.1038
 3558DPPE   C3A64555  36.483  13.760   3.671 -0.1851 -0.2063  0.1437
 3558DPPE   C4A64556  36.036  13.849   3.543 -0.1675 -0.2654  0.2766
 3558DPPE   C1B64557  36.502  14.109   4.465  0.1735  0.1525  0.1661
 3558DPPE   C2B64558  36.220  13.873   4.598  0.2938 -0.0166 -0.1413
 3558DPPE   C3B64559  35.969  13.441   4.409  0.1779 -0.3691 -0.0622
 3558DPPE   C4B64560  35.839  13.027   4.342  0.0054  0.0934  0.2482
 3559DPPE   NH364561   0.009  14.184  18.362 -0.4204  0.0979 -0.3374
 3559DPPE   PO464562   0.395  14.379  18.535  0.1414 -0.4054 -0.0403
 3559DPPE   GL164563   0.214  14.541  18.971  0.0470 -0.0315  0.2052
 3559DPPE   GL264564   0.145  14.836  18.981  0.2146 -0.0661 -0.1488
 3559DPPE   C1A64565  -0.059  14.683  19.399 -0.1551  0.2208 -0.0136
 3559DPPE   C2A64566   0.150  14.807  19.683 -0.0015  0.1204 -0.1905
 3559DPPE   C3A64567   0.454  14.823  19.953  0.0510  0.2867  0.0754
 3559DPPE   C4A64568   0.877  14.615  19.948  0.0959 -0.0042  0.2740
 3559DPPE   C1B64569   0.144  15.161  19.281  0.0281  0.0318 -0.0523
 3559DPPE   C2B64570   0.395  15.585  19.287 -0.0829  0.3012  0.1301
 3559DPPE   C3B64571   0.383  16.053  19.353  0.1292 -0.0054 -0.3177
 3559DPPE   C4B64572   0.173  16.338  19.706  0.0389 -0.0959  0.1425
 3560DPPE   NH364573  37.986  15.352  18.087  0.0781 -0.0693 -0.0457
 3560DPPE   PO464574  38.346  15.188  18.216  0.1121  0.1111 -0.0046
 3560DPPE   GL164575  38.575  15.438  18.541 -0.2481 -0.0999  0.0959
 3560DPPE   GL264576  38.534  15.307  18.797  0.2527 -0.1661 -0.1745
 3560DPPE   C1A64577  38.912  15.670  18.674  0.2213  0.1294 -0.0304
 3560DPPE   C2A64578  39.153  15.850  19.018 -0.1331  0.0330 -0.1060
 3560DPPE   C3A64579  39.322  16.226  19.207  0.0238 -0.1578  0.5520
 3560DPPE   C4A64580  39.529  16.585  19.303  0.1933 -0.2968  0.3756
 3560DPPE   C1B64581  38.977  15.246  19.010 -0.1603  0.0979  0.0655
 3560DPPE   C2B64582  39.296  15.380  19.263  0.2572 -0.0677 -0.1752
 3560DPPE   C3B64583  39.439  15.804  19.571  0.0789 -0.0480  0.0510
 3560DPPE   C4B64584  39.632  15.752  19.992 -0.0230  0.3009  0.0979
 3561DPPE   NH364585  37.107  13.823  16.527 -0.1212 -0.2525 -0.2929
 3561DPPE   PO464586  36.996  14.374  16.575 -0.1176  0.1728 -0.0452
 3561DPPE   GL164587  36.680  14.151  16.706 -0.1764  0.4965  0.0824
 3561DPPE   GL264588  36.373  14.146  16.673 -0.1241  0.1709  0.0872
 3561DPPE   C1A64589  36.574  13.783  16.933  0.1937 -0.0522 -0.1404
 3561DPPE   C2A64590  36.532  13.414  17.189 -0.2060  0.0298 -0.0384
 3561DPPE   C3A64591  36.681  13.070  17.138  0.0693 -0.1129  0.0396
 3561DPPE   C4A64592  36.484  12.622  17.211  0.2115 -0.3496  0.0087
 3561DPPE   C1B64593  36.113  13.989  16.998 -0.1561  0.1630 -0.2478
 3561DPPE   C2B64594  36.145  13.638  17.285  0.2010  0.0372 -0.2160
 3561DPPE   C3B64595  36.052  13.360  17.509  0.1039  0.1364 -0.1611
 3561DPPE   C4B64596  35.967  13.108  17.826 -0.2599 -0.0642  0.3657
 3562DPPE   NH364597  36.245  17.499   6.473 -0.0624  0.0651  0.0093
 3562DPPE   PO464598  36.351  17.280   6.050  0.1830 -0.2256 -0.3744
 3562DPPE   GL164599  36.814  17.406   6.256 -0.1708  0.0013  0.1725
 3562DPPE   GL264600  36.773  17.265   6.554 -0.2158  0.2059 -0.2432
 3562DPPE   C1A64601  37.120  17.570   6.574 -0.2130  0.0444 -0.2767
 3562DPPE   C2A64602  37.540  17.682   6.694  0.1383  0.0505 -0.1446
 3562DPPE   C3A64603  37.954  17.914   6.786  0.1093 -0.0064  0.0410
 3562DPPE   C4A64604  38.291  17.797   7.061  0.1911  0.1373 -0.0383
 3562DPPE   C1B64605  37.160  17.028   6.606 -0.0328  0.2634  0.1023
 3562DPPE   C2B64606  37.490  17.250   6.390  0.0098 -0.1246  0.1190
 3562DPPE   C3B64607  37.910  17.378   6.520  0.1328  0.1022 -0.0113
 3562DPPE   C4B64608  38.086  17.372   6.829 -0.1762 -0.3252 -0.0079
 3563DPPE   NH364609  33.232  22.002  11.171  0.2393  0.0041  0.3575
 3563DPPE   PO464610  32.969  22.378  11.196  0.1742 -0.1719 -0.0053
 3563DPPE   GL164611  32.508  22.475  11.212 -0.3771  0.0430 -0.0716
 3563DPPE   GL264612  32.457  22.578  10.851 -0.1203 -0.1550 -0.0362
 3563DPPE   C1A64613  31.973  22.519  11.270  0.1194 -0.0229 -0.2256
 3563DPPE   C2A64614  31.664  22.238  11.292 -0.4626 -0.0799 -0.2218
 3563DPPE   C3A64615  31.242  22.236  11.288  0.2265 -0.0369 -0.0801
 3563DPPE   C4A64616  30.934  22.206  10.978  0.3329 -0.0204 -0.3656
 3563DPPE   C1B64617  32.084  22.648  10.680 -0.5362  0.0889  0.0362
 3563DPPE   C2B64618  31.760  22.639  10.733  0.3646  0.0391  0.0484
 3563DPPE   C3B64619  31.331  22.747  11.061  0.1230  0.0636 -0.1312
 3563DPPE   C4B64620  31.277  22.969  11.451 -0.0149  0.1312  0.1769
 3564DPPE   NH364621  33.017  18.356  11.610 -0.1854  0.0797 -0.1426
 3564DPPE   PO464622  32.954  18.665  11.338 -0.2501 -0.1785  0.3409
 3564DPPE   GL164623  32.688  18.357  11.224 -0.0428  0.2042  0.2401
 3564DPPE   GL264624  32.466  18.304  11.454 -0.3822 -0.1840 -0.1010
 3564DPPE   C1A64625  32.281  18.154  10.984 -0.1347  0.1841 -0.0743
 3564DPPE   C2A64626  32.085  17.724  10.897 -0.0307  0.6372 -0.0625
 3564DPPE   C3A64627  31.729  17.361  10.738  0.3272  0.1117  0.1248
 3564DPPE   C4A64628  31.724  16.978  10.554  0.2558  0.2000  0.0881
 3564DPPE   C1B64629  32.368  18.052  11.746  0.2458  0.1644 -0.0602
 3564DPPE   C2B64630  32.053  17.895  11.930 -0.0385 -0.0447  0.0761
 3564DPPE   C3B64631  31.676  17.818  12.206  0.1138 -0.0910  0.0077
 3564DPPE   C4B64632  31.536  18.055  12.560 -0.0980 -0.1289 -0.0291
 3565DPPE   NH364633  35.224  19.619   4.265  0.0043 -0.1098 -0.0152
 3565DPPE   PO464634  35.019  19.206   4.453  0.1507  0.3646  0.0649
 3565DPPE   GL164635  34.650  18.952   4.139 -0.1954 -0.0498 -0.0544
 3565DPPE   GL264636  34.458  19.065   3.910 -0.1472 -0.3230 -0.0167
 3565DPPE   C1A64637  34.283  18.665   4.107 -0.3052  0.3708  0.0465
 3565DPPE   C2A64638  34.015  18.636   3.771 -0.1217  0.2895 -0.1788
 3565DPPE   C3A64639  33.790  18.677   3.452  0.1506 -0.0848 -0.0038
 3565DPPE   C4A64640  33.581  18.679   2.995 -0.2446  0.1157  0.2724
 3565DPPE   C1B64641  34.180  19.148   3.638 -0.0184 -0.2163  0.2239
 3565DPPE   C2B64642  34.098  19.432   3.414  0.0420  0.2188  0.0097
 3565DPPE   C3B64643  34.126  19.615   2.986  0.0324 -0.0688  0.1171
 3565DPPE   C4B64644  34.340  19.983   2.853  0.2363 -0.3969  0.1179
 3566DPPE   NH364645   0.914  12.880   5.251 -0.0366  0.0142  0.2430
 3566DPPE   PO464646   0.594  12.620   5.063  0.0017 -0.2830  0.0426
 3566DPPE   GL164647   0.277  12.327   4.805 -0.2395 -0.1858 -0.1867
 3566DPPE   GL264648  -0.058  12.413   4.822 -0.0968 -0.2569  0.0022
 3566DPPE   C1A64649  -0.016  11.917   4.762 -0.2078  0.1068  0.0937
 3566DPPE   C2A64650  -0.069  11.484   4.620  0.1058 -0.2058 -0.2601
 3566DPPE   C3A64651  -0.371  11.149   4.578  0.0542  0.3318  0.0560
 3566DPPE   C4A64652  -0.787  11.373   4.566 -0.0826  0.0116  0.2097
 3566DPPE   C1B64653  -0.486  12.173   4.886 -0.0440  0.0790 -0.0547
 3566DPPE   C2B64654  -0.672  11.718   4.973 -0.2339 -0.1247  0.0288
 3566DPPE   C3B64655  -0.804  11.495   5.279  0.0121 -0.2751  0.2697
 3566DPPE   C4B64656  -1.071  11.119   5.398 -0.1336  0.2530 -0.3470
 3567DPPE   NH364657  36.466  14.173  10.143 -0.0269 -0.1215 -0.4187
 3567DPPE   PO464658  36.102  13.929  10.386 -0.1810 -0.0802  0.2360
 3567DPPE   GL164659  35.771  13.642  10.456  0.0519 -0.4858 -0.0065
 3567DPPE   GL264660  35.493  13.866  10.308  0.0938 -0.0517 -0.3511
 3567DPPE   C1A64661  35.602  13.288  10.529  0.0225  0.2794 -0.0232
 3567DPPE   C2A64662  35.244  13.042  10.446 -0.2076  0.1438 -0.1329
 3567DPPE   C3A64663  34.890  12.906  10.458  0.1283 -0.0589  0.0505
 3567DPPE   C4A64664  34.515  12.605  10.336  0.1031 -0.1534 -0.0656
 3567DPPE   C1B64665  35.195  13.510  10.297 -0.0908 -0.0441 -0.1442
 3567DPPE   C2B64666  34.777  13.364  10.136  0.0633  0.0945  0.2376
 3567DPPE   C3B64667  34.325  13.522  10.045 -0.0169  0.0056 -0.0023
 3567DPPE   C4B64668  33.873  13.399   9.911  0.1123 -0.2492  0.2330
 3568DPPE   NH364669  33.794  22.237  10.028 -0.1336  0.1941  0.2252
 3568DPPE   PO464670  34.058  22.036   9.820  0.0759 -0.1031  0.3141
 3568DPPE   GL164671  34.479  22.134   9.716 -0.4185 -0.3374  0.0760
 3568DPPE   GL264672  34.629  22.637   9.739  0.0095 -0.1283  0.1360
 3568DPPE   C1A64673  34.888  22.253   9.729 -0.0534 -0.1809 -0.0830
 3568DPPE   C2A64674  35.221  22.353   9.975  0.0766  0.2630  0.0922
 3568DPPE   C3A64675  35.416  22.732   9.921 -0.3962  0.0763 -0.0218
 3568DPPE   C4A64676  35.549  22.857   9.494  0.2356 -0.1732  0.1076
 3568DPPE   C1B64677  34.997  22.778   9.606  0.3547 -0.0468  0.0319
 3568DPPE   C2B64678  35.188  23.186   9.701 -0.1330 -0.0917  0.2624
 3568DPPE   C3B64679  35.281  23.558   9.934  0.1193 -0.0121 -0.0280
 3568DPPE   C4B64680  35.361  23.765  10.372 -0.2926 -0.2165  0.0834
 3569DPPE   NH364681   2.157  12.415  14.572  0.0596 -0.0626  0.2042
 3569DPPE   PO464682   2.180  12.488  14.258  0.1421 -0.0153  0.1908
 3569DPPE   GL164683   2.534  12.659  14.268 -0.2352  0.0132 -0.0108
 3569DPPE   GL264684   2.414  12.937  14.418  0.0081 -0.2530  0.1596
 3569DPPE   C1A64685   3.011  12.647  14.331 -0.0001 -0.0888  0.0052
 3569DPPE   C2A64686   3.438  12.714  14.350  0.2006 -0.0881  0.1146
 3569DPPE   C3A64687   3.855  12.583  14.311  0.1280 -0.1595  0.0632
 3569DPPE   C4A64688   4.122  12.811  14.078  0.0372  0.0854 -0.0966
 3569DPPE   C1B64689   2.813  13.086  14.392  0.2293 -0.0304 -0.2736
 3569DPPE   C2B64690   3.074  13.286  14.662  0.3389  0.0527  0.0929
 3569DPPE   C3B64691   3.425  13.570  14.601  0.3024  0.2743 -0.1528
 3569DPPE   C4B64692   3.698  13.762  14.829  0.1118 -0.2116 -0.1870
 3570DPPE   NH364693  33.164  19.080  11.583 -0.0009 -0.1399 -0.2397
 3570DPPE   PO464694  33.209  19.271  11.119 -0.0013 -0.1132  0.0328
 3570DPPE   GL164695  32.896  19.100  11.099 -0.0969 -0.1369 -0.0438
 3570DPPE   GL264696  32.698  19.282  11.330 -0.1392  0.2042 -0.0140
 3570DPPE   C1A64697  32.481  18.864  11.035  0.0224  0.0299 -0.2664
 3570DPPE   C2A64698  32.125  18.759  10.932  0.0532 -0.1181 -0.4273
 3570DPPE   C3A64699  31.815  18.325  10.833 -0.1738 -0.1236  0.1062
 3570DPPE   C4A64700  31.679  17.901  11.043 -0.0383 -0.1034  0.2220
 3570DPPE   C1B64701  32.263  19.276  11.252 -0.3847  0.0261 -0.0128
 3570DPPE   C2B64702  31.809  19.323  11.199 -0.0679  0.1248 -0.4077
 3570DPPE   C3B64703  31.363  19.268  11.326 -0.2163  0.0388 -0.1361
 3570DPPE   C4B64704  31.107  18.901  11.257 -0.2283 -0.2138  0.0480
 3571DPPE   NH364705   1.938  12.919   5.657 -0.0204  0.2306 -0.1255
 3571DPPE   PO464706   1.701  13.259   5.697  0.2473 -0.1073 -0.1644
 3571DPPE   GL164707   2.040  13.398   5.663 -0.0437 -0.2344 -0.0886
 3571DPPE   GL264708   2.284  13.247   5.382  0.1284 -0.1319  0.2709
 3571DPPE   C1A64709   2.246  13.789   5.527 -0.2735  0.3404  0.0510
 3571DPPE   C2A64710   2.614  14.024   5.509 -0.2174 -0.2007  0.5760
 3571DPPE   C3A64711   2.959  14.227   5.721  0.1448 -0.0009  0.1137
 3571DPPE   C4A64712   3.388  14.086   5.787  0.0793 -0.1279  0.0559
 3571DPPE   C1B64713   2.752  13.331   5.157 -0.0521 -0.0121 -0.3554
 3571DPPE   C2B64714   3.143  13.240   5.109  0.5208 -0.0349 -0.1178
 3571DPPE   C3B64715   3.357  12.843   5.210  0.0037  0.1481  0.4808
 3571DPPE   C4B64716   3.685  12.651   5.392  0.2652  0.2320 -0.0028
 3572DPPE   NH364717  37.812  14.080   5.219 -0.0652 -0.1914  0.3182
 3572DPPE   PO464718  37.369  14.266   5.302  0.0207 -0.2806  0.3952
 3572DPPE   GL164719  36.989  14.157   5.103 -0.1598  0.0215  0.0566
 3572DPPE   GL264720  36.857  13.857   5.314  0.0429 -0.0113 -0.0036
 3572DPPE   C1A64721  36.618  14.049   4.931 -0.2102 -0.0269 -0.0838
 3572DPPE   C2A64722  36.300  13.860   5.160 -0.3104  0.0192  0.0155
 3572DPPE   C3A64723  35.930  13.592   4.966 -0.2287 -0.1303  0.0854
 3572DPPE   C4A64724  35.487  13.402   4.973 -0.1377  0.1555  0.1998
 3572DPPE   C1B64725  36.647  13.480   5.255 -0.0094 -0.4481 -0.2843
 3572DPPE   C2B64726  36.463  13.455   4.902  0.2386  0.1748 -0.1103
 3572DPPE   C3B64727  36.299  13.177   4.646 -0.6185  0.0412 -0.2006
 3572DPPE   C4B64728  36.326  12.825   4.682  0.2106  0.0493  0.1179
 3573DPPE   NH364729   1.715  12.603   3.494  0.4142  0.0344  0.0279
 3573DPPE   PO464730   1.939  12.824   3.289  0.1025  0.1378  0.1696
 3573DPPE   GL164731   2.237  12.967   3.224 -0.0649 -0.1131  0.0865
 3573DPPE   GL264732   2.121  13.247   3.083  0.0670 -0.1115 -0.3484
 3573DPPE   C1A64733   2.459  12.720   2.994 -0.1225  0.2235  0.1536
 3573DPPE   C2A64734   2.700  12.455   2.858 -0.0567  0.0682 -0.1912
 3573DPPE   C3A64735   3.184  12.303   2.897  0.2928  0.0898 -0.1988
 3573DPPE   C4A64736   3.522  11.947   2.775  0.0079  0.1173 -0.0701
 3573DPPE   C1B64737   2.133  13.384   2.721 -0.0813 -0.1065 -0.0006
 3573DPPE   C2B64738   2.516  13.537   2.583 -0.1642 -0.0184 -0.2126
 3573DPPE   C3B64739   2.932  13.585   2.647  0.2968 -0.2352  0.0864
 3573DPPE   C4B64740   3.357  13.769   2.459 -0.2947  0.0686  0.1416
 3574DPPE   NH364741  34.838  19.433   3.983  0.0640 -0.0268 -0.1220
 3574DPPE   PO464742  34.696  19.612   3.702  0.0593 -0.0467 -0.0364
 3574DPPE   GL164743  34.243  19.625   3.905  0.0892 -0.1628 -0.0969
 3574DPPE   GL264744  34.291  19.760   4.157 -0.0494  0.2743 -0.0661
 3574DPPE   C1A64745  33.796  19.576   3.943 -0.2575  0.0954 -0.1600
 3574DPPE   C2A64746  33.331  19.396   3.953 -0.0625 -0.2378 -0.0004
 3574DPPE   C3A64747  32.972  19.182   3.849 -0.3437  0.0721 -0.1371
 3574DPPE   C4A64748  32.530  19.167   3.640 -0.0094  0.0922 -0.0168
 3574DPPE   C1B64749  34.010  20.063   3.991  0.1137 -0.0999 -0.0493
 3574DPPE   C2B64750  33.742  20.310   3.936 -0.2708 -0.3628 -0.0768
 3574DPPE   C3B64751  33.349  20.327   3.913 -0.1918 -0.0667 -0.1532
 3574DPPE   C4B64752  32.956  20.467   3.880 -0.2900  0.3704 -0.0403
 3575DPPE   NH364753  35.687  17.614   7.937  0.0704 -0.3324  0.1294
 3575DPPE   PO464754  36.039  17.297   7.774 -0.0780  0.0092 -0.2801
 3575DPPE   GL164755  36.279  17.598   7.794 -0.0997 -0.3072 -0.4502
 3575DPPE   GL264756  36.115  17.842   8.049  0.0775 -0.2289  0.2582
 3575DPPE   C1A64757  36.686  17.832   7.881  0.0427  0.0603  0.0520
 3575DPPE   C2A64758  37.069  18.009   7.827 -0.2692  0.3851 -0.0828
 3575DPPE   C3A64759  37.490  18.091   7.708  0.1797 -0.0510 -0.1884
 3575DPPE   C4A64760  37.874  18.003   7.780  0.1550 -0.1160  0.0224
 3575DPPE   C1B64761  36.409  18.190   8.254  0.1895 -0.1579  0.1051
 3575DPPE   C2B64762  36.861  18.307   8.115 -0.1054 -0.1853 -0.2716
 3575DPPE   C3B64763  37.291  18.439   8.152 -0.0518 -0.0801 -0.0383
 3575DPPE   C4B64764  37.675  18.265   8.247  0.4530 -0.1626 -0.2129
 3576DPPE   NH364765  35.506  19.331   3.077 -0.0155 -0.1665  0.2949
 3576DPPE   PO464766  35.947  19.568   3.134 -0.2082  0.3314  0.0297
 3576DPPE   GL164767  35.967  19.412   2.716 -0.0125 -0.1227 -0.0839
 3576DPPE   GL264768  36.303  19.427   2.727 -0.2605  0.1178 -0.2264
 3576DPPE   C1A64769  35.941  19.386   2.381 -0.1209  0.0934 -0.0509
 3576DPPE   C2A64770  35.992  19.404   1.952  0.0213 -0.2355  0.1540
 3576DPPE   C3A64771  35.789  19.202   1.608  0.1200 -0.1572 -0.1538
 3576DPPE   C4A64772  35.869  19.100   1.212 -0.0046 -0.0110 -0.0009
 3576DPPE   C1B64773  36.647  19.542   2.498 -0.2438  0.1427  0.4370
 3576DPPE   C2B64774  36.936  19.891   2.434  0.0377  0.0286  0.0438
 3576DPPE   C3B64775  37.059  20.122   2.040 -0.1442  0.0153  0.3259
 3576DPPE   C4B64776  37.353  20.214   1.779 -0.1284 -0.2118  0.4045
 3577DPPE   NH364777  38.329  10.472  12.772  0.0108  0.1490  0.0438
 3577DPPE   PO464778  38.593  10.416  12.414 -0.2830 -0.1974 -0.0079
 3577DPPE   GL164779  38.415  10.019  12.347 -0.1343  0.1361  0.1292
 3577DPPE   GL264780  38.285  10.048  12.024  0.0132  0.0962 -0.3745
 3577DPPE   C1A64781  38.355   9.689  12.547 -0.1425 -0.1156 -0.1352
 3577DPPE   C2A64782  38.150   9.318  12.429  0.0446 -0.2035 -0.0330
 3577DPPE   C3A64783  37.855   8.929  12.197 -0.1441 -0.1823 -0.0172
 3577DPPE   C4A64784  37.740   8.771  11.777 -0.0566 -0.0086 -0.0608
 3577DPPE   C1B64785  38.352   9.614  12.019 -0.3520  0.1778 -0.0550
 3577DPPE   C2B64786  38.286   9.223  11.889 -0.0068 -0.2197  0.2863
 3577DPPE   C3B64787  38.159   9.132  11.416  0.0019 -0.0238  0.3469
 3577DPPE   C4B64788  38.212   9.259  11.017  0.0643 -0.1705 -0.0317
 3578DPPE   NH364789   0.380  15.788   2.823 -0.0242  0.0975 -0.0025
 3578DPPE   PO464790   0.544  15.788   2.578 -0.2899  0.1657  0.3482
 3578DPPE   GL164791   0.359  16.036   2.174  0.1005  0.1949  0.0513
 3578DPPE   GL264792  -0.015  16.193   2.202 -0.0138 -0.1441  0.0996
 3578DPPE   C1A64793   0.126  15.875   1.729 -0.0411  0.2765 -0.0148
 3578DPPE   C2A64794  -0.104  15.495   1.582 -0.1430  0.0396  0.2435
 3578DPPE   C3A64795   0.002  15.433   1.145 -0.0114  0.0410 -0.1675
 3578DPPE   C4A64796   0.062  15.685   0.798 -0.1516  0.3994  0.0171
 3578DPPE   C1B64797   0.040  16.343   1.661 -0.1416  0.2810  0.0239
 3578DPPE   C2B64798  -0.269  16.454   1.411 -0.1174 -0.1109  0.0814
 3578DPPE   C3B64799  -0.275  16.827   1.134  0.3609 -0.0802  0.1621
 3578DPPE   C4B64800  -0.065  17.094   1.206  0.2059 -0.0021  0.2382
 3579DPPE   NH364801  35.691  19.753  15.752  0.3494  0.0801  0.0598
 3579DPPE   PO464802  35.496  20.006  15.961  0.1723  0.3569 -0.2452
 3579DPPE   GL164803  35.586  20.443  16.056 -0.0395  0.2739 -0.0663
 3579DPPE   GL264804  35.735  20.506  15.789  0.0299  0.0832  0.0067
 3579DPPE   C1A64805  35.803  20.804  16.213  0.0074 -0.1487 -0.3254
 3579DPPE   C2A64806  36.090  21.192  16.224 -0.0682 -0.0221  0.2237
 3579DPPE   C3A64807  36.264  21.543  16.432  0.3501 -0.3063  0.4320
 3579DPPE   C4A64808  36.501  21.838  16.358  0.1265  0.1021 -0.1506
 3579DPPE   C1B64809  35.915  20.849  15.713  0.0481 -0.0530  0.3859
 3579DPPE   C2B64810  36.031  21.292  15.752 -0.0127 -0.3545  0.1733
 3579DPPE   C3B64811  36.291  21.537  15.911  0.0429  0.1353 -0.2420
 3579DPPE   C4B64812  36.536  21.826  15.863  0.1074  0.1617  0.1518
 3580DPPE   NH364813  34.232  22.929  11.186  0.1674  0.1934  0.1418
 3580DPPE   PO464814  34.175  23.216  10.840 -0.0368 -0.3488  0.1336
 3580DPPE   GL164815  34.510  23.379  10.995 -0.1242 -0.1851  0.1374
 3580DPPE   GL264816  34.529  23.454  11.363 -0.0105  0.2323 -0.0506
 3580DPPE   C1A64817  34.763  23.712  10.988 -0.0045  0.0127 -0.2986
 3580DPPE   C2A64818  35.025  24.132  10.976  0.5266  0.2749 -0.0363
 3580DPPE   C3A64819  35.167  24.353  11.317  0.1540 -0.0470 -0.0707
 3580DPPE   C4A64820  35.436  24.592  11.607  0.2733  0.2894 -0.0735
 3580DPPE   C1B64821  34.898  23.754  11.527 -0.0632  0.0758  0.3930
 3580DPPE   C2B64822  35.254  23.865  11.349  0.2249  0.0244 -0.3351
 3580DPPE   C3B64823  35.643  23.659  11.298  0.0116 -0.1905 -0.0630
 3580DPPE   C4B64824  35.987  23.810  11.529 -0.0816  0.1063  0.0518
 3581DPPE   NH364825  32.943  18.487  12.227 -0.3898 -0.1635 -0.1906
 3581DPPE   PO464826  33.038  18.759  11.897  0.1124  0.2584  0.0641
 3581DPPE   GL164827  32.658  18.665  11.713  0.1537  0.0592  0.0066
 3581DPPE   GL264828  32.482  18.936  11.618  0.2946  0.1144 -0.1049
 3581DPPE   C1A64829  32.316  18.512  11.870 -0.0426  0.0889  0.1333
 3581DPPE   C2A64830  31.903  18.367  11.660  0.3633 -0.0553  0.3145
 3581DPPE   C3A64831  31.633  18.347  11.320 -0.2145 -0.0597  0.1982
 3581DPPE   C4A64832  31.248  18.381  11.293 -0.2838  0.1157 -0.0859
 3581DPPE   C1B64833  32.139  18.827  11.521  0.0900  0.2660  0.3164
 3581DPPE   C2B64834  31.737  18.850  11.406  0.1413  0.1528 -0.1903
 3581DPPE   C3B64835  31.568  18.738  11.045  0.1148 -0.1677  0.1210
 3581DPPE   C4B64836  31.205  18.681  10.830 -0.1731 -0.0357  0.1378
 3582DPPE   NH364837  35.938  17.549  17.514 -0.0838 -0.0936  0.0485
 3582DPPE   PO464838  35.561  17.368  17.672 -0.1326 -0.2077  0.1080
 3582DPPE   GL164839  35.042  17.411  17.700 -0.0031  0.2772 -0.0286
 3582DPPE   GL264840  34.939  17.385  18.024  0.2056 -0.2359 -0.4080
 3582DPPE   C1A64841  34.564  17.231  17.740 -0.2474 -0.1793  0.0928
 3582DPPE   C2A64842  34.222  17.274  17.973  0.0004 -0.3521  0.0198
 3582DPPE   C3A64843  33.843  17.393  18.067  0.0661 -0.2235  0.1241
 3582DPPE   C4A64844  33.412  17.476  17.932 -0.1875 -0.1740 -0.2023
 3582DPPE   C1B64845  34.860  17.273  18.514  0.1131 -0.0418 -0.0336
 3582DPPE   C2B64846  34.515  17.002  18.743  0.0450 -0.0727  0.3892
 3582DPPE   C3B64847  34.189  16.785  19.164 -0.1736 -0.0723 -0.2524
 3582DPPE   C4B64848  33.809  16.514  19.257  0.2308 -0.3742 -0.1084
 3583DPPE   NH364849   0.974  11.400   7.006  0.2423 -0.1586 -0.2397
 3583DPPE   PO464850   0.580  11.419   7.110  0.4613 -0.1852  0.1821
 3583DPPE   GL164851   0.363  11.370   6.798 -0.0934  0.1688  0.2595
 3583DPPE   GL264852   0.257  11.106   6.807 -0.3672 -0.0985  0.1512
 3583DPPE   C1A64853   0.262  11.327   6.336 -0.1972 -0.0813 -0.0845
 3583DPPE   C2A64854  -0.028  11.086   6.197  0.0326  0.0362  0.0694
 3583DPPE   C3A64855  -0.211  10.634   6.356  0.0128  0.0378  0.0532
 3583DPPE   C4A64856  -0.502  10.417   6.296 -0.2546 -0.1684 -0.3741
 3583DPPE   C1B64857   0.003  10.717   6.756  0.0479  0.1426 -0.0363
 3583DPPE   C2B64858  -0.052  10.263   6.768  0.1583  0.0357  0.3788
 3583DPPE   C3B64859   0.070   9.784   6.687 -0.0665 -0.0232 -0.2117
 3583DPPE   C4B64860   0.411   9.361   6.786  0.3904 -0.0275 -0.1627
 3584DPPE   NH364861  34.981  16.357  11.683 -0.0075 -0.1625  0.0503
 3584DPPE   PO464862  35.232  16.345  12.069 -0.1792 -0.0236 -0.0238
 3584DPPE   GL164863  35.375  16.744  12.268  0.1784  0.2515 -0.2690
 3584DPPE   GL264864  35.301  17.087  12.378 -0.0393 -0.2714  0.1384
 3584DPPE   C1A64865  35.825  16.934  12.287  0.1305 -0.0695  0.2103
 3584DPPE   C2A64866  36.159  17.123  12.358  0.0828  0.1761 -0.2759
 3584DPPE   C3A64867  36.613  17.265  12.435 -0.1939 -0.5054 -0.4109
 3584DPPE   C4A64868  37.113  17.411  12.312  0.2310  0.1041  0.2042
 3584DPPE   C1B64869  35.467  17.199  12.731 -0.1514  0.0399 -0.1555
 3584DPPE   C2B64870  35.906  17.482  12.552 -0.2762 -0.0723  0.0074
 3584DPPE   C3B64871  36.265  17.807  12.475 -0.2349  0.0037 -0.1984
 3584DPPE   C4B64872  36.699  17.778  12.449 -0.2345 -0.0752 -0.2002
 3585DPPE   NH364873  34.873  23.578   6.435  0.1201  0.1388  0.0309
 3585DPPE   PO464874  34.762  23.525   6.013 -0.1747  0.0749  0.1403
 3585DPPE   GL164875  35.070  23.875   6.033 -0.0017  0.2286 -0.1659
 3585DPPE   GL264876  34.978  24.030   6.307  0.2872  0.0212 -0.1177
 3585DPPE   C1A64877  35.446  23.982   6.010 -0.0037  0.0589 -0.1766
 3585DPPE   C2A64878  35.577  24.375   5.941  0.1769  0.3932  0.3654
 3585DPPE   C3A64879  35.557  24.803   5.778  0.1611 -0.0562  0.2314
 3585DPPE   C4A64880  35.831  25.117   5.496 -0.2533 -0.2042  0.1295
 3585DPPE   C1B64881  35.240  24.465   6.314  0.1765 -0.1797 -0.1931
 3585DPPE   C2B64882  35.651  24.700   6.308 -0.0124 -0.0065 -0.0020
 3585DPPE   C3B64883  36.024  24.914   6.110  0.1012  0.2778 -0.0745
 3585DPPE   C4B64884  36.199  25.165   5.843 -0.1359  0.0253 -0.0798
 3586DPPE   NH364885  37.601  14.283  13.474  0.2595  0.0735 -0.2095
 3586DPPE   PO464886  37.097  14.560  13.417  0.1797  0.2776  0.2050
 3586DPPE   GL164887  37.405  14.795  13.250 -0.1094 -0.0489  0.0142
 3586DPPE   GL264888  37.490  14.837  12.900 -0.1092  0.3351 -0.2075
 3586DPPE   C1A64889  37.537  15.182  13.288  0.0414 -0.2310 -0.1431
 3586DPPE   C2A64890  37.846  15.501  13.119  0.1061  0.1126  0.0196
 3586DPPE   C3A64891  38.155  15.836  12.975  0.0267  0.0286 -0.1677
 3586DPPE   C4A64892  38.149  16.270  13.021 -0.1114  0.0413 -0.0369
 3586DPPE   C1B64893  37.939  15.050  12.992  0.1975  0.1987  0.1121
 3586DPPE   C2B64894  38.275  15.338  12.810  0.0098 -0.3829 -0.2540
 3586DPPE   C3B64895  38.679  15.353  12.498  0.1231 -0.2302 -0.0016
 3586DPPE   C4B64896  39.159  15.349  12.484  0.0440  0.0017  0.0948
 3587DPPE   NH364897   1.837  11.572   7.779  0.0443 -0.2846 -0.0768
 3587DPPE   PO464898   1.825  11.893   8.004 -0.1355  0.0272  0.0266
 3587DPPE   GL164899   2.243  11.975   8.046  0.0079 -0.3036 -0.2205
 3587DPPE   GL264900   2.387  11.866   8.376  0.0853 -0.2979 -0.2696
 3587DPPE   C1A64901   2.530  12.263   7.808 -0.4286 -0.1825  0.1631
 3587DPPE   C2A64902   2.806  12.628   7.615 -0.2268 -0.0114  0.2846
 3587DPPE   C3A64903   3.107  12.708   7.305  0.3434  0.3766 -0.0822
 3587DPPE   C4A64904   3.508  12.781   7.295  0.0180  0.0084 -0.1484
 3587DPPE   C1B64905   2.761  11.889   8.642  0.0005  0.2047  0.0186
 3587DPPE   C2B64906   3.120  12.064   8.506 -0.1348  0.1915  0.3380
 3587DPPE   C3B64907   3.475  12.266   8.283  0.2837 -0.2157 -0.0716
 3587DPPE   C4B64908   3.640  12.547   7.999 -0.0027  0.0997 -0.1030
 3588DPPE   NH364909   1.319  13.394   5.363 -0.1130 -0.4697 -0.0535
 3588DPPE   PO464910   1.100  13.703   5.686 -0.0371  0.3198 -0.4679
 3588DPPE   GL164911   1.471  13.835   5.635 -0.2599 -0.1017  0.1860
 3588DPPE   GL264912   1.719  13.741   5.285 -0.3990  0.2136 -0.1881
 3588DPPE   C1A64913   1.785  13.878   5.825 -0.0314 -0.2330 -0.1317
 3588DPPE   C2A64914   2.088  13.706   6.067  0.2498 -0.1766 -0.4343
 3588DPPE   C3A64915   2.316  13.589   6.360 -0.2016 -0.0527 -0.0866
 3588DPPE   C4A64916   2.697  13.287   6.446  0.0570  0.4216  0.1852
 3588DPPE   C1B64917   1.962  14.040   4.997  0.1760 -0.0808 -0.1858
 3588DPPE   C2B64918   2.407  14.280   4.895  0.0902  0.1007  0.2661
 3588DPPE   C3B64919   2.703  14.287   4.957 -0.0457  0.1855 -0.0780
 3588DPPE   C4B64920   3.117  14.489   5.192  0.0178 -0.2939 -0.3752
 3589DPPE   NH364921  33.819  18.247   9.375 -0.1739 -0.0631  0.1565
 3589DPPE   PO464922  34.062  18.570   9.300 -0.2342 -0.0747 -0.1714
 3589DPPE   GL164923  34.467  18.881   9.385 -0.1358 -0.2554  0.0818
 3589DPPE   GL264924  34.696  19.024   9.189 -0.1189  0.4083 -0.0628
 3589DPPE   C1A64925  35.008  18.896   9.536 -0.1604 -0.0990 -0.0751
 3589DPPE   C2A64926  35.405  18.797   9.776  0.1691 -0.3665 -0.0110
 3589DPPE   C3A64927  35.780  18.944   9.813  0.3227  0.1142 -0.0067
 3589DPPE   C4A64928  36.113  18.905  10.095  0.2136 -0.4236 -0.1249
 3589DPPE   C1B64929  35.065  19.059   9.049  0.1091  0.1553 -0.0294
 3589DPPE   C2B64930  35.454  19.189   9.394  0.0680  0.0980 -0.1498
 3589DPPE   C3B64931  35.917  19.080   9.344 -0.2939  0.0192 -0.1874
 3589DPPE   C4B64932  36.248  19.034   9.599  0.0223  0.0442  0.1749
 3590DPPE   NH364933  35.417  17.626   5.913 -0.1843  0.0543  0.0650
 3590DPPE   PO464934  34.993  17.603   5.632 -0.2794 -0.0256 -0.0045
 3590DPPE   GL164935  34.589  17.474   5.670 -0.0362  0.0135  0.1499
 3590DPPE   GL264936  34.451  17.372   6.031  0.1806 -0.1588  0.0092
 3590DPPE   C1A64937  34.192  17.285   5.597  0.1354  0.2176 -0.1812
 3590DPPE   C2A64938  33.965  16.916   5.394  0.0449 -0.0590  0.2809
 3590DPPE   C3A64939  33.557  16.990   5.230  0.2092 -0.1122  0.0890
 3590DPPE   C4A64940  33.208  16.885   5.315  0.1988 -0.3251 -0.1457
 3590DPPE   C1B64941  34.361  17.014   6.032  0.1253 -0.2598 -0.1769
 3590DPPE   C2B64942  34.129  16.785   5.808  0.0823  0.1432 -0.1611
 3590DPPE   C3B64943  33.648  16.698   5.786  0.1942  0.2723 -0.2042
 3590DPPE   C4B64944  33.252  16.590   5.886  0.1782 -0.0167 -0.3738
 3591DPPE   NH364945  35.297  21.375   6.229 -0.1639  0.2270 -0.1101
 3591DPPE   PO464946  35.146  20.858   6.209  0.1613  0.2428  0.0491
 3591DPPE   GL164947  35.479  20.674   6.420  0.0077 -0.1605  0.1216
 3591DPPE   GL264948  35.573  21.009   6.362 -0.1595  0.1777  0.1686
 3591DPPE   C1A64949  35.816  20.448   6.562  0.0230  0.0777 -0.2750
 3591DPPE   C2A64950  35.991  20.252   6.972 -0.1611 -0.3631 -0.0577
 3591DPPE   C3A64951  36.260  19.902   6.929 -0.0401  0.0626  0.3332
 3591DPPE   C4A64952  36.415  19.696   6.687  0.2711 -0.0744  0.1380
 3591DPPE   C1B64953  36.029  20.881   6.399 -0.0819 -0.0347  0.1022
 3591DPPE   C2B64954  36.367  20.687   6.596 -0.0134  0.2044  0.0249
 3591DPPE   C3B64955  36.429  20.465   7.005 -0.1978 -0.2407 -0.0076
 3591DPPE   C4B64956  36.437  20.135   7.386  0.0523 -0.1250 -0.1350
 3592DPPE   NH364957  34.060  21.395  12.032 -0.0160  0.0213  0.3995
 3592DPPE   PO464958  33.987  21.533  11.633  0.0473  0.0961  0.1451
 3592DPPE   GL164959  34.481  21.376  11.554 -0.0890 -0.1015 -0.0750
 3592DPPE   GL264960  34.529  21.341  11.909 -0.2648  0.0550 -0.1647
 3592DPPE   C1A64961  34.950  21.356  11.505  0.2638 -0.1228 -0.3839
 3592DPPE   C2A64962  35.385  21.401  11.430  0.1009 -0.0955  0.0461
 3592DPPE   C3A64963  35.758  21.519  11.676  0.0818 -0.1971  0.1941
 3592DPPE   C4A64964  36.021  21.792  11.549 -0.3177 -0.2221 -0.3800
 3592DPPE   C1B64965  34.861  21.171  12.125 -0.0588  0.2055  0.0943
 3592DPPE   C2B64966  35.140  21.074  11.932  0.0022 -0.1657  0.2371
 3592DPPE   C3B64967  35.525  21.018  11.654  0.0160  0.1218 -0.0178
 3592DPPE   C4B64968  35.959  20.896  11.706  0.0134 -0.3074  0.1204
 3593DPPE   NH364969  34.231  23.096  13.542 -0.1467 -0.0530 -0.0618
 3593DPPE   PO464970  34.163  22.716  13.816 -0.2333 -0.0255 -0.1795
 3593DPPE   GL164971  34.324  22.914  14.176 -0.2562  0.0429 -0.1438
 3593DPPE   GL264972  34.665  23.010  13.971 -0.0610  0.1288 -0.2750
 3593DPPE   C1A64973  34.248  22.978  14.569 -0.0842 -0.1896  0.1248
 3593DPPE   C2A64974  34.110  23.283  14.874  0.1254 -0.0208 -0.1549
 3593DPPE   C3A64975  33.997  23.704  14.849  0.1672  0.0178 -0.2575
 3593DPPE   C4A64976  34.114  24.115  14.829  0.4372 -0.0735 -0.0839
 3593DPPE   C1B64977  34.657  23.520  14.081  0.0126  0.0087 -0.2350
 3593DPPE   C2B64978  34.743  23.963  14.072 -0.2088  0.0710 -0.0754
 3593DPPE   C3B64979  34.799  24.318  13.799 -0.0006  0.0687  0.0286
 3593DPPE   C4B64980  35.230  24.321  13.685 -0.1532  0.0658 -0.1702
 3594DPPE   NH364981  34.029  23.023   6.426  0.3157 -0.2319 -0.1712
 3594DPPE   PO464982  34.326  22.860   6.237 -0.2538  0.1422 -0.1085
 3594DPPE   GL164983  34.135  23.041   5.876  0.3385  0.0980 -0.0730
 3594DPPE   GL264984  34.223  23.300   5.710 -0.1417  0.1974  0.2727
 3594DPPE   C1A64985  33.935  22.839   5.413 -0.4040 -0.0487 -0.1478
 3594DPPE   C2A64986  33.825  22.894   5.013  0.0853 -0.1024 -0.0899
 3594DPPE   C3A64987  34.014  23.152   4.691 -0.1533 -0.0999 -0.2259
 3594DPPE   C4A64988  34.199  23.467   4.724 -0.1636  0.2263  0.1140
 3594DPPE   C1B64989  34.333  23.712   5.552 -0.0213 -0.2516 -0.2646
 3594DPPE   C2B64990  34.638  24.017   5.548 -0.2534  0.1283 -0.1307
 3594DPPE   C3B64991  35.066  24.087   5.592 -0.0154  0.4204  0.1845
 3594DPPE   C4B64992  35.422  24.188   5.500 -0.2010  0.1911 -0.1995
 3595DPPE   NH364993  34.669  15.995  14.872  0.3954 -0.0377  0.1600
 3595DPPE   PO464994  34.958  15.680  14.659 -0.0086 -0.1156  0.0218
 3595DPPE   GL164995  34.657  15.438  14.897 -0.0961 -0.1030  0.2052
 3595DPPE   GL264996  34.472  15.649  15.142 -0.3226  0.1360  0.3332
 3595DPPE   C1A64997  34.367  15.075  15.086  0.1447  0.0811  0.0960
 3595DPPE   C2A64998  34.095  14.785  15.202 -0.5064  0.2805  0.0202
 3595DPPE   C3A64999  33.915  14.471  15.364  0.1100  0.0455  0.2761
 3595DPPE   C4A65000  33.670  14.082  15.529 -0.0182  0.3514 -0.0749
 3595DPPE   C1B65001  34.142  15.467  15.388 -0.1412 -0.0273  0.0394
 3595DPPE   C2B65002  34.016  15.195  15.723 -0.1270  0.2516  0.3004
 3595DPPE   C3B65003  33.964  14.757  15.955  0.3656 -0.3083  0.1482
 3595DPPE   C4B65004  33.955  14.376  16.295  0.0527  0.0558  0.1782
 3596DPPE   NH365005   1.536  12.287   7.850 -0.1420 -0.1406 -0.0034
 3596DPPE   PO465006   1.433  12.186   8.245  0.1895  0.1804 -0.0642
 3596DPPE   GL165007   1.895  12.342   8.223 -0.1317 -0.2490 -0.0932
 3596DPPE   GL265008   1.924  12.491   8.548  0.1211  0.1272 -0.2351
 3596DPPE   C1A65009   2.196  12.542   8.011 -0.0180 -0.3729 -0.1895
 3596DPPE   C2A65010   2.605  12.749   8.193 -0.0146  0.0401  0.0185
 3596DPPE   C3A65011   2.831  12.932   8.036 -0.0304 -0.3033  0.0100
 3596DPPE   C4A65012   2.952  13.325   7.940  0.0504 -0.1451 -0.1352
 3596DPPE   C1B65013   2.297  12.491   8.505 -0.3547 -0.1220  0.2264
 3596DPPE   C2B65014   2.629  12.261   8.321  0.0946  0.3056  0.3814
 3596DPPE   C3B65015   3.012  12.310   8.104  0.2529 -0.4609 -0.0089
 3596DPPE   C4B65016   3.272  12.337   7.700  0.1139  0.2430 -0.0918
 3597DPPE   NH365017  38.150  13.302  12.394  0.0053 -0.3723  0.1911
 3597DPPE   PO465018  37.735  13.524  12.294  0.2346 -0.4296  0.1671
 3597DPPE   GL165019  37.927  13.795  12.050  0.1247 -0.1054 -0.1895
 3597DPPE   GL265020  38.236  13.810  12.224  0.2372  0.1250  0.1404
 3597DPPE   C1A65021  37.966  14.219  12.237 -0.1823 -0.2868 -0.1925
 3597DPPE   C2A65022  38.219  14.582  12.247 -0.3377  0.3891 -0.2171
 3597DPPE   C3A65023  38.397  14.895  11.896  0.4460  0.0440  0.0357
 3597DPPE   C4A65024  38.663  15.167  11.585 -0.1308 -0.1754  0.0673
 3597DPPE   C1B65025  38.288  14.112  11.917 -0.1285 -0.2532 -0.5147
 3597DPPE   C2B65026  38.314  14.466  11.672 -0.3010 -0.1756  0.0931
 3597DPPE   C3B65027  38.439  14.757  11.399 -0.1758 -0.1240 -0.1258
 3597DPPE   C4B65028  38.401  15.202  11.124  0.0436  0.0079 -0.1564
 3598DPPE   NH365029  36.164  13.152  11.733 -0.1083  0.2771 -0.3813
 3598DPPE   PO465030  35.944  13.385  11.806  0.3566 -0.1940  0.2684
 3598DPPE   GL165031  35.633  13.188  11.627 -0.2599 -0.3016  0.1714
 3598DPPE   GL265032  35.830  13.010  11.371 -0.3602  0.1457  0.1577
 3598DPPE   C1A65033  35.290  13.020  11.628  0.1343  0.1053  0.2094
 3598DPPE   C2A65034  35.189  12.659  11.373 -0.0474 -0.0443  0.5112
 3598DPPE   C3A65035  34.842  12.450  11.270 -0.1563 -0.1049 -0.1024
 3598DPPE   C4A65036  34.488  12.139  11.168 -0.1331  0.3741 -0.0083
 3598DPPE   C1B65037  35.709  12.621  11.273 -0.0686 -0.5593 -0.3674
 3598DPPE   C2B65038  35.347  12.496  10.867 -0.1863  0.1680  0.0581
 3598DPPE   C3B65039  35.002  12.458  10.614  0.1330  0.1697  0.2608
 3598DPPE   C4B65040  34.630  12.163  10.672  0.0322  0.1711  0.0504
 3599DPPE   NH365041  36.085  18.145  16.339 -0.2492 -0.0118 -0.2638
 3599DPPE   PO465042  36.178  17.844  16.002 -0.1447 -0.0184 -0.1987
 3599DPPE   GL165043  36.530  17.868  15.637  0.0556  0.0368  0.0943
 3599DPPE   GL265044  36.572  18.162  15.357  0.0323 -0.2660 -0.2854
 3599DPPE   C1A65045  36.997  17.779  15.545  0.2489  0.2161  0.0110
 3599DPPE   C2A65046  37.380  17.807  15.530  0.1614  0.1670  0.4310
 3599DPPE   C3A65047  37.821  17.609  15.544  0.0091 -0.0657 -0.0980
 3599DPPE   C4A65048  38.150  17.445  15.352  0.1551  0.0566 -0.0853
 3599DPPE   C1B65049  37.020  18.146  15.250  0.3738  0.1250 -0.2021
 3599DPPE   C2B65050  37.381  17.947  14.964 -0.0421  0.0374 -0.0735
 3599DPPE   C3B65051  37.764  17.649  14.984 -0.0779 -0.0322 -0.1088
 3599DPPE   C4B65052  38.159  17.688  14.913 -0.2543 -0.2284  0.1989
 3600DPPE   NH365053   1.215  12.743   7.280  0.3157  0.0439 -0.0576
 3600DPPE   PO465054   1.264  12.687   7.730  0.1054 -0.1671 -0.2303
 3600DPPE   GL165055   1.339  12.744   8.062  0.4880 -0.1584  0.3710
 3600DPPE   GL265056   1.266  12.702   8.432 -0.0291  0.0247  0.3470
 3600DPPE   C1A65057   1.712  12.840   8.270  0.5247  0.2520  0.3632
 3600DPPE   C2A65058   2.162  13.033   8.192 -0.2111  0.1501 -0.2413
 3600DPPE   C3A65059   2.532  13.277   8.256 -0.2111  0.2668  0.0935
 3600DPPE   C4A65060   2.784  13.605   8.290 -0.0550  0.2394 -0.1126
 3600DPPE   C1B65061   1.302  13.127   8.407 -0.0520  0.0253  0.0269
 3600DPPE   C2B65062   1.419  13.590   8.501  0.1089 -0.0691  0.0525
 3600DPPE   C3B65063   1.817  13.782   8.490 -0.2758  0.1859  0.0652
 3600DPPE   C4B65064   2.290  13.697   8.343  0.2190 -0.0545 -0.1424
 3601DPPE   NH365065  33.829  23.597   7.489  0.1262 -0.1868 -0.1394
 3601DPPE   PO465066  33.751  23.351   7.142 -0.1868 -0.2715  0.3433
 3601DPPE   GL165067  33.618  23.832   6.986 -0.0067  0.0849  0.0726
 3601DPPE   GL265068  33.897  23.946   6.777 -0.1937 -0.0663  0.2151
 3601DPPE   C1A65069  33.566  24.199   7.006  0.2646 -0.1812  0.0618
 3601DPPE   C2A65070  33.337  24.620   6.978 -0.2147 -0.0417 -0.1606
 3601DPPE   C3A65071  32.914  24.790   6.915  0.3590  0.2452  0.2052
 3601DPPE   C4A65072  32.604  24.845   6.562 -0.2044  0.0241  0.2355
 3601DPPE   C1B65073  34.044  24.270   6.554 -0.1193 -0.0589 -0.0820
 3601DPPE   C2B65074  33.892  24.567   6.368  0.0174 -0.1819 -0.0520
 3601DPPE   C3B65075  33.992  25.060   6.261 -0.0444 -0.3115  0.2247
 3601DPPE   C4B65076  34.178  25.225   6.473  0.3142 -0.1537 -0.0408
 3602DPPE   NH365077  33.270  23.088  12.012 -0.0718 -0.0644  0.1557
 3602DPPE   PO465078  32.929  22.995  11.795 -0.1205  0.1412  0.2710
 3602DPPE   GL165079  32.593  23.005  11.589  0.2655 -0.3818  0.1686
 3602DPPE   GL265080  32.342  22.741  11.640 -0.4165 -0.3470  0.0973
 3602DPPE   C1A65081  32.270  23.232  11.532 -0.0880  0.3961  0.3214
 3602DPPE   C2A65082  32.122  23.428  11.287 -0.1541  0.1124  0.1180
 3602DPPE   C3A65083  32.039  23.478  10.835  0.0029  0.1193  0.1698
 3602DPPE   C4A65084  31.753  23.864  10.713  0.1339  0.1059  0.1867
 3602DPPE   C1B65085  31.937  22.881  11.606  0.0369  0.1857  0.2588
 3602DPPE   C2B65086  31.713  23.225  11.638 -0.0127 -0.0112 -0.0496
 3602DPPE   C3B65087  31.808  23.639  11.571  0.1550  0.0008 -0.0971
 3602DPPE   C4B65088  31.991  23.990  11.440  0.2450  0.0425  0.0171
 3603DPPE   NH365089  36.035  20.170   5.530  0.1346  0.1116 -0.2708
 3603DPPE   PO465090  35.701  20.622   5.372 -0.0443  0.1777  0.1383
 3603DPPE   GL165091  36.082  20.786   5.493 -0.1113  0.0954 -0.0671
 3603DPPE   GL265092  36.255  21.025   5.397  0.1303  0.3781  0.0814
 3603DPPE   C1A65093  36.328  20.875   5.960 -0.2142 -0.3682 -0.0833
 3603DPPE   C2A65094  36.545  21.073   6.226 -0.2534  0.3810  0.2008
 3603DPPE   C3A65095  36.800  21.069   6.462  0.0426  0.0522 -0.3404
 3603DPPE   C4A65096  37.214  20.850   6.586 -0.3460 -0.2577  0.1893
 3603DPPE   C1B65097  36.673  20.847   5.381 -0.0821 -0.5270  0.1225
 3603DPPE   C2B65098  36.969  20.630   5.137 -0.0400 -0.0705  0.0609
 3603DPPE   C3B65099  37.370  20.661   5.116  0.0302  0.2977  0.1848
 3603DPPE   C4B65100  37.657  20.744   4.845  0.0840  0.1078 -0.0215
 3604DPPE   NH365101   2.029  13.656  16.271  0.2156  0.1072  0.0468
 3604DPPE   PO465102   1.922  13.503  16.613  0.0345 -0.3470 -0.0707
 3604DPPE   GL165103   1.948  13.432  16.961  0.1276  0.0166 -0.1300
 3604DPPE   GL265104   1.756  13.422  17.257 -0.3790  0.2051  0.3445
 3604DPPE   C1A65105   2.195  13.171  17.153 -0.1271  0.1581 -0.3588
 3604DPPE   C2A65106   2.621  13.045  17.026 -0.1684 -0.3087  0.0143
 3604DPPE   C3A65107   2.832  12.626  16.753  0.4228  0.0475  0.0070
 3604DPPE   C4A65108   3.135  12.600  16.481 -0.1162  0.0799 -0.2115
 3604DPPE   C1B65109   2.168  13.564  17.463 -0.1548 -0.1308 -0.0967
 3604DPPE   C2B65110   2.571  13.457  17.378  0.0061  0.1390 -0.0398
 3604DPPE   C3B65111   2.842  13.652  17.499  0.0800  0.3223 -0.0818
 3604DPPE   C4B65112   3.254  13.798  17.662  0.1162 -0.0086 -0.0462
 3605DPPE   NH365113  34.147  17.082  15.654  0.3001  0.4490  0.1312
 3605DPPE   PO465114  34.066  17.087  15.201 -0.1009  0.0453 -0.1183
 3605DPPE   GL165115  33.582  17.039  15.360 -0.2538 -0.2317  0.1687
 3605DPPE   GL265116  33.602  16.923  15.702  0.0025 -0.1427  0.3380
 3605DPPE   C1A65117  33.149  16.782  15.348  0.1690 -0.3781 -0.3017
 3605DPPE   C2A65118  32.814  16.536  15.589 -0.1072 -0.1776 -0.5097
 3605DPPE   C3A65119  32.516  16.491  15.983  0.1543  0.2543 -0.3151
 3605DPPE   C4A65120  32.079  16.551  16.299 -0.1460 -0.2056  0.1148
 3605DPPE   C1B65121  33.379  16.507  15.668 -0.1972  0.0447 -0.0239
 3605DPPE   C2B65122  33.042  16.134  15.844 -0.0442  0.1394 -0.1397
 3605DPPE   C3B65123  32.872  16.133  16.279 -0.0369 -0.0170 -0.0882
 3605DPPE   C4B65124  32.852  15.734  16.208 -0.1456 -0.0899  0.0412
 3606DPPE   NH365125  37.824  16.415   3.802  0.3361  0.1593 -0.3766
 3606DPPE   PO465126  38.133  16.821   3.799 -0.0767  0.1549  0.2044
 3606DPPE   GL165127  38.439  17.084   3.873 -0.1014  0.0872 -0.0059
 3606DPPE   GL265128  38.430  17.378   3.693 -0.0383  0.1996  0.1801
 3606DPPE   C1A65129  38.785  17.273   4.121  0.2845  0.0707  0.5072
 3606DPPE   C2A65130  39.020  17.460   4.443  0.1296 -0.0339  0.0881
 3606DPPE   C3A65131  39.384  17.371   4.785  0.1870 -0.4007 -0.0242
 3606DPPE   C4A65132  39.772  17.116   4.775 -0.1727 -0.0525  0.2688
 3606DPPE   C1B65133  38.783  17.681   3.766  0.0777  0.3604  0.6034
 3606DPPE   C2B65134  39.038  18.079   3.853 -0.0299  0.1336 -0.1452
 3606DPPE   C3B65135  39.196  18.395   3.924 -0.1790  0.0404  0.1504
 3606DPPE   C4B65136  39.128  18.850   3.984 -0.3752 -0.1337  0.0758
 3607DPPE   NH365137   1.342  14.251   3.238  0.0118  0.1581 -0.3517
 3607DPPE   PO465138   1.496  14.131   3.585  0.1570  0.1191  0.3261
 3607DPPE   GL165139   1.926  14.024   3.560  0.2016  0.0306 -0.3181
 3607DPPE   GL265140   2.017  14.034   3.211 -0.5234 -0.0230 -0.0471
 3607DPPE   C1A65141   2.377  14.017   3.617  0.1502  0.1307 -0.0503
 3607DPPE   C2A65142   2.754  14.216   3.553 -0.0648 -0.1493 -0.3828
 3607DPPE   C3A65143   3.190  14.334   3.638  0.1405 -0.3029  0.1437
 3607DPPE   C4A65144   3.514  14.542   3.639  0.0362  0.2322  0.0574
 3607DPPE   C1B65145   2.093  13.855   2.792 -0.0651  0.2034 -0.0092
 3607DPPE   C2B65146   1.731  13.601   2.506  0.1123 -0.1026 -0.2245
 3607DPPE   C3B65147   1.738  13.212   2.328 -0.4132 -0.3087  0.1610
 3607DPPE   C4B65148   1.928  12.819   2.292  0.1245 -0.0315 -0.0138
 3608DPPE   NH365149  38.237  15.581  17.249  0.0885  0.0408 -0.1569
 3608DPPE   PO465150  38.624  15.374  17.218  0.1609  0.0755  0.1578
 3608DPPE   GL165151  38.859  15.517  17.571  0.1860  0.2388 -0.0539
 3608DPPE   GL265152  39.221  15.516  17.452  0.2639  0.0501 -0.0995
 3608DPPE   C1A65153  39.037  15.895  17.683 -0.3025  0.0754 -0.1552
 3608DPPE   C2A65154  39.358  16.018  17.934 -0.0839  0.1140  0.0360
 3608DPPE   C3A65155  39.598  16.354  18.145 -0.1647 -0.0334  0.2961
 3608DPPE   C4A65156  39.914  16.680  18.191 -0.1547 -0.1479  0.1363
 3608DPPE   C1B65157  39.651  15.419  17.365 -0.3083  0.1274 -0.0571
 3608DPPE   C2B65158  40.073  15.580  17.463  0.1577 -0.1067  0.0372
 3608DPPE   C3B65159  40.257  16.004  17.567  0.2289  0.0653 -0.1390
 3608DPPE   C4B65160  40.437  16.263  17.347  0.0050 -0.3344  0.0947
 3609DPPE   NH365161  34.908  15.039  10.917  0.0842 -0.1823  0.3018
 3609DPPE   PO465162  34.736  15.471  10.719  0.1779 -0.1804  0.1148
 3609DPPE   GL165163  34.368  15.322  10.705 -0.0600 -0.0142 -0.2395
 3609DPPE   GL265164  34.186  15.508  10.810  0.0826 -0.0459 -0.0961
 3609DPPE   C1A65165  34.026  15.087  10.615  0.0518 -0.0598 -0.2693
 3609DPPE   C2A65166  33.553  15.112  10.478  0.1364 -0.1139  0.2343
 3609DPPE   C3A65167  33.130  15.032  10.363 -0.1307  0.0912  0.0522
 3609DPPE   C4A65168  32.772  14.808  10.110 -0.2771  0.1243 -0.1342
 3609DPPE   C1B65169  33.808  15.617  10.426  0.0908 -0.0759  0.1505
 3609DPPE   C2B65170  33.446  15.445  10.129 -0.1950  0.1175 -0.2705
 3609DPPE   C3B65171  33.097  15.388   9.861  0.1813  0.0826 -0.1939
 3609DPPE   C4B65172  32.703  15.061   9.611 -0.1965  0.3000 -0.3252
 3610DPPE   NH365173  34.510  22.101   5.496 -0.1604 -0.1203  0.0944
 3610DPPE   PO465174  34.458  22.597   5.674 -0.0462  0.0130 -0.5257
 3610DPPE   GL165175  34.425  22.882   5.421  0.0434 -0.0279  0.0705
 3610DPPE   GL265176  34.723  22.945   5.269 -0.1504 -0.2187  0.1622
 3610DPPE   C1A65177  34.311  22.847   4.977 -0.0201 -0.1185  0.5387
 3610DPPE   C2A65178  34.158  22.609   4.699 -0.0055 -0.2294 -0.1379
 3610DPPE   C3A65179  34.154  22.804   4.255  0.0236 -0.0975  0.2150
 3610DPPE   C4A65180  34.077  22.787   3.788 -0.0942  0.0874  0.1602
 3610DPPE   C1B65181  34.680  23.329   5.343 -0.0527  0.2281 -0.1471
 3610DPPE   C2B65182  34.737  23.597   5.259  0.1176 -0.0606  0.0980
 3610DPPE   C3B65183  34.519  23.966   5.073  0.1850 -0.0799  0.1119
 3610DPPE   C4B65184  34.256  24.226   5.353 -0.3695  0.2269  0.0752
 3611DPPE   NH365185   3.030  11.175  12.437 -0.1747 -0.4030  0.0975
 3611DPPE   PO465186   2.950  11.086  12.914  0.1060  0.2522 -0.1707
 3611DPPE   GL165187   3.345  11.021  12.806  0.1241  0.2536  0.0783
 3611DPPE   GL265188   3.338  10.835  12.514 -0.0136  0.0973  0.1524
 3611DPPE   C1A65189   3.715  11.149  13.007 -0.0953  0.1391  0.0732
 3611DPPE   C2A65190   4.172  11.154  13.174  0.0055 -0.2560 -0.2302
 3611DPPE   C3A65191   4.541  11.132  13.490  0.0706  0.0185 -0.2259
 3611DPPE   C4A65192   4.970  11.081  13.683  0.2395 -0.0194 -0.1046
 3611DPPE   C1B65193   3.783  10.793  12.658 -0.0348  0.1619  0.0708
 3611DPPE   C2B65194   4.246  10.879  12.729 -0.2404 -0.0585 -0.0104
 3611DPPE   C3B65195   4.579  11.111  12.857  0.2014  0.0024  0.0401
 3611DPPE   C4B65196   4.929  11.263  13.061 -0.4184  0.0262 -0.1483
 3612DPPE   NH365197  34.447  21.490  10.545  0.2467 -0.0894  0.2553
 3612DPPE   PO465198  34.340  21.242  10.132 -0.1295  0.1141 -0.0893
 3612DPPE   GL165199  34.702  21.331  10.162 -0.2894  0.3701  0.1349
 3612DPPE   GL265200  34.874  21.411   9.861 -0.2788 -0.2022  0.3390
 3612DPPE   C1A65201  35.103  21.103  10.131  0.0154 -0.1645 -0.3511
 3612DPPE   C2A65202  35.524  21.163  10.294 -0.0264  0.0113 -0.0922
 3612DPPE   C3A65203  35.891  21.233  10.556 -0.0773  0.1171 -0.1015
 3612DPPE   C4A65204  35.928  21.740  10.621  0.2803  0.2887 -0.2318
 3612DPPE   C1B65205  35.271  21.497   9.908 -0.0401  0.0404  0.1275
 3612DPPE   C2B65206  35.568  21.566   9.974 -0.3271 -0.0411  0.1493
 3612DPPE   C3B65207  35.926  21.513  10.189  0.1424 -0.0065  0.1652
 3612DPPE   C4B65208  36.332  21.684  10.297  0.0158  0.1718  0.2048
 3613DPPE   NH365209  37.090  15.584   4.749  0.0002 -0.1659  0.0880
 3613DPPE   PO465210  37.249  15.997   4.852 -0.0066  0.4129 -0.0260
 3613DPPE   GL165211  37.547  16.217   5.146 -0.1295  0.2343 -0.0758
 3613DPPE   GL265212  37.832  16.167   5.028  0.0089  0.0728 -0.1396
 3613DPPE   C1A65213  37.589  16.334   5.631 -0.2184 -0.0761  0.0105
 3613DPPE   C2A65214  37.713  16.373   6.043 -0.0674 -0.0502 -0.0619
 3613DPPE   C3A65215  38.096  16.415   6.420  0.0231  0.1316 -0.0970
 3613DPPE   C4A65216  38.489  16.268   6.599 -0.1528  0.4537 -0.1876
 3613DPPE   C1B65217  38.049  16.407   5.140 -0.1320 -0.1154 -0.0611
 3613DPPE   C2B65218  38.356  16.649   5.424 -0.1288 -0.1833 -0.1662
 3613DPPE   C3B65219  38.715  17.009   5.347  0.2499 -0.2220  0.0497
 3613DPPE   C4B65220  38.902  17.406   5.639 -0.1867  0.1974 -0.0748
 3614DPPE   NH365221  34.454  21.901  13.013  0.2875  0.1258 -0.0692
 3614DPPE   PO465222  34.450  21.452  13.006 -0.0413  0.3547 -0.2184
 3614DPPE   GL165223  34.848  21.366  12.974  0.1701 -0.4753 -0.0302
 3614DPPE   GL265224  35.076  21.481  12.909 -0.0357 -0.1153 -0.0748
 3614DPPE   C1A65225  34.947  21.074  12.620  0.0393 -0.0619  0.1199
 3614DPPE   C2A65226  35.336  21.096  12.476 -0.0105  0.0803 -0.0039
 3614DPPE   C3A65227  35.724  21.101  12.536  0.2173 -0.0313 -0.0837
 3614DPPE   C4A65228  36.189  20.966  12.750  0.4289  0.0334 -0.1608
 3614DPPE   C1B65229  35.350  21.567  13.060 -0.0514  0.2215 -0.1037
 3614DPPE   C2B65230  35.705  21.488  13.038 -0.2463 -0.1170  0.0472
 3614DPPE   C3B65231  36.025  21.435  13.001 -0.1382 -0.3323 -0.1502
 3614DPPE   C4B65232  36.242  21.670  13.230  0.1241 -0.1522  0.2557
 3615DPPE   NH365233  37.452  13.738  12.754  0.2269 -0.1035  0.0892
 3615DPPE   PO465234  37.528  13.891  13.132 -0.1209  0.1539 -0.1984
 3615DPPE   GL165235  37.769  14.189  12.960 -0.0132 -0.3165 -0.1433
 3615DPPE   GL265236  37.660  14.243  12.739 -0.0294 -0.1171  0.0284
 3615DPPE   C1A65237  38.089  14.433  12.758  0.0665  0.2196 -0.2860
 3615DPPE   C2A65238  38.362  14.753  12.708  0.1709 -0.0396 -0.1544
 3615DPPE   C3A65239  38.648  14.832  12.458  0.2453  0.0846  0.2937
 3615DPPE   C4A65240  38.904  14.973  12.059  0.0006  0.0499  0.0030
 3615DPPE   C1B65241  37.679  14.668  12.470  0.0389  0.1207  0.0882
 3615DPPE   C2B65242  37.930  15.016  12.465 -0.3619  0.1771  0.0122
 3615DPPE   C3B65243  38.291  15.155  12.320  0.0701  0.1744 -0.0675
 3615DPPE   C4B65244  38.541  15.341  12.020 -0.1191  0.1261 -0.3399
 3616DPPE   NH365245  34.108  17.642  15.107  0.1633  0.1332 -0.1356
 3616DPPE   PO465246  34.284  18.014  15.336  0.2697  0.2398 -0.0466
 3616DPPE   GL165247  33.767  17.960  15.337  0.3313  0.0576 -0.1166
 3616DPPE   GL265248  33.680  17.597  15.357 -0.0089  0.1208  0.1249
 3616DPPE   C1A65249  33.312  17.926  15.302  0.1374 -0.0787  0.0130
 3616DPPE   C2A65250  32.859  17.975  15.396 -0.0149 -0.1014  0.0418
 3616DPPE   C3A65251  32.542  18.173  15.393 -0.2023 -0.2849 -0.3943
 3616DPPE   C4A65252  32.195  18.092  15.189 -0.1587 -0.1825 -0.0436
 3616DPPE   C1B65253  33.397  17.462  15.572 -0.0576 -0.2289 -0.1942
 3616DPPE   C2B65254  33.115  17.207  15.768 -0.1794  0.2170 -0.2157
 3616DPPE   C3B65255  32.688  17.024  15.868 -0.2125  0.4307 -0.1265
 3616DPPE   C4B65256  32.444  16.913  16.184  0.0410  0.0565 -0.0776
 3617DPPE   NH365257  38.019  14.511   3.527  0.1805  0.0710 -0.0440
 3617DPPE   PO465258  38.115  14.967   3.434 -0.2446 -0.1529 -0.1290
 3617DPPE   GL165259  37.781  14.880   3.140 -0.1136  0.0539  0.2423
 3617DPPE   GL265260  37.769  14.467   2.977 -0.2436 -0.0543  0.0876
 3617DPPE   C1A65261  37.483  14.818   2.777 -0.0956 -0.0221  0.0927
 3617DPPE   C2A65262  37.083  14.667   2.654 -0.0729 -0.3939 -0.3565
 3617DPPE   C3A65263  36.741  14.813   2.454 -0.0883 -0.0090  0.4292
 3617DPPE   C4A65264  36.613  14.704   2.075 -0.3971  0.1430 -0.0278
 3617DPPE   C1B65265  37.484  14.254   2.655 -0.0594  0.0383  0.1240
 3617DPPE   C2B65266  37.165  13.984   2.501  0.0138 -0.0634  0.0384
 3617DPPE   C3B65267  36.949  13.658   2.205 -0.4834  0.2527 -0.1105
 3617DPPE   C4B65268  37.280  13.348   1.918 -0.0064  0.0810 -0.0826
 3618DPPE   NH365269  38.240  12.376   7.892  0.0487 -0.5116 -0.3981
 3618DPPE   PO465270  37.844  12.241   8.072 -0.1263  0.0897 -0.0056
 3618DPPE   GL165271  37.656  11.819   7.863  0.0427  0.0597  0.2837
 3618DPPE   GL265272  37.471  12.064   7.639 -0.0069  0.1643 -0.3315
 3618DPPE   C1A65273  37.264  11.515   7.879  0.4187 -0.0423 -0.2121
 3618DPPE   C2A65274  37.109  11.086   7.943 -0.0920  0.0919 -0.4101
 3618DPPE   C3A65275  36.926  10.705   7.988  0.0100 -0.1309 -0.2848
 3618DPPE   C4A65276  36.478  10.560   8.136 -0.2271  0.1260 -0.2586
 3618DPPE   C1B65277  37.210  11.730   7.443  0.3132 -0.3658 -0.1043
 3618DPPE   C2B65278  37.212  11.303   7.383 -0.0868 -0.0267  0.1560
 3618DPPE   C3B65279  37.111  10.907   7.506 -0.1220 -0.1112 -0.2469
 3618DPPE   C4B65280  36.732  10.648   7.524 -0.2868 -0.2946 -0.0171
 3619DPPE   NH365281   1.052  12.114   4.392  0.0372  0.0676  0.1125
 3619DPPE   PO465282   1.411  12.243   4.315 -0.0990 -0.2063 -0.2181
 3619DPPE   GL165283   1.328  11.892   4.029 -0.2619 -0.0390 -0.0830
 3619DPPE   GL265284   1.339  11.763   3.792 -0.1096 -0.0582 -0.0675
 3619DPPE   C1A65285   0.973  11.560   4.017  0.3306 -0.1805  0.2126
 3619DPPE   C2A65286   0.600  11.203   4.051  0.1079  0.0918  0.1858
 3619DPPE   C3A65287   0.313  11.025   3.875  0.0416 -0.4243  0.2753
 3619DPPE   C4A65288  -0.084  11.064   3.612  0.0108  0.2115  0.3229
 3619DPPE   C1B65289   1.517  11.641   3.327  0.0432 -0.0717 -0.2685
 3619DPPE   C2B65290   1.759  11.317   3.154  0.0116 -0.0652 -0.3720
 3619DPPE   C3B65291   2.030  11.155   2.779 -0.1754  0.0063  0.2833
 3619DPPE   C4B65292   2.340  11.216   2.331 -0.3694  0.2164  0.0036
 3620DPPE   NH365293  36.233  16.661   7.129 -0.4150 -0.1989  0.0867
 3620DPPE   PO465294  36.332  16.258   7.059  0.1041 -0.0004 -0.2786
 3620DPPE   GL165295  36.781  16.337   7.201 -0.0853 -0.2416  0.5806
 3620DPPE   GL265296  37.013  16.609   7.239  0.0597  0.1647  0.0717
 3620DPPE   C1A65297  37.087  16.216   7.535 -0.1702 -0.1032 -0.0207
 3620DPPE   C2A65298  37.545  16.084   7.655 -0.2047  0.0556  0.3245
 3620DPPE   C3A65299  37.784  16.404   7.851  0.2268 -0.0229 -0.1818
 3620DPPE   C4A65300  37.809  16.732   8.180  0.1013  0.0773 -0.0413
 3620DPPE   C1B65301  37.422  16.874   7.034  0.1852  0.1447 -0.0254
 3620DPPE   C2B65302  37.550  17.263   6.930 -0.1314  0.0002 -0.0861
 3620DPPE   C3B65303  37.782  17.538   7.125 -0.0621  0.0027  0.1074
 3620DPPE   C4B65304  37.992  17.515   7.469 -0.1509 -0.0795 -0.3595
 3621DPPE   NH365305  34.618  21.770   5.053  0.3500  0.1704 -0.1912
 3621DPPE   PO465306  34.630  22.246   5.019 -0.2289  0.2220  0.1819
 3621DPPE   GL165307  34.717  22.539   4.634 -0.0356  0.1880  0.0991
 3621DPPE   GL265308  34.999  22.548   4.396  0.0605 -0.0945 -0.4130
 3621DPPE   C1A65309  34.693  22.914   4.434 -0.0150 -0.1707  0.1771
 3621DPPE   C2A65310  34.869  23.292   4.261  0.0795  0.2732  0.2850
 3621DPPE   C3A65311  34.727  23.478   3.777  0.1140 -0.2368 -0.0651
 3621DPPE   C4A65312  34.996  23.473   3.469  0.3883 -0.1604 -0.1262
 3621DPPE   C1B65313  35.347  22.824   4.484 -0.1853  0.1121 -0.0335
 3621DPPE   C2B65314  35.740  22.965   4.271  0.0467 -0.0754 -0.2560
 3621DPPE   C3B65315  35.931  23.145   3.905  0.0359  0.2132 -0.0103
 3621DPPE   C4B65316  36.264  23.046   3.649  0.2416  0.1078 -0.3747
 3622DPPE   NH365317  34.803  20.776   4.396 -0.3510 -0.2213  0.0225
 3622DPPE   PO465318  35.068  20.937   4.011  0.1115  0.1700  0.0189
 3622DPPE   GL165319  34.934  21.174   3.651  0.0058 -0.3149  0.0761
 3622DPPE   GL265320  35.241  21.115   3.547  0.3171  0.1711  0.0436
 3622DPPE   C1A65321  34.964  21.361   3.260  0.0436 -0.0025  0.1223
 3622DPPE   C2A65322  35.296  21.584   3.025  0.0227 -0.0191  0.1590
 3622DPPE   C3A65323  35.770  21.551   2.964  0.3509  0.2169  0.0931
 3622DPPE   C4A65324  36.209  21.411   3.048 -0.0877  0.0502 -0.1064
 3622DPPE   C1B65325  35.538  21.446   3.474  0.2418 -0.1382 -0.0563
 3622DPPE   C2B65326  35.844  21.779   3.386  0.1400  0.1299  0.1092
 3622DPPE   C3B65327  36.018  22.100   3.171 -0.2657  0.2368  0.3243
 3622DPPE   C4B65328  36.325  22.317   3.036 -0.2183 -0.3665  0.2276
 3623DPPE   NH365329  36.730  16.680   3.396 -0.3419 -0.0909  0.0984
 3623DPPE   PO465330  37.043  17.012   3.304  0.1204 -0.1788  0.0451
 3623DPPE   GL165331  36.708  16.767   2.895 -0.0542  0.4037  0.0201
 3623DPPE   GL265332  36.502  16.999   2.729  0.2054 -0.0528 -0.4606
 3623DPPE   C1A65333  36.518  16.371   2.594 -0.0887  0.0363  0.0143
 3623DPPE   C2A65334  36.630  15.923   2.623  0.2120  0.1530  0.5184
 3623DPPE   C3A65335  36.988  15.849   2.427  0.0642  0.0184 -0.1430
 3623DPPE   C4A65336  37.158  15.537   2.140  0.3530 -0.1780  0.1518
 3623DPPE   C1B65337  36.129  16.827   2.496 -0.2713 -0.2079  0.1014
 3623DPPE   C2B65338  35.935  16.544   2.287  0.2188  0.2362  0.1003
 3623DPPE   C3B65339  35.652  16.202   2.204 -0.1061  0.2444 -0.1287
 3623DPPE   C4B65340  35.452  15.917   2.096  0.0845 -0.0956  0.0497
 3624DPPE   NH365341  36.919  16.786   4.755 -0.3147  0.0646 -0.2231
 3624DPPE   PO465342  37.198  16.991   4.949 -0.1682 -0.1159  0.1153
 3624DPPE   GL165343  37.498  16.859   5.233 -0.3157 -0.3068  0.1991
 3624DPPE   GL265344  37.785  16.783   5.203 -0.1457 -0.2507 -0.0323
 3624DPPE   C1A65345  37.517  16.796   5.646 -0.2073 -0.0700  0.1637
 3624DPPE   C2A65346  37.856  16.737   5.694  0.2737  0.1976  0.4719
 3624DPPE   C3A65347  38.216  16.882   5.801  0.0422  0.2770 -0.0972
 3624DPPE   C4A65348  38.623  16.892   5.808 -0.1607 -0.0075 -0.1346
 3624DPPE   C1B65349  38.080  17.057   5.325  0.1681  0.1404 -0.2377
 3624DPPE   C2B65350  38.371  17.319   5.606  0.0924 -0.0185 -0.0935
 3624DPPE   C3B65351  38.632  17.624   5.975 -0.1543 -0.0024 -0.0178
 3624DPPE   C4B65352  38.897  17.689   6.311 -0.0276 -0.2479  0.4522
 3625DPPE   NH365353  33.574  19.114   8.295  0.1023 -0.0179  0.1232
 3625DPPE   PO465354  33.358  19.441   8.134 -0.0070 -0.3358 -0.5991
 3625DPPE   GL165355  32.920  19.618   8.203  0.3650  0.1517  0.0163
 3625DPPE   GL265356  32.714  19.680   8.513 -0.2667 -0.0160  0.0199
 3625DPPE   C1A65357  32.500  19.703   8.044  0.2211  0.0723  0.3589
 3625DPPE   C2A65358  32.154  19.640   7.840  0.2847 -0.2273  0.0634
 3625DPPE   C3A65359  31.736  19.482   7.859 -0.0580  0.1389 -0.2692
 3625DPPE   C4A65360  31.425  19.385   7.648  0.0143 -0.1527  0.2305
 3625DPPE   C1B65361  32.230  19.706   8.450 -0.4146 -0.2073 -0.0036
 3625DPPE   C2B65362  31.825  19.579   8.364  0.0884 -0.0861 -0.0745
 3625DPPE   C3B65363  31.449  19.337   8.248 -0.0049 -0.0139 -0.0511
 3625DPPE   C4B65364  31.078  19.057   8.080 -0.1806  0.4070  0.0751
 3626DPPE   NH365365  33.324  21.611   7.701 -0.0808  0.2649  0.0316
 3626DPPE   PO465366  33.187  21.396   8.120 -0.2775 -0.0508 -0.3596
 3626DPPE   GL165367  32.864  21.425   7.884 -0.1521  0.2010  0.2346
 3626DPPE   GL265368  32.926  21.063   7.733 -0.1229 -0.0881  0.3372
 3626DPPE   C1A65369  32.522  21.522   8.159  0.3301 -0.1203 -0.1798
 3626DPPE   C2A65370  32.066  21.625   8.404 -0.1686  0.2335  0.0659
 3626DPPE   C3A65371  31.681  21.401   8.474  0.5130 -0.0488  0.1770
 3626DPPE   C4A65372  31.327  21.273   8.252 -0.1014  0.1751 -0.1004
 3626DPPE   C1B65373  32.466  21.073   7.828  0.0573  0.1580  0.0623
 3626DPPE   C2B65374  32.128  21.296   8.067 -0.1129  0.2424 -0.2161
 3626DPPE   C3B65375  31.745  21.393   7.999  0.4498  0.0717 -0.2294
 3626DPPE   C4B65376  31.336  21.323   7.735  0.2946  0.1161 -0.0449
 3627DPPE   NH365377  33.785  22.767  12.741 -0.1989 -0.3967  0.0092
 3627DPPE   PO465378  34.173  22.702  12.557 -0.0601  0.0325  0.1530
 3627DPPE   GL165379  34.570  22.783  12.410 -0.1422 -0.1958  0.1288
 3627DPPE   GL265380  34.739  22.790  12.709 -0.1847  0.0427 -0.0155
 3627DPPE   C1A65381  34.902  23.029  12.200 -0.2307 -0.1828 -0.1775
 3627DPPE   C2A65382  35.226  23.318  12.351 -0.1538  0.0683  0.0863
 3627DPPE   C3A65383  35.620  23.544  12.412 -0.3732  0.3765 -0.2013
 3627DPPE   C4A65384  35.731  23.903  12.322 -0.2827 -0.1063  0.2620
 3627DPPE   C1B65385  34.731  23.225  12.619  0.4502  0.1036 -0.0588
 3627DPPE   C2B65386  34.935  23.579  12.687  0.3972 -0.2416  0.0031
 3627DPPE   C3B65387  35.278  23.826  12.658 -0.5397 -0.0153 -0.0861
 3627DPPE   C4B65388  35.457  24.118  12.873  0.0709  0.0790 -0.2439
 3628DPPE   NH365389  38.328  13.987   4.327 -0.3856 -0.1719 -0.0854
 3628DPPE   PO465390  38.186  13.703   4.045  0.0463  0.1693  0.1477
 3628DPPE   GL165391  37.965  13.542   3.780 -0.2073 -0.2123 -0.0364
 3628DPPE   GL265392  38.055  13.564   3.503  0.0729  0.0831 -0.1173
 3628DPPE   C1A65393  38.030  13.107   3.532 -0.1835  0.1048  0.1819
 3628DPPE   C2A65394  37.763  12.729   3.410 -0.0524 -0.1370  0.0302
 3628DPPE   C3A65395  37.516  12.485   3.726 -0.1530 -0.0779  0.0223
 3628DPPE   C4A65396  37.192  12.376   3.951 -0.1224 -0.3117  0.0818
 3628DPPE   C1B65397  37.656  13.355   3.354  0.0133 -0.0904 -0.0207
 3628DPPE   C2B65398  37.295  13.329   3.300 -0.0640 -0.3032  0.0335
 3628DPPE   C3B65399  36.998  13.120   3.339  0.3496  0.2257 -0.1099
 3628DPPE   C4B65400  36.585  12.928   3.085 -0.0895 -0.5138  0.1604
 3629DPPE   NH365401  36.093  13.785   8.379  0.0217  0.3114 -0.0771
 3629DPPE   PO465402  36.077  13.861   8.796  0.3212 -0.2017 -0.1170
 3629DPPE   GL165403  35.925  13.487   8.812  0.1433  0.3122 -0.0003
 3629DPPE   GL265404  35.981  13.299   8.580 -0.4098 -0.2035  0.0118
 3629DPPE   C1A65405  35.735  13.322   9.125 -0.1514  0.1634 -0.0501
 3629DPPE   C2A65406  35.746  12.919   8.920 -0.1364  0.2876 -0.0887
 3629DPPE   C3A65407  35.483  12.732   8.710  0.0855 -0.1318  0.1429
 3629DPPE   C4A65408  35.268  12.445   8.475  0.3071  0.3394  0.0181
 3629DPPE   C1B65409  35.564  13.157   8.494  0.3930 -0.0037  0.0430
 3629DPPE   C2B65410  35.074  12.905   8.387 -0.2352  0.3297  0.2883
 3629DPPE   C3B65411  34.826  12.781   8.505  0.1021 -0.0380 -0.1321
 3629DPPE   C4B65412  34.448  12.592   8.721  0.0145  0.0088  0.2530
 3630DPPE   NH365413   1.324  11.986  14.664 -0.0315  0.2669  0.0507
 3630DPPE   PO465414   1.281  12.165  15.025 -0.1769  0.2388  0.0261
 3630DPPE   GL165415   1.394  11.986  15.466  0.0809  0.0787 -0.2322
 3630DPPE   GL265416   1.800  11.922  15.538 -0.0689 -0.0834 -0.0940
 3630DPPE   C1A65417   1.407  12.013  15.904  0.1939  0.1698 -0.1366
 3630DPPE   C2A65418   1.456  11.673  16.209  0.0586  0.1365 -0.0315
 3630DPPE   C3A65419   1.750  11.571  16.490 -0.1475 -0.3136 -0.0124
 3630DPPE   C4A65420   2.044  11.755  16.810  0.3159 -0.1866 -0.0966
 3630DPPE   C1B65421   1.767  11.489  15.871  0.0547  0.2768 -0.2637
 3630DPPE   C2B65422   1.916  11.031  15.985 -0.0829  0.2016 -0.1487
 3630DPPE   C3B65423   2.324  10.796  15.986  0.1339 -0.3236 -0.3079
 3630DPPE   C4B65424   2.642  10.458  15.911  0.1669 -0.2161 -0.1264
 3631DPPE   NH365425  34.900  22.510   5.422  0.0399  0.1007  0.2804
 3631DPPE   PO465426  35.058  22.129   5.230 -0.3868 -0.0944  0.3807
 3631DPPE   GL165427  35.144  22.532   4.954  0.0363 -0.0516 -0.1858
 3631DPPE   GL265428  35.334  22.664   5.109  0.0367  0.1032  0.0619
 3631DPPE   C1A65429  35.015  22.991   4.848 -0.0741  0.0035  0.1659
 3631DPPE   C2A65430  35.076  23.401   4.847 -0.1297 -0.3933  0.3479
 3631DPPE   C3A65431  35.159  23.818   5.028  0.2771  0.0367 -0.3543
 3631DPPE   C4A65432  35.080  24.238   5.095  0.1382  0.0544  0.0819
 3631DPPE   C1B65433  35.688  22.850   4.887  0.2749 -0.0475  0.1763
 3631DPPE   C2B65434  36.002  22.754   4.681 -0.1269 -0.1866  0.1519
 3631DPPE   C3B65435  36.395  22.753   4.442 -0.1947 -0.1410 -0.4516
 3631DPPE   C4B65436  36.706  23.045   4.381  0.3248 -0.2035  0.1754
 3632DPPE   NH365437  35.345  20.353  15.014  0.4113  0.1912  0.0787
 3632DPPE   PO465438  35.296  20.473  15.405  0.1447  0.3201  0.2383
 3632DPPE   GL165439  35.453  20.797  15.416  0.3384 -0.2126 -0.2307
 3632DPPE   GL265440  35.273  21.120  15.466 -0.0486 -0.1908  0.0418
 3632DPPE   C1A65441  35.799  21.083  15.288  0.1611 -0.0014  0.2106
 3632DPPE   C2A65442  35.989  21.408  15.287 -0.1582  0.0194  0.0686
 3632DPPE   C3A65443  36.410  21.501  15.451  0.1564  0.0958 -0.1918
 3632DPPE   C4A65444  36.732  21.393  15.726 -0.3615  0.0000 -0.2512
 3632DPPE   C1B65445  35.500  21.468  15.579 -0.1456  0.0720 -0.4702
 3632DPPE   C2B65446  35.844  21.759  15.830 -0.1123  0.1247 -0.3541
 3632DPPE   C3B65447  36.095  21.971  15.611 -0.1084  0.3111  0.0500
 3632DPPE   C4B65448  36.381  22.372  15.655  0.1652  0.0162 -0.0539
 3633DPPE   NH365449  34.955  17.399  15.399  0.0557  0.0475  0.0485
 3633DPPE   PO465450  35.416  17.292  15.384 -0.0586  0.1220  0.2774
 3633DPPE   GL165451  35.811  17.461  15.158  0.4196  0.1825  0.0286
 3633DPPE   GL265452  35.828  17.419  14.834 -0.2255 -0.3339 -0.0019
 3633DPPE   C1A65453  36.157  17.506  15.233 -0.0812  0.1543  0.2958
 3633DPPE   C2A65454  36.575  17.476  15.270 -0.0246 -0.0773  0.1169
 3633DPPE   C3A65455  36.691  17.153  15.049  0.1976 -0.1355  0.2692
 3633DPPE   C4A65456  37.033  16.884  14.983  0.0536  0.0090  0.0933
 3633DPPE   C1B65457  35.989  17.673  14.511  0.0085 -0.0272 -0.1443
 3633DPPE   C2B65458  36.157  17.929  14.328  0.1421  0.2519 -0.0023
 3633DPPE   C3B65459  36.506  18.243  14.390 -0.1673 -0.2526  0.1063
 3633DPPE   C4B65460  36.901  18.414  14.302 -0.3177 -0.1507 -0.2093
 3634DPPE   NH365461  37.021  12.787  13.066 -0.3782 -0.0858 -0.0027
 3634DPPE   PO465462  36.884  13.009  12.767  0.4890 -0.1631  0.3754
 3634DPPE   GL165463  36.536  12.720  12.927 -0.2316  0.1278 -0.5916
 3634DPPE   GL265464  36.287  12.928  12.840  0.4751  0.0261  0.1052
 3634DPPE   C1A65465  36.197  12.429  12.696 -0.0070  0.0497  0.2460
 3634DPPE   C2A65466  35.852  12.230  12.649  0.0119 -0.2113  0.0432
 3634DPPE   C3A65467  35.483  12.098  12.785  0.1350 -0.3283  0.0695
 3634DPPE   C4A65468  35.055  11.997  12.869 -0.1298 -0.2318 -0.2602
 3634DPPE   C1B65469  35.802  12.824  12.666  0.0013  0.0166 -0.2227
 3634DPPE   C2B65470  35.436  12.619  12.621 -0.0827 -0.0550  0.2173
 3634DPPE   C3B65471  35.160  12.386  12.502  0.0465 -0.1540 -0.3144
 3634DPPE   C4B65472  35.074  12.327  12.166  0.1389 -0.0741 -0.2607
 3635DPPE   NH365473  33.520  17.174  11.962  0.1391 -0.0739  0.0583
 3635DPPE   PO465474  33.498  17.442  11.570 -0.1177 -0.0899 -0.3154
 3635DPPE   GL165475  33.074  17.531  11.641 -0.0048  0.2912 -0.1217
 3635DPPE   GL265476  32.913  17.842  11.547 -0.2519 -0.2603 -0.2768
 3635DPPE   C1A65477  32.644  17.515  11.784 -0.0462  0.5309  0.2064
 3635DPPE   C2A65478  32.268  17.472  11.749 -0.0055 -0.3251 -0.1040
 3635DPPE   C3A65479  31.913  17.372  12.026 -0.1080  0.1011  0.1443
 3635DPPE   C4A65480  31.526  17.359  12.157 -0.1984 -0.0683  0.4509
 3635DPPE   C1B65481  32.538  17.794  11.279  0.3615 -0.2084 -0.0729
 3635DPPE   C2B65482  32.087  17.845  11.335 -0.0316  0.2381  0.0023
 3635DPPE   C3B65483  31.699  17.917  11.601  0.3734  0.0040 -0.1201
 3635DPPE   C4B65484  31.264  17.911  11.631 -0.0226  0.0063 -0.1647
 3636DPPE   NH365485   3.196  10.995   8.540  0.1745 -0.0277 -0.0377
 3636DPPE   PO465486   2.722  11.134   8.687 -0.0190 -0.0389  0.4507
 3636DPPE   GL165487   2.959  11.422   8.496 -0.2891  0.0301 -0.1025
 3636DPPE   GL265488   3.068  11.348   8.151  0.0551  0.4219 -0.3414
 3636DPPE   C1A65489   3.394  11.674   8.619 -0.2849  0.0128  0.1011
 3636DPPE   C2A65490   3.815  11.883   8.410 -0.0948 -0.0033  0.0517
 3636DPPE   C3A65491   4.118  11.754   8.097  0.0399 -0.0827  0.1173
 3636DPPE   C4A65492   4.177  11.502   7.675 -0.3477  0.1004  0.0228
 3636DPPE   C1B65493   3.388  11.131   7.869 -0.0672 -0.0125 -0.1544
 3636DPPE   C2B65494   3.798  11.194   7.814 -0.0838 -0.2438 -0.0838
 3636DPPE   C3B65495   4.151  11.191   8.144 -0.4304  0.1621  0.2559
 3636DPPE   C4B65496   4.341  10.925   8.388 -0.0313 -0.0378  0.0412
 3637DPPE   NH365497   1.418  10.301  10.323 -0.1117 -0.3903  0.2879
 3637DPPE   PO465498   1.206  10.592  10.077 -0.0008  0.0760  0.2763
 3637DPPE   GL165499   0.972  10.202   9.932  0.3294  0.2275  0.1062
 3637DPPE   GL265500   0.972  10.019  10.246  0.2119  0.1384  0.2765
 3637DPPE   C1A65501   0.907   9.804   9.715  0.0490 -0.0256 -0.3840
 3637DPPE   C2A65502   0.731   9.417   9.693 -0.1254 -0.1001 -0.0097
 3637DPPE   C3A65503   0.710   8.975   9.440  0.0695 -0.0311  0.1503
 3637DPPE   C4A65504   0.628   8.503   9.344 -0.3485 -0.2575 -0.0610
 3637DPPE   C1B65505   0.742   9.650  10.142 -0.0813 -0.2956  0.2636
 3637DPPE   C2B65506   0.404   9.290  10.011 -0.1903 -0.0234 -0.0345
 3637DPPE   C3B65507   0.077   8.951  10.079  0.0286  0.1135 -0.1659
 3637DPPE   C4B65508  -0.224   8.818  10.291 -0.0056 -0.0014  0.1754
 3638DPPE   NH365509  33.875  21.683  14.343  0.0482  0.5367 -0.2457
 3638DPPE   PO465510  34.024  22.133  14.424 -0.1086  0.1927  0.4279
 3638DPPE   GL165511  33.867  22.064  14.723 -0.2875 -0.2288  0.1527
 3638DPPE   GL265512  34.003  22.087  14.978 -0.2248  0.0855 -0.2952
 3638DPPE   C1A65513  33.506  21.967  14.816  0.0553 -0.0027 -0.0555
 3638DPPE   C2A65514  33.240  22.040  15.016  0.2087  0.1752  0.0719
 3638DPPE   C3A65515  33.030  22.373  14.994 -0.0093 -0.1733  0.0006
 3638DPPE   C4A65516  32.935  22.734  15.133 -0.0224  0.1067 -0.1184
 3638DPPE   C1B65517  34.062  22.517  15.191 -0.1660  0.1001 -0.3109
 3638DPPE   C2B65518  34.309  22.861  15.194  0.1903  0.0095 -0.1626
 3638DPPE   C3B65519  34.315  23.178  15.403 -0.0163 -0.1954 -0.3824
 3638DPPE   C4B65520  34.539  23.508  15.306 -0.2464  0.1611  0.1716
 3639DPPE   NH365521  34.692  16.252   9.413  0.2379  0.2054  0.2948
 3639DPPE   PO465522  34.471  16.601   9.417 -0.0572 -0.0266  0.0489
 3639DPPE   GL165523  34.118  16.253   9.268 -0.0416  0.1247  0.1097
 3639DPPE   GL265524  33.828  16.451   9.384  0.0981  0.1563  0.4218
 3639DPPE   C1A65525  33.962  15.897   9.349 -0.0270 -0.1294  0.1132
 3639DPPE   C2A65526  34.033  15.595   9.236  0.1968 -0.0728  0.0226
 3639DPPE   C3A65527  34.195  15.329   9.587 -0.0387  0.1047  0.1577
 3639DPPE   C4A65528  34.114  14.847   9.591  0.0587 -0.1329  0.2873
 3639DPPE   C1B65529  33.497  16.109   9.405  0.1612  0.0567  0.1326
 3639DPPE   C2B65530  33.466  15.756   9.423  0.0504 -0.0457  0.1842
 3639DPPE   C3B65531  33.535  15.326   9.157  0.2853 -0.1060  0.2647
 3639DPPE   C4B65532  33.821  15.159   9.194 -0.1743  0.0077 -0.2945
 3640DPPE   NH365533  36.004  19.573   4.503 -0.2391 -0.0172  0.1961
 3640DPPE   PO465534  36.014  20.017   4.635 -0.0685 -0.2323 -0.3106
 3640DPPE   GL165535  36.454  20.200   4.824  0.0460  0.2113  0.0907
 3640DPPE   GL265536  36.518  20.594   4.795 -0.3391  0.0027 -0.2856
 3640DPPE   C1A65537  36.853  20.085   4.722  0.4066 -0.0270 -0.0092
 3640DPPE   C2A65538  37.223  20.031   4.313 -0.1135 -0.2621 -0.0848
 3640DPPE   C3A65539  37.578  20.240   4.150 -0.3958 -0.2700  0.0012
 3640DPPE   C4A65540  37.765  20.435   4.389  0.1358  0.1994 -0.1284
 3640DPPE   C1B65541  36.881  20.580   4.609 -0.0690 -0.0120  0.3260
 3640DPPE   C2B65542  36.990  20.581   4.187  0.3903  0.1541  0.3841
 3640DPPE   C3B65543  37.278  20.743   3.801 -0.2175 -0.2270  0.0302
 3640DPPE   C4B65544  37.581  20.960   3.645 -0.1532 -0.0296 -0.0535
 3641DPPE   NH365545  34.417  18.046   7.080 -0.5133 -0.1121  0.1223
 3641DPPE   PO465546  34.421  18.412   6.810 -0.1240  0.2824 -0.0355
 3641DPPE   GL165547  34.047  18.349   6.755 -0.0305 -0.0503  0.1092
 3641DPPE   GL265548  34.018  17.994   6.711  0.1386 -0.2702 -0.0747
 3641DPPE   C1A65549  33.687  18.375   6.569 -0.1692 -0.4331 -0.3036
 3641DPPE   C2A65550  33.290  18.341   6.482  0.2062 -0.2821  0.2405
 3641DPPE   C3A65551  32.824  18.520   6.474 -0.0037 -0.0301 -0.1071
 3641DPPE   C4A65552  32.622  18.825   6.124 -0.0123 -0.0085 -0.0810
 3641DPPE   C1B65553  33.760  17.931   6.351 -0.0199  0.0595  0.0691
 3641DPPE   C2B65554  33.452  18.151   6.072  0.1466  0.1158  0.0379
 3641DPPE   C3B65555  33.153  17.929   5.732  0.3141  0.0621  0.0843
 3641DPPE   C4B65556  32.742  17.819   5.797  0.0530  0.0028  0.4768
 3642DPPE   NH365557  34.790  21.311   8.276  0.2411  0.1035  0.2368
 3642DPPE   PO465558  34.583  21.013   8.445 -0.5430  0.1501 -0.1120
 3642DPPE   GL165559  35.043  20.800   8.385 -0.0915  0.0837 -0.0039
 3642DPPE   GL265560  35.244  21.014   8.113  0.1238  0.1739 -0.1217
 3642DPPE   C1A65561  35.423  20.538   8.135 -0.1473  0.1963  0.2769
 3642DPPE   C2A65562  35.837  20.592   8.322 -0.0384 -0.0891 -0.0512
 3642DPPE   C3A65563  36.184  20.719   8.357 -0.0555  0.0443  0.0571
 3642DPPE   C4A65564  36.546  20.789   8.353  0.2392  0.1842  0.0517
 3642DPPE   C1B65565  35.544  21.003   8.324 -0.2017  0.1748  0.2611
 3642DPPE   C2B65566  35.919  21.116   8.551 -0.0075  0.1310 -0.1636
 3642DPPE   C3B65567  36.329  21.225   8.495 -0.1646 -0.3684 -0.0515
 3642DPPE   C4B65568  36.764  21.284   8.273 -0.0409  0.0447  0.2487
 3643DPPE   NH365569  34.171  18.452  11.091 -0.1689  0.3625 -0.0116
 3643DPPE   PO465570  34.102  18.018  10.873  0.0471  0.1677 -0.0934
 3643DPPE   GL165571  34.504  18.223  10.759 -0.1578  0.0867  0.2414
 3643DPPE   GL265572  34.316  18.604  10.542  0.1805 -0.0161  0.1499
 3643DPPE   C1A65573  34.902  18.457  10.608 -0.1009 -0.0315 -0.2457
 3643DPPE   C2A65574  35.068  18.795  10.813 -0.0491 -0.0076  0.0138
 3643DPPE   C3A65575  35.593  18.976  10.756  0.2447  0.3847  0.2431
 3643DPPE   C4A65576  35.926  19.357  10.963 -0.3004  0.2108  0.0582
 3643DPPE   C1B65577  34.559  18.798  10.672  0.1251  0.2456 -0.0384
 3643DPPE   C2B65578  34.794  19.192  10.812 -0.2731 -0.0702 -0.1017
 3643DPPE   C3B65579  35.026  19.587  10.996 -0.0456  0.0359  0.1240
 3643DPPE   C4B65580  35.234  20.009  11.131  0.1132 -0.2275  0.1189
 3644DPPE   NH365581  34.127  20.279  10.576 -0.2765 -0.1515  0.0323
 3644DPPE   PO465582  34.077  20.648  10.785 -0.0569  0.0803 -0.2338
 3644DPPE   GL165583  34.484  20.579  10.905  0.0358  0.1971  0.3839
 3644DPPE   GL265584  34.441  20.423  11.149 -0.2761  0.1873 -0.4066
 3644DPPE   C1A65585  34.957  20.435  10.957  0.0858  0.1964  0.1291
 3644DPPE   C2A65586  35.363  20.513  11.222  0.2322 -0.0399 -0.3358
 3644DPPE   C3A65587  35.753  20.477  11.460  0.0999  0.0959  0.0113
 3644DPPE   C4A65588  36.202  20.401  11.551 -0.0035  0.4695 -0.2144
 3644DPPE   C1B65589  34.767  20.658  11.369  0.2314  0.3811 -0.0178
 3644DPPE   C2B65590  35.115  20.802  11.546  0.3205  0.4434 -0.2801
 3644DPPE   C3B65591  35.373  20.587  11.831  0.2165 -0.0244  0.1321
 3644DPPE   C4B65592  35.615  20.806  12.132  0.5502 -0.1346 -0.0934
 3645DPPE   NH365593  34.777  20.420   5.104 -0.1757  0.2087 -0.0005
 3645DPPE   PO465594  34.423  20.623   5.198 -0.0701  0.2947 -0.0712
 3645DPPE   GL165595  34.200  20.430   4.907 -0.0942  0.0159 -0.1166
 3645DPPE   GL265596  33.990  20.128   4.972 -0.3237  0.2945  0.0376
 3645DPPE   C1A65597  33.863  20.572   4.510 -0.2469 -0.4004 -0.2527
 3645DPPE   C2A65598  33.463  20.493   4.349 -0.3094  0.0962  0.0777
 3645DPPE   C3A65599  33.086  20.288   4.339 -0.0425 -0.3345 -0.0475
 3645DPPE   C4A65600  32.683  20.261   4.353 -0.1274 -0.2550 -0.2163
 3645DPPE   C1B65601  33.616  20.413   4.953  0.2651  0.0851 -0.0179
 3645DPPE   C2B65602  33.325  20.271   4.755 -0.1102  0.3036 -0.2417
 3645DPPE   C3B65603  32.836  20.268   4.828 -0.2867 -0.4636 -0.1333
 3645DPPE   C4B65604  32.468  20.246   4.919  0.0087 -0.2862 -0.1570
 3646DPPE   NH365605  38.146  15.032  18.696 -0.2137  0.2755 -0.0876
 3646DPPE   PO465606  37.897  14.863  18.257 -0.1578  0.0250  0.2466
 3646DPPE   GL165607  37.685  14.706  18.493 -0.0016 -0.3258  0.0665
 3646DPPE   GL265608  37.814  14.376  18.452  0.0883  0.1246  0.0348
 3646DPPE   C1A65609  37.402  14.331  18.827  0.1470  0.1749 -0.1556
 3646DPPE   C2A65610  37.528  13.962  18.936  0.0077  0.1000 -0.3573
 3646DPPE   C3A65611  37.972  13.937  18.943 -0.0622 -0.0933 -0.0128
 3646DPPE   C4A65612  38.380  13.970  19.054  0.0049 -0.0786  0.0855
 3646DPPE   C1B65613  37.523  14.027  18.433  0.1004 -0.1701  0.3757
 3646DPPE   C2B65614  37.187  13.772  18.252 -0.0247 -0.0697 -0.0028
 3646DPPE   C3B65615  36.977  13.422  18.177  0.1340  0.1744  0.1000
 3646DPPE   C4B65616  37.192  13.012  18.162  0.1889  0.2538  0.3308
 3647DPPE   NH365617  34.218  20.306  13.328 -0.1987 -0.1232  0.0261
 3647DPPE   PO465618  34.465  20.639  13.393 -0.2420 -0.3139 -0.2788
 3647DPPE   GL165619  34.840  20.847  13.498  0.1145 -0.1480 -0.0191
 3647DPPE   GL265620  34.961  21.034  13.352  0.1157  0.0371  0.0199
 3647DPPE   C1A65621  35.292  20.849  13.585 -0.1448  0.0984  0.1442
 3647DPPE   C2A65622  35.486  21.166  13.458 -0.1148 -0.0252  0.0855
 3647DPPE   C3A65623  35.848  21.347  13.495 -0.0040  0.2113  0.0596
 3647DPPE   C4A65624  36.019  21.525  13.663 -0.1000  0.1020  0.2159
 3647DPPE   C1B65625  35.239  21.031  13.032  0.2117 -0.3041 -0.0457
 3647DPPE   C2B65626  35.676  20.989  13.031 -0.3156  0.0200 -0.1115
 3647DPPE   C3B65627  35.980  20.863  13.266  0.0108 -0.2168 -0.1471
 3647DPPE   C4B65628  36.311  20.663  13.444 -0.0652 -0.1011  0.0864
 3648DPPE   NH365629  35.390  20.198   6.068  0.0497  0.2526  0.1197
 3648DPPE   PO465630  35.356  19.689   6.316 -0.0234  0.0469 -0.0771
 3648DPPE   GL165631  35.726  19.590   6.287 -0.1897 -0.1081 -0.2619
 3648DPPE   GL265632  35.872  19.458   6.005 -0.1101  0.0665  0.1022
 3648DPPE   C1A65633  36.024  19.938   6.457 -0.1055 -0.0657 -0.2312
 3648DPPE   C2A65634  36.408  20.149   6.474  0.0297  0.0388 -0.2336
 3648DPPE   C3A65635  36.737  20.212   6.773  0.4273  0.0982 -0.0220
 3648DPPE   C4A65636  36.866  20.320   7.139  0.0126  0.1269 -0.1199
 3648DPPE   C1B65637  36.283  19.654   6.113 -0.0039  0.0552  0.1662
 3648DPPE   C2B65638  36.668  19.803   6.251 -0.3135 -0.0705 -0.0020
 3648DPPE   C3B65639  37.014  20.146   6.332  0.3202  0.1418 -0.1466
 3648DPPE   C4B65640  37.221  20.246   6.740 -0.3616 -0.3817  0.1466
 3649DPPE   NH365641  34.871  17.424  17.149  0.1165  0.1075 -0.2801
 3649DPPE   PO465642  34.750  17.812  17.102  0.2086 -0.2539  0.1720
 3649DPPE   GL165643  34.487  17.724  17.351 -0.0230  0.0207 -0.0470
 3649DPPE   GL265644  34.356  17.438  17.281 -0.0648 -0.1157  0.0387
 3649DPPE   C1A65645  34.135  17.783  17.606 -0.1529  0.1392 -0.2757
 3649DPPE   C2A65646  33.750  17.538  17.587  0.2544  0.2633 -0.2320
 3649DPPE   C3A65647  33.455  17.164  17.571  0.0513 -0.2303  0.0663
 3649DPPE   C4A65648  32.995  17.111  17.847 -0.3983 -0.0123 -0.1054
 3649DPPE   C1B65649  34.058  17.214  17.440 -0.1213  0.2339  0.1495
 3649DPPE   C2B65650  33.907  16.914  17.835 -0.2395 -0.0249  0.2323
 3649DPPE   C3B65651  33.456  16.926  18.073 -0.1884 -0.0696 -0.1831
 3649DPPE   C4B65652  33.298  16.672  18.500  0.0409 -0.0636  0.2253
 3650DPPE   NH365653   0.006  13.210   5.857 -0.0798  0.0287  0.0040
 3650DPPE   PO465654  -0.115  12.775   6.063 -0.2998 -0.0842 -0.1734
 3650DPPE   GL165655  -0.380  12.519   5.903 -0.0657  0.0845  0.1175
 3650DPPE   GL265656  -0.318  12.163   6.032  0.1287 -0.5769 -0.1887
 3650DPPE   C1A65657  -0.744  12.526   5.743  0.1565  0.1154  0.1077
 3650DPPE   C2A65658  -1.101  12.288   5.543  0.2116 -0.2075  0.1377
 3650DPPE   C3A65659  -1.501  12.072   5.417 -0.2493 -0.0370  0.1791
 3650DPPE   C4A65660  -1.806  11.753   5.143 -0.0985  0.1691 -0.2105
 3650DPPE   C1B65661  -0.690  11.881   6.211 -0.1611 -0.1112 -0.2022
 3650DPPE   C2B65662  -0.852  11.559   6.068 -0.1475 -0.1480 -0.3450
 3650DPPE   C3B65663  -0.960  11.263   5.832  0.0963 -0.0621  0.2490
 3650DPPE   C4B65664  -1.211  10.879   5.860 -0.1032 -0.1563  0.0134
 3651DPPE   NH365665  36.792  15.766  18.456  0.2683  0.3256  0.3912
 3651DPPE   PO465666  36.835  16.170  18.367  0.4569 -0.1939  0.1809
 3651DPPE   GL165667  36.488  16.051  18.722 -0.0392  0.1706  0.3498
 3651DPPE   GL265668  36.174  15.883  18.538  0.3799  0.1299  0.0227
 3651DPPE   C1A65669  36.316  16.310  18.943  0.3562 -0.2076 -0.1540
 3651DPPE   C2A65670  36.400  16.673  19.246  0.1335 -0.2518  0.0009
 3651DPPE   C3A65671  36.648  16.948  19.591  0.0122  0.1252 -0.0541
 3651DPPE   C4A65672  36.693  17.371  19.679 -0.1601  0.2360 -0.0042
 3651DPPE   C1B65673  36.226  15.744  18.943  0.2485 -0.2267  0.0446
 3651DPPE   C2B65674  35.990  15.523  19.170  0.1188 -0.1511  0.3371
 3651DPPE   C3B65675  35.711  15.253  19.492 -0.1359  0.1695 -0.2637
 3651DPPE   C4B65676  35.856  14.924  19.628 -0.1177  0.1661 -0.0248
 3652DPPE   NH365677  37.789  15.336  16.525  0.4040 -0.2507 -0.3683
 3652DPPE   PO465678  37.891  15.594  16.893  0.2929  0.0526  0.0291
 3652DPPE   GL165679  38.188  15.719  16.621  0.1938  0.0971  0.3548
 3652DPPE   GL265680  38.481  15.689  16.789 -0.2123  0.1466  0.1867
 3652DPPE   C1A65681  38.233  16.044  16.370  0.0300  0.0499  0.1714
 3652DPPE   C2A65682  38.271  16.405  16.256  0.0675  0.1915  0.0848
 3652DPPE   C3A65683  38.368  16.743  15.962 -0.0696 -0.3052  0.0391
 3652DPPE   C4A65684  38.695  16.825  15.842 -0.0710 -0.2225 -0.5060
 3652DPPE   C1B65685  38.554  16.103  16.945 -0.0211  0.1344 -0.1724
 3652DPPE   C2B65686  38.899  16.251  17.045  0.2185  0.1382 -0.1307
 3652DPPE   C3B65687  39.135  16.343  17.337 -0.5162  0.2484 -0.0152
 3652DPPE   C4B65688  39.349  16.448  17.661 -0.1223 -0.1257  0.1401
 3653DPPE   NH365689  34.466  22.060  14.661 -0.5608 -0.0084  0.0011
 3653DPPE   PO465690  34.290  21.714  14.718  0.3487  0.0621 -0.0816
 3653DPPE   GL165691  34.426  21.869  15.127 -0.0057  0.0488  0.0987
 3653DPPE   GL265692  34.454  22.221  15.102 -0.2530 -0.3618 -0.0928
 3653DPPE   C1A65693  34.568  22.015  15.538  0.0795  0.1826 -0.2143
 3653DPPE   C2A65694  34.395  21.787  15.839 -0.2578  0.3875  0.2334
 3653DPPE   C3A65695  34.088  21.523  15.951  0.0238  0.0402  0.0405
 3653DPPE   C4A65696  33.932  21.161  16.203  0.0246 -0.0898 -0.1257
 3653DPPE   C1B65697  34.744  22.582  15.084 -0.0625  0.2234  0.2428
 3653DPPE   C2B65698  35.217  22.694  15.301  0.2699 -0.0864  0.1081
 3653DPPE   C3B65699  35.618  22.839  15.635  0.1372 -0.0290 -0.3852
 3653DPPE   C4B65700  35.945  22.672  15.913  0.0006  0.0832 -0.0601
 3654DPPE   NH365701  35.660  22.369   5.669 -0.2126 -0.3081  0.2192
 3654DPPE   PO465702  35.363  22.426   5.562  0.3541 -0.0146  0.1701
 3654DPPE   GL165703  35.718  22.858   5.428  0.1920  0.0768 -0.0402
 3654DPPE   GL265704  35.938  22.661   5.363  0.1160  0.0251  0.0350
 3654DPPE   C1A65705  35.943  23.238   5.265  0.0499  0.0289 -0.0961
 3654DPPE   C2A65706  36.017  23.228   4.792 -0.1036  0.4429 -0.3736
 3654DPPE   C3A65707  35.985  23.365   4.340 -0.0631 -0.0483  0.0422
 3654DPPE   C4A65708  35.980  23.723   4.072  0.2120  0.1385 -0.0959
 3654DPPE   C1B65709  36.233  22.488   5.153 -0.1376  0.2518 -0.1761
 3654DPPE   C2B65710  36.660  22.433   5.182  0.2501  0.2351  0.1404
 3654DPPE   C3B65711  37.107  22.490   5.186 -0.0414 -0.1764 -0.1565
 3654DPPE   C4B65712  37.463  22.380   4.876  0.4409 -0.3678  0.1239
 3655DPPE   NH365713  35.000  22.272   7.103 -0.0946  0.2956 -0.0997
 3655DPPE   PO465714  35.414  22.386   6.987  0.2774  0.2225  0.2372
 3655DPPE   GL165715  35.755  22.709   7.186 -0.2927 -0.2539  0.1312
 3655DPPE   GL265716  35.648  22.947   6.955 -0.0117 -0.5286 -0.0330
 3655DPPE   C1A65717  36.056  22.950   7.491  0.0095 -0.2049  0.2201
 3655DPPE   C2A65718  36.241  23.137   7.856 -0.2089  0.0183  0.5229
 3655DPPE   C3A65719  36.337  23.180   8.236  0.1414 -0.2058 -0.0272
 3655DPPE   C4A65720  36.585  23.249   8.615 -0.0676 -0.1269  0.0882
 3655DPPE   C1B65721  35.957  23.266   7.045 -0.1869 -0.2255  0.0181
 3655DPPE   C2B65722  36.283  23.567   6.761  0.0707 -0.0970 -0.3430
 3655DPPE   C3B65723  36.199  23.943   6.557 -0.1700 -0.0715  0.1361
 3655DPPE   C4B65724  36.094  24.239   6.818  0.0482  0.0889 -0.0345
 3656DPPE   NH365725   2.695  10.971  10.238 -0.3985  0.0141 -0.1469
 3656DPPE   PO465726   2.832  11.135  10.592  0.0783 -0.1107 -0.1578
 3656DPPE   GL165727   3.200  11.486  10.684 -0.0978  0.0724 -0.3408
 3656DPPE   GL265728   3.220  11.707  10.456 -0.0326 -0.0814 -0.1615
 3656DPPE   C1A65729   3.638  11.541  10.833 -0.3696  0.1946  0.3823
 3656DPPE   C2A65730   4.069  11.221  10.862  0.0599  0.1543 -0.1220
 3656DPPE   C3A65731   4.411  11.155  11.065  0.4463  0.1873  0.1410
 3656DPPE   C4A65732   4.524  10.784  11.290 -0.1158  0.0935 -0.1498
 3656DPPE   C1B65733   3.621  11.543  10.280  0.3012 -0.0172 -0.0148
 3656DPPE   C2B65734   3.775  11.440   9.944  0.1263 -0.4268  0.3253
 3656DPPE   C3B65735   4.138  11.301   9.834 -0.0324  0.4062  0.2323
 3656DPPE   C4B65736   4.501  11.137   9.991  0.1359  0.0474  0.1966
 3657DPPE   NH365737  33.391  22.862  13.092 -0.1746 -0.2418 -0.1920
 3657DPPE   PO465738  33.870  22.781  13.373  0.0109 -0.3304 -0.1351
 3657DPPE   GL165739  33.666  23.085  13.518 -0.1106  0.2299 -0.2133
 3657DPPE   GL265740  33.665  22.886  13.815  0.0074 -0.1739  0.1883
 3657DPPE   C1A65741  33.373  23.474  13.448  0.0330 -0.2496  0.0621
 3657DPPE   C2A65742  33.037  23.744  13.183 -0.4747  0.1224 -0.1455
 3657DPPE   C3A65743  32.754  24.078  13.306 -0.0135 -0.1626  0.2298
 3657DPPE   C4A65744  32.685  24.409  13.445 -0.2624 -0.1837 -0.0830
 3657DPPE   C1B65745  33.806  23.266  14.086 -0.1161  0.0194 -0.2004
 3657DPPE   C2B65746  34.155  23.369  14.206  0.1464  0.0534  0.2769
 3657DPPE   C3B65747  34.497  23.433  14.521 -0.1937  0.1726  0.0307
 3657DPPE   C4B65748  34.680  23.303  14.820 -0.0185 -0.0216 -0.1265
 3658DPPE   NH365749   0.694  12.475  11.882  0.0299  0.1024 -0.1438
 3658DPPE   PO465750   1.015  12.556  12.208  0.1103 -0.2704 -0.0920
 3658DPPE   GL165751   1.415  12.709  12.092  0.1496  0.4014  0.0758
 3658DPPE   GL265752   1.508  12.633  12.345 -0.2840 -0.0081  0.1304
 3658DPPE   C1A65753   1.506  13.110  11.854 -0.1002  0.0828  0.1118
 3658DPPE   C2A65754   1.871  13.360  12.021 -0.0009 -0.1648  0.1861
 3658DPPE   C3A65755   1.892  13.756  12.046 -0.2690 -0.0727 -0.0613
 3658DPPE   C4A65756   1.809  14.088  11.835  0.0878 -0.2409 -0.1679
 3658DPPE   C1B65757   1.808  12.966  12.299 -0.0814 -0.2690  0.1508
 3658DPPE   C2B65758   2.122  13.223  12.404  0.0229  0.1175 -0.1033
 3658DPPE   C3B65759   2.338  13.566  12.194  0.0831 -0.2810  0.1211
 3658DPPE   C4B65760   2.625  13.867  11.997 -0.1939 -0.0574 -0.0593
 3659DPPE   NH365761  36.940  14.774  12.968  0.2794  0.4452  0.0225
 3659DPPE   PO465762  36.556  14.797  12.864 -0.2292 -0.1060  0.2431
 3659DPPE   GL165763  36.626  15.208  12.791  0.0408  0.0392  0.2162
 3659DPPE   GL265764  36.778  15.260  13.055 -0.2115  0.2344  0.1797
 3659DPPE   C1A65765  36.770  15.616  12.642  0.0339 -0.1285 -0.1352
 3659DPPE   C2A65766  37.119  15.816  12.810  0.0509  0.0751  0.0868
 3659DPPE   C3A65767  37.566  15.823  12.853  0.1571  0.1606 -0.2228
 3659DPPE   C4A65768  37.764  16.073  12.715 -0.2359 -0.0047 -0.1838
 3659DPPE   C1B65769  37.191  15.346  12.925  0.1765 -0.4225  0.2714
 3659DPPE   C2B65770  37.523  15.266  12.673  0.0168  0.2772  0.2216
 3659DPPE   C3B65771  37.869  15.500  12.603 -0.2642  0.0202 -0.0869
 3659DPPE   C4B65772  38.181  15.690  12.488 -0.0752  0.0136 -0.0954
 3660DPPE   NH365773  33.423  21.009   7.902 -0.0288  0.0995 -0.0681
 3660DPPE   PO465774  33.643  20.659   7.656  0.4400 -0.0153  0.0381
 3660DPPE   GL165775  33.161  20.651   7.492  0.1905 -0.3030 -0.0562
 3660DPPE   GL265776  33.307  20.434   7.173  0.1591  0.1659  0.0499
 3660DPPE   C1A65777  32.729  20.717   7.412 -0.1820 -0.2122 -0.3064
 3660DPPE   C2A65778  32.297  20.724   7.507  0.0897  0.3694  0.4378
 3660DPPE   C3A65779  31.949  20.545   7.286 -0.0432 -0.1840  0.1354
 3660DPPE   C4A65780  31.575  20.526   7.112 -0.3546  0.0427 -0.1784
 3660DPPE   C1B65781  32.923  20.231   7.378 -0.2415  0.2131  0.2605
 3660DPPE   C2B65782  32.526  20.341   7.242  0.0400 -0.0992 -0.3671
 3660DPPE   C3B65783  32.289  20.471   6.896 -0.0288  0.1984  0.4219
 3660DPPE   C4B65784  31.869  20.551   6.758  0.1224  0.3249 -0.0071
 3661DPPE   NH365785  36.702  13.943   6.793 -0.2300 -0.0402  0.1045
 3661DPPE   PO465786  37.084  13.741   6.756  0.0542  0.0791 -0.0026
 3661DPPE   GL165787  36.799  13.514   6.506  0.1812 -0.0080  0.0509
 3661DPPE   GL265788  36.823  13.184   6.515 -0.1495  0.0973  0.2942
 3661DPPE   C1A65789  36.564  13.378   6.086  0.2939  0.1069  0.1442
 3661DPPE   C2A65790  36.263  13.254   5.885 -0.0897  0.0562 -0.0971
 3661DPPE   C3A65791  36.198  13.214   5.369  0.1243  0.0803 -0.0566
 3661DPPE   C4A65792  35.968  13.078   4.937  0.1797  0.4087  0.1133
 3661DPPE   C1B65793  36.569  12.800   6.639 -0.1577 -0.3346 -0.1168
 3661DPPE   C2B65794  36.296  12.460   6.594  0.0927  0.0289  0.2792
 3661DPPE   C3B65795  36.077  12.066   6.628  0.2252 -0.0818  0.0865
 3661DPPE   C4B65796  35.713  11.872   6.655  0.1145  0.1810  0.0011
 3662DPPE   NH365797   0.142  12.386   6.385 -0.0084 -0.1278 -0.1372
 3662DPPE   PO465798   0.444  12.415   6.063 -0.1062  0.2287 -0.0920
 3662DPPE   GL165799   0.191  12.124   5.911  0.2193  0.2885 -0.2969
 3662DPPE   GL265800   0.064  12.144   5.715 -0.0584  0.0526  0.2693
 3662DPPE   C1A65801   0.020  11.780   6.097 -0.3322 -0.4036  0.1291
 3662DPPE   C2A65802  -0.370  11.508   6.136 -0.0030  0.2411  0.2210
 3662DPPE   C3A65803  -0.531  11.176   6.113  0.0386 -0.0101  0.0363
 3662DPPE   C4A65804  -0.770  10.883   6.120 -0.0256  0.2852  0.0959
 3662DPPE   C1B65805  -0.218  11.869   5.650 -0.1662  0.1540 -0.2667
 3662DPPE   C2B65806  -0.332  11.540   5.594 -0.2062 -0.1215 -0.2044
 3662DPPE   C3B65807  -0.533  11.153   5.500 -0.2926 -0.2899 -0.2279
 3662DPPE   C4B65808  -0.374  10.861   5.271  0.0008 -0.2308 -0.0823
 3663DPPE   NH365809   1.926  13.012   3.849 -0.0779  0.3360 -0.1730
 3663DPPE   PO465810   1.880  13.285   3.532 -0.3065 -0.0247 -0.0866
 3663DPPE   GL165811   2.146  13.616   3.434 -0.1526 -0.2844  0.1118
 3663DPPE   GL265812   2.388  13.359   3.514 -0.2457  0.2849  0.2133
 3663DPPE   C1A65813   2.519  13.805   3.166  0.3073 -0.2200 -0.0816
 3663DPPE   C2A65814   2.908  13.696   3.120 -0.1313 -0.3364  0.0593
 3663DPPE   C3A65815   3.298  13.727   3.002  0.1592 -0.1654 -0.1056
 3663DPPE   C4A65816   3.702  13.797   2.955 -0.2569  0.0279 -0.0832
 3663DPPE   C1B65817   2.697  13.624   3.599 -0.1229 -0.3016 -0.2409
 3663DPPE   C2B65818   3.121  13.854   3.520 -0.0383  0.1287  0.0543
 3663DPPE   C3B65819   3.560  14.056   3.419  0.2073  0.0281  0.0192
 3663DPPE   C4B65820   3.975  14.140   3.134 -0.0589 -0.1810 -0.0828
 3664DPPE   NH365821  33.479  22.027  13.469  0.1368 -0.0573 -0.1678
 3664DPPE   PO465822  33.148  22.249  13.306 -0.1747 -0.2979 -0.0776
 3664DPPE   GL165823  32.753  22.388  13.431 -0.0879 -0.1085  0.0783
 3664DPPE   GL265824  32.526  22.575  13.201  0.1927  0.0093 -0.1071
 3664DPPE   C1A65825  32.769  22.618  13.794  0.0196 -0.0393 -0.1119
 3664DPPE   C2A65826  32.826  22.414  14.151  0.1890 -0.0581  0.2057
 3664DPPE   C3A65827  32.596  22.094  14.492  0.3262  0.0184  0.2314
 3664DPPE   C4A65828  32.520  22.209  14.902  0.1056 -0.3380 -0.1919
 3664DPPE   C1B65829  32.582  22.888  13.446 -0.1071 -0.2483 -0.4301
 3664DPPE   C2B65830  32.370  23.202  13.628  0.1866 -0.1768 -0.1471
 3664DPPE   C3B65831  32.466  23.202  14.001  0.1419 -0.3085  0.1251
 3664DPPE   C4B65832  32.405  23.254  14.444  0.1277 -0.2433 -0.0020
 3665DPPE   NH365833   0.780  13.131  17.104 -0.1876  0.0596 -0.1702
 3665DPPE   PO465834   0.378  13.206  16.994  0.3291  0.0231 -0.2556
 3665DPPE   GL165835   0.251  12.799  17.113 -0.1071 -0.1958  0.3340
 3665DPPE   GL265836   0.627  12.653  17.048 -0.1111 -0.0888  0.2265
 3665DPPE   C1A65837   0.298  12.481  17.480 -0.3008  0.1728  0.4153
 3665DPPE   C2A65838   0.327  12.103  17.678  0.0686 -0.1714 -0.3930
 3665DPPE   C3A65839   0.411  11.596  17.618 -0.1854 -0.0062 -0.1437
 3665DPPE   C4A65840   0.416  11.351  17.331  0.1129 -0.0078 -0.0357
 3665DPPE   C1B65841   0.602  12.216  17.216  0.0205  0.0149  0.1683
 3665DPPE   C2B65842   0.334  11.889  17.210  0.1379 -0.2070 -0.0823
 3665DPPE   C3B65843   0.092  11.678  17.109  0.3095 -0.1123  0.0629
 3665DPPE   C4B65844  -0.256  11.514  16.821 -0.1086  0.1396 -0.1236
 3666DPPE   NH365845   1.753  11.476   9.942 -0.1818 -0.0743 -0.0140
 3666DPPE   PO465846   2.140  11.524   9.665  0.0584 -0.1879 -0.0362
 3666DPPE   GL165847   2.401  11.806   9.339  0.0615  0.0540 -0.0494
 3666DPPE   GL265848   2.792  11.730   9.200 -0.1150 -0.2717  0.0291
 3666DPPE   C1A65849   2.675  12.165   9.417  0.2563 -0.0671 -0.2410
 3666DPPE   C2A65850   2.944  12.357   9.742 -0.3667 -0.1275 -0.4661
 3666DPPE   C3A65851   3.159  12.724   9.804  0.3764  0.2422  0.1507
 3666DPPE   C4A65852   3.480  13.027   9.848 -0.0859 -0.2249  0.0586
 3666DPPE   C1B65853   3.207  11.889   9.048  0.1386 -0.0038 -0.0869
 3666DPPE   C2B65854   3.497  12.207   8.799  0.2613 -0.1385 -0.1099
 3666DPPE   C3B65855   3.956  12.318   8.634  0.0929  0.4981  0.2490
 3666DPPE   C4B65856   4.196  12.689   8.516 -0.4018 -0.1029 -0.1655
 3667DPPE   NH365857  37.864  15.144   5.928 -0.1081  0.3776 -0.4061
 3667DPPE   PO465858  37.966  15.533   5.767  0.2324 -0.1128  0.2296
 3667DPPE   GL165859  38.323  15.672   5.840 -0.0475  0.3473 -0.0751
 3667DPPE   GL265860  38.194  15.977   6.134  0.1144  0.1384 -0.0192
 3667DPPE   C1A65861  38.613  15.987   5.832  0.2331 -0.1900 -0.2439
 3667DPPE   C2A65862  39.058  16.086   5.790 -0.3244  0.0895 -0.1168
 3667DPPE   C3A65863  39.437  16.353   5.953  0.3496  0.0445  0.1165
 3667DPPE   C4A65864  39.799  16.488   6.205 -0.1385 -0.4026 -0.1574
 3667DPPE   C1B65865  38.492  15.665   6.310 -0.3623 -0.0675  0.2019
 3667DPPE   C2B65866  38.663  15.659   6.696 -0.0889  0.2243  0.0663
 3667DPPE   C3B65867  38.982  15.783   6.988  0.0465 -0.2632 -0.0553
 3667DPPE   C4B65868  39.105  15.998   7.349  0.1390 -0.0330 -0.3228
 3668DPPE   NH365869  33.439  22.227   7.051 -0.0354 -0.0341 -0.1126
 3668DPPE   PO465870  33.573  21.897   6.764  0.0314  0.1180  0.0959
 3668DPPE   GL165871  33.231  21.858   6.501  0.3830 -0.0483 -0.0910
 3668DPPE   GL265872  33.473  21.820   6.277  0.2289 -0.0478  0.1639
 3668DPPE   C1A65873  32.919  21.695   6.202 -0.5528 -0.2107  0.0695
 3668DPPE   C2A65874  32.511  21.569   6.174 -0.1720 -0.0503  0.0649
 3668DPPE   C3A65875  32.376  21.130   6.318  0.0566 -0.2229  0.0963
 3668DPPE   C4A65876  32.094  20.984   6.520 -0.2641 -0.1308 -0.1248
 3668DPPE   C1B65877  33.325  21.735   5.860  0.0175  0.1931  0.0539
 3668DPPE   C2B65878  32.992  21.836   5.654  0.1265 -0.0121 -0.4999
 3668DPPE   C3B65879  32.685  21.687   5.268 -0.2539 -0.2545  0.1106
 3668DPPE   C4B65880  32.240  21.704   5.275  0.0574  0.2432  0.1288
 3669DPPE   NH365881   0.846  12.885  15.879  0.0780  0.3075  0.1361
 3669DPPE   PO465882   1.131  12.952  16.281 -0.1050 -0.0621 -0.0596
 3669DPPE   GL165883   1.039  12.624  16.648 -0.0539 -0.3443  0.1359
 3669DPPE   GL265884   1.108  12.753  16.937  0.2159  0.3097 -0.1287
 3669DPPE   C1A65885   1.079  12.267  16.969 -0.0989  0.2776  0.1723
 3669DPPE   C2A65886   1.275  12.045  17.333  0.0129  0.0181  0.1923
 3669DPPE   C3A65887   1.461  12.216  17.678 -0.1743 -0.2321  0.0672
 3669DPPE   C4A65888   1.721  12.525  17.759 -0.0034 -0.1856 -0.1628
 3669DPPE   C1B65889   1.447  12.493  17.187 -0.0461 -0.1532 -0.2790
 3669DPPE   C2B65890   1.779  12.173  17.256  0.2001 -0.1765 -0.2119
 3669DPPE   C3B65891   1.772  11.745  17.336  0.3336  0.1165  0.0067
 3669DPPE   C4B65892   1.896  11.513  17.764  0.0519  0.1231 -0.0307
 3670DPPE   NH365893  35.050  19.848  15.312 -0.0683  0.0132  0.0530
 3670DPPE   PO465894  35.456  19.881  15.351 -0.1907  0.0496 -0.0135
 3670DPPE   GL165895  35.759  20.182  15.378 -0.1923 -0.2638 -0.1061
 3670DPPE   GL265896  35.740  20.468  15.231  0.0354 -0.3760  0.4671
 3670DPPE   C1A65897  36.148  20.306  15.510 -0.1030 -0.2365  0.1139
 3670DPPE   C2A65898  36.291  20.515  15.855 -0.1327  0.0416 -0.0300
 3670DPPE   C3A65899  36.328  20.757  16.281  0.1114  0.1761 -0.1425
 3670DPPE   C4A65900  36.139  21.000  16.648 -0.2825  0.0783  0.0725
 3670DPPE   C1B65901  36.128  20.485  15.013 -0.2276  0.2328 -0.3281
 3670DPPE   C2B65902  36.482  20.343  15.029  0.1343 -0.1635 -0.4561
 3670DPPE   C3B65903  36.884  20.330  15.086  0.0316  0.4146  0.1429
 3670DPPE   C4B65904  37.269  20.247  15.131 -0.3138 -0.3034 -0.0984
 3671DPPE   NH365905  33.719  18.372  10.707  0.0183  0.3051  0.2427
 3671DPPE   PO465906  33.886  18.766  10.802 -0.0472  0.2527 -0.0043
 3671DPPE   GL165907  34.161  18.966  11.017  0.0049  0.0375 -0.1990
 3671DPPE   GL265908  34.452  18.871  11.135  0.3736  0.1206 -0.1427
 3671DPPE   C1A65909  34.311  19.389  10.913 -0.0842  0.1956  0.0247
 3671DPPE   C2A65910  34.467  19.670  10.656 -0.2092  0.0088  0.0679
 3671DPPE   C3A65911  34.805  19.567  10.441 -0.1648 -0.2026  0.1236
 3671DPPE   C4A65912  35.255  19.287  10.591  0.0747  0.2475 -0.3588
 3671DPPE   C1B65913  34.810  18.510  11.093  0.1454 -0.0372 -0.0333
 3671DPPE   C2B65914  34.972  18.204  11.395  0.3010 -0.0376  0.2083
 3671DPPE   C3B65915  35.239  17.979  11.646  0.2284  0.0044  0.1018
 3671DPPE   C4B65916  35.295  18.077  12.045 -0.0048  0.0184  0.1303
 3672DPPE   NH365917   3.089  10.194   8.759 -0.0136  0.1848 -0.2968
 3672DPPE   PO465918   3.009  10.503   8.534 -0.4030 -0.2387 -0.0025
 3672DPPE   GL165919   3.111  10.250   8.195 -0.3699  0.2523 -0.0528
 3672DPPE   GL265920   3.290  10.023   8.330  0.0240 -0.2015  0.3440
 3672DPPE   C1A65921   3.156   9.991   7.829  0.0274 -0.1388  0.1376
 3672DPPE   C2A65922   2.954   9.734   7.470 -0.0776  0.0951  0.2795
 3672DPPE   C3A65923   2.771   9.577   7.211 -0.0504  0.3057 -0.0179
 3672DPPE   C4A65924   2.536   9.398   6.973  0.3446  0.0486  0.2783
 3672DPPE   C1B65925   3.639  10.150   8.134 -0.3651  0.0508  0.0907
 3672DPPE   C2B65926   4.004  10.417   8.000 -0.0016  0.0739  0.0243
 3672DPPE   C3B65927   4.132  10.793   7.816  0.4699 -0.1180  0.2795
 3672DPPE   C4B65928   4.208  10.967   7.479 -0.3080  0.3059  0.1150
 3673DPPE   NH365929  35.459  22.897   5.923 -0.1682 -0.1283 -0.0866
 3673DPPE   PO465930  35.645  22.675   6.129 -0.2588  0.2455 -0.1124
 3673DPPE   GL165931  36.013  22.910   6.166 -0.1337 -0.0298 -0.0398
 3673DPPE   GL265932  36.002  23.160   6.483  0.1491 -0.0703  0.3549
 3673DPPE   C1A65933  36.304  23.262   6.111  0.1004  0.0160 -0.3033
 3673DPPE   C2A65934  36.515  23.635   6.363 -0.1055 -0.2713 -0.1726
 3673DPPE   C3A65935  36.603  24.019   6.284  0.1149 -0.0299  0.2589
 3673DPPE   C4A65936  36.853  24.271   5.940 -0.0282  0.1247  0.0862
 3673DPPE   C1B65937  36.255  22.946   6.806  0.1772 -0.1536  0.0276
 3673DPPE   C2B65938  36.478  23.174   7.243  0.3952  0.1330 -0.0906
 3673DPPE   C3B65939  36.689  23.376   7.649 -0.0950  0.0140  0.1426
 3673DPPE   C4B65940  36.694  23.527   8.087 -0.3663 -0.3751 -0.1679
 3674DPPE   NH365941  37.950  14.713  15.155 -0.3223  0.0668 -0.1994
 3674DPPE   PO465942  38.329  14.551  15.359 -0.3035 -0.1877 -0.3582
 3674DPPE   GL165943  38.518  14.941  15.104 -0.3571 -0.1447 -0.2368
 3674DPPE   GL265944  38.830  14.891  15.053 -0.1260  0.1608  0.2748
 3674DPPE   C1A65945  38.525  15.270  14.825 -0.2698 -0.0284  0.1102
 3674DPPE   C2A65946  38.271  15.616  14.836 -0.1658 -0.3063 -0.2063
 3674DPPE   C3A65947  38.139  15.976  14.691  0.1669 -0.2795 -0.0869
 3674DPPE   C4A65948  38.335  16.260  14.533 -0.1196 -0.0097  0.1708
 3674DPPE   C1B65949  39.035  15.295  14.918 -0.4611 -0.2696  0.2361
 3674DPPE   C2B65950  39.344  15.533  14.771 -0.1248 -0.4811 -0.3580
 3674DPPE   C3B65951  39.538  15.847  14.507  0.1462  0.0457  0.2613
 3674DPPE   C4B65952  39.579  16.222  14.184 -0.2111 -0.1764 -0.2582
 3675DPPE   NH365953  35.673  18.863   6.855  0.2683  0.1488  0.0659
 3675DPPE   PO465954  35.208  19.023   6.941 -0.0797 -0.1585 -0.2373
 3675DPPE   GL165955  35.560  19.354   6.994  0.0519 -0.1175 -0.1252
 3675DPPE   GL265956  35.896  19.378   6.728 -0.0808  0.2827  0.1154
 3675DPPE   C1A65957  35.869  19.687   7.100 -0.0550 -0.0842  0.1415
 3675DPPE   C2A65958  36.199  19.682   7.545 -0.2358  0.1665 -0.2170
 3675DPPE   C3A65959  36.655  19.639   7.728  0.1237 -0.1266  0.3751
 3675DPPE   C4A65960  37.036  19.722   8.023  0.2925 -0.0300  0.1220
 3675DPPE   C1B65961  36.200  19.309   6.476 -0.1364 -0.0005 -0.1243
 3675DPPE   C2B65962  36.596  19.321   6.416  0.1069 -0.0011 -0.2088
 3675DPPE   C3B65963  36.998  19.386   6.205 -0.0826  0.0832 -0.0022
 3675DPPE   C4B65964  37.193  19.734   6.129 -0.2338 -0.1778  0.2287
 3676DPPE   NH365965   1.389  12.185  12.166  0.1580 -0.2227 -0.1092
 3676DPPE   PO465966   1.084  12.147  11.842 -0.1143 -0.0971  0.1789
 3676DPPE   GL165967   1.062  12.551  11.532 -0.2018 -0.3616 -0.0429
 3676DPPE   GL265968   0.725  12.680  11.396 -0.0715 -0.0487 -0.1127
 3676DPPE   C1A65969   1.152  12.942  11.509  0.0627 -0.0417  0.2352
 3676DPPE   C2A65970   1.060  13.321  11.743  0.1494  0.1197 -0.0257
 3676DPPE   C3A65971   0.673  13.419  11.959 -0.2547  0.0633  0.0409
 3676DPPE   C4A65972   0.462  13.378  12.426 -0.0321 -0.2474 -0.1305
 3676DPPE   C1B65973   0.666  13.106  11.450  0.4521 -0.1133  0.1773
 3676DPPE   C2B65974   0.686  13.556  11.503 -0.2417 -0.2617  0.0453
 3676DPPE   C3B65975   0.988  13.838  11.734 -0.0292  0.1031 -0.1053
 3676DPPE   C4B65976   1.342  14.142  11.655  0.1473 -0.0108  0.1499
 3677DPPE   NH365977  34.645  20.000   7.879  0.2761  0.0710 -0.0129
 3677DPPE   PO465978  34.503  19.608   7.596  0.0898 -0.1517 -0.1307
 3677DPPE   GL165979  34.907  19.580   7.893  0.2339 -0.0275  0.0550
 3677DPPE   GL265980  34.852  19.408   8.208  0.1856  0.0773 -0.2348
 3677DPPE   C1A65981  35.288  19.626   8.041  0.0933 -0.2662  0.0234
 3677DPPE   C2A65982  35.644  19.684   8.303 -0.1748  0.2361 -0.1472
 3677DPPE   C3A65983  35.995  19.687   8.485  0.1353  0.1082 -0.0969
 3677DPPE   C4A65984  36.408  19.560   8.618  0.2630  0.3909  0.0815
 3677DPPE   C1B65985  35.189  19.474   8.481 -0.3745  0.2626 -0.2629
 3677DPPE   C2B65986  35.447  19.287   8.741 -0.3282 -0.1295  0.0442
 3677DPPE   C3B65987  35.624  18.948   8.997  0.0624  0.1024 -0.3829
 3677DPPE   C4B65988  35.441  18.618   9.274 -0.4250  0.2763 -0.0186
 3678DPPE   NH365989   0.212  14.149   6.254 -0.1358 -0.2133 -0.0060
 3678DPPE   PO465990  -0.154  14.327   5.988 -0.2523 -0.4315  0.2196
 3678DPPE   GL165991   0.096  14.622   6.349  0.0638 -0.3811 -0.0450
 3678DPPE   GL265992  -0.017  14.682   6.569 -0.1127 -0.0374 -0.0527
 3678DPPE   C1A65993   0.559  14.724   6.216 -0.2054 -0.0456  0.2807
 3678DPPE   C2A65994   0.961  14.829   6.272 -0.2060  0.0429  0.0131
 3678DPPE   C3A65995   1.378  15.002   6.357 -0.0131  0.0677 -0.2557
 3678DPPE   C4A65996   1.691  15.322   6.512  0.2335 -0.1419 -0.2288
 3678DPPE   C1B65997   0.376  14.739   6.764  0.3145 -0.1245  0.3812
 3678DPPE   C2B65998   0.805  14.934   6.717 -0.1010 -0.1380 -0.1632
 3678DPPE   C3B65999   1.118  15.208   6.817 -0.2108 -0.0766  0.2347
 3678DPPE   C4B66000   1.353  15.313   7.107 -0.1420 -0.2021  0.1384
 3679DPPE   NH366001  36.212  16.882  18.177  0.2765  0.0526  0.3954
 3679DPPE   PO466002  36.220  17.258  18.318  0.0942  0.1554 -0.2519
 3679DPPE   GL166003  35.919  17.443  18.584  0.0864 -0.0858 -0.3474
 3679DPPE   GL266004  36.113  17.569  18.771 -0.0141 -0.2094  0.0561
 3679DPPE   C1A66005  35.635  17.680  18.799 -0.0978  0.0736 -0.4091
 3679DPPE   C2A66006  35.445  17.920  19.216 -0.3810  0.0832  0.5001
 3679DPPE   C3A66007  35.621  18.176  19.547 -0.0715  0.0301 -0.0909
 3679DPPE   C4A66008  35.709  18.193  19.959 -0.0204  0.1541  0.1824
 3679DPPE   C1B66009  36.071  18.004  18.987  0.4756  0.2895 -0.1700
 3679DPPE   C2B66010  35.867  18.382  19.121  0.2556 -0.1614 -0.0386
 3679DPPE   C3B66011  35.505  18.477  19.072 -0.2540 -0.1197  0.1802
 3679DPPE   C4B66012  35.104  18.275  19.332  0.1719 -0.2182  0.0535
 3680DPPE   NH366013  34.006  16.949  13.561  0.1463 -0.1914 -0.0395
 3680DPPE   PO466014  33.750  17.318  13.755  0.0950 -0.1826 -0.0664
 3680DPPE   GL166015  33.392  17.208  14.007  0.3532 -0.2294  0.1644
 3680DPPE   GL266016  33.489  17.213  14.455 -0.3514  0.0171  0.1641
 3680DPPE   C1A66017  33.000  17.094  14.199  0.0446 -0.0565  0.1491
 3680DPPE   C2A66018  32.651  16.891  14.386 -0.2134  0.0247 -0.0039
 3680DPPE   C3A66019  32.332  17.079  14.411 -0.0370 -0.2628  0.0174
 3680DPPE   C4A66020  31.922  16.848  14.564  0.0982 -0.0870 -0.1295
 3680DPPE   C1B66021  33.103  17.314  14.642  0.0685 -0.0715  0.0130
 3680DPPE   C2B66022  32.648  17.293  14.736 -0.0176  0.2368 -0.0357
 3680DPPE   C3B66023  32.303  17.187  14.927  0.0625 -0.2750 -0.1712
 3680DPPE   C4B66024  32.022  17.159  15.265  0.1634  0.0510 -0.3511
 3681DPPE   NH366025   2.193  11.433  10.750  0.0467 -0.1529 -0.1092
 3681DPPE   PO466026   2.437  11.393  10.462  0.3235 -0.0545  0.2125
 3681DPPE   GL166027   2.662  11.583  10.503  0.0654 -0.0104 -0.0292
 3681DPPE   GL266028   2.718  11.688  10.813  0.0808 -0.1296 -0.0056
 3681DPPE   C1A66029   2.830  11.954  10.394  0.2385  0.0376  0.1266
 3681DPPE   C2A66030   3.149  12.345  10.339  0.0086  0.1696 -0.0934
 3681DPPE   C3A66031   3.467  12.625  10.187  0.0634  0.2382 -0.1760
 3681DPPE   C4A66032   3.846  12.433  10.066 -0.1167 -0.0333 -0.0837
 3681DPPE   C1B66033   3.011  11.915  10.859  0.0341  0.1487 -0.3783
 3681DPPE   C2B66034   3.421  12.052  10.745 -0.2565 -0.1237  0.0866
 3681DPPE   C3B66035   3.877  11.930  10.682 -0.2376 -0.0173  0.1478
 3681DPPE   C4B66036   4.313  11.913  10.596 -0.2218  0.0125 -0.0663
 3682DPPE   NH366037  33.576  23.595  11.459 -0.1867  0.1765 -0.2869
 3682DPPE   PO466038  33.768  23.828  11.101 -0.1852 -0.1049  0.0259
 3682DPPE   GL166039  33.455  24.102  11.389  0.1386  0.0708  0.0813
 3682DPPE   GL266040  33.524  24.007  11.699 -0.0037 -0.3361  0.0788
 3682DPPE   C1A66041  32.988  24.423  11.368 -0.2697  0.4924 -0.1857
 3682DPPE   C2A66042  32.898  24.706  11.715  0.4462 -0.0192  0.0562
 3682DPPE   C3A66043  33.091  24.845  12.054 -0.1094 -0.3494  0.0121
 3682DPPE   C4A66044  32.946  25.265  12.232 -0.1070 -0.3351 -0.1096
 3682DPPE   C1B66045  33.851  24.287  11.899 -0.0703  0.0989  0.2115
 3682DPPE   C2B66046  34.222  24.238  11.975  0.1033  0.0901  0.0116
 3682DPPE   C3B66047  34.553  24.511  12.087 -0.2074  0.1490  0.2713
 3682DPPE   C4B66048  34.627  24.905  11.997 -0.2167  0.0023  0.0414
 3683DPPE   NH366049   1.162  10.527   9.557  0.1743 -0.1024 -0.3653
 3683DPPE   PO466050   0.872  10.417   9.263 -0.3616 -0.1669  0.1877
 3683DPPE   GL166051   0.771  10.116   9.003 -0.0069  0.4713  0.2417
 3683DPPE   GL266052   0.519  10.188   8.702 -0.2968  0.0686 -0.1035
 3683DPPE   C1A66053   0.657   9.748   8.766 -0.0438 -0.1390  0.1118
 3683DPPE   C2A66054   0.498   9.341   8.727  0.1072  0.0064 -0.2116
 3683DPPE   C3A66055   0.044   9.081   8.821  0.0418 -0.1603 -0.0272
 3683DPPE   C4A66056  -0.425   9.008   8.838  0.1263 -0.3771  0.0467
 3683DPPE   C1B66057   0.243   9.940   8.500 -0.2481 -0.0756 -0.2055
 3683DPPE   C2B66058   0.046   9.426   8.464 -0.1305 -0.1369 -0.0063
 3683DPPE   C3B66059  -0.135   8.953   8.370  0.1330  0.2567 -0.2115
 3683DPPE   C4B66060  -0.545   8.884   8.271  0.1801 -0.0110 -0.0119
 3684DPPE   NH366061   0.510  12.660   4.173  0.4182  0.2039  0.2136
 3684DPPE   PO466062   0.616  12.484   4.492 -0.2414  0.3660 -0.1431
 3684DPPE   GL166063   0.548  12.114   4.421  0.1107  0.2096 -0.0348
 3684DPPE   GL266064   0.208  12.225   4.318  0.0278  0.0242 -0.0974
 3684DPPE   C1A66065   0.463  11.799   3.975  0.2318  0.2936  0.1476
 3684DPPE   C2A66066   0.571  11.505   3.707 -0.1941  0.0103  0.1851
 3684DPPE   C3A66067   0.834  11.124   3.614 -0.1295  0.0495 -0.1734
 3684DPPE   C4A66068   1.024  10.779   3.428  0.1335  0.0924  0.1461
 3684DPPE   C1B66069  -0.099  11.926   4.090  0.1449  0.2807  0.0122
 3684DPPE   C2B66070  -0.595  11.794   3.844 -0.1006 -0.1205 -0.1566
 3684DPPE   C3B66071  -0.980  11.986   3.743  0.1839 -0.0434  0.1095
 3684DPPE   C4B66072  -1.343  12.111   3.565 -0.0454  0.1124  0.0464
 3685DPPE   NH366073  36.494  14.496  16.279 -0.2961 -0.1951  0.0317
 3685DPPE   PO466074  36.811  14.073  16.200  0.0344 -0.0855  0.0274
 3685DPPE   GL166075  36.527  13.807  16.332  0.1381  0.2077  0.1560
 3685DPPE   GL266076  36.733  13.514  16.219  0.1572 -0.2519  0.2351
 3685DPPE   C1A66077  36.204  13.720  16.546  0.0964  0.5520  0.2390
 3685DPPE   C2A66078  35.978  13.417  16.904 -0.0763  0.4192 -0.0514
 3685DPPE   C3A66079  35.712  13.099  17.133 -0.2787 -0.0177  0.2029
 3685DPPE   C4A66080  35.510  13.156  17.570 -0.3015  0.0701 -0.3736
 3685DPPE   C1B66081  36.406  13.190  16.267 -0.0694 -0.2525 -0.0069
 3685DPPE   C2B66082  36.078  13.044  16.472 -0.0384 -0.1334  0.1724
 3685DPPE   C3B66083  35.888  12.699  16.801  0.2157 -0.0218  0.0903
 3685DPPE   C4B66084  35.883  12.275  16.839  0.0349  0.0945  0.3013
 3686DPPE   NH366085  34.474  16.460   8.945  0.0699  0.0385 -0.0395
 3686DPPE   PO466086  34.623  15.978   8.987 -0.1213 -0.1456 -0.3145
 3686DPPE   GL166087  34.207  15.986   8.843  0.0070 -0.1137  0.1829
 3686DPPE   GL266088  34.248  16.156   8.619  0.0172 -0.0417  0.0874
 3686DPPE   C1A66089  33.840  15.677   8.773  0.2077 -0.1896  0.2216
 3686DPPE   C2A66090  33.483  15.575   8.685 -0.1335 -0.0915  0.0563
 3686DPPE   C3A66091  33.206  15.210   8.830 -0.1736  0.0055  0.2627
 3686DPPE   C4A66092  33.156  14.832   9.113  0.0016 -0.0380 -0.0419
 3686DPPE   C1B66093  34.063  15.828   8.339 -0.1006 -0.0690 -0.0724
 3686DPPE   C2B66094  33.777  15.444   8.259 -0.4811  0.1646 -0.1332
 3686DPPE   C3B66095  33.483  15.167   8.359 -0.2792  0.3270 -0.1511
 3686DPPE   C4B66096  33.340  15.050   7.942  0.0564  0.0205 -0.0496
 3687DPPE   NH366097  36.647  18.254  16.800  0.1182  0.1065 -0.2894
 3687DPPE   PO466098  36.369  18.501  16.505  0.0723 -0.1445  0.0341
 3687DPPE   GL166099  36.762  18.704  16.251 -0.6723  0.0888 -0.1199
 3687DPPE   GL266100  36.847  18.997  16.385  0.0690  0.1542 -0.2229
 3687DPPE   C1A66101  37.051  18.688  15.927 -0.2271  0.3328 -0.0096
 3687DPPE   C2A66102  36.717  18.687  15.561 -0.4812  0.1754  0.0083
 3687DPPE   C3A66103  36.719  18.584  15.031 -0.1374 -0.0849 -0.2112
 3687DPPE   C4A66104  36.963  18.248  14.754 -0.3242  0.3132  0.1367
 3687DPPE   C1B66105  37.224  19.116  16.100 -0.1938  0.2923 -0.0888
 3687DPPE   C2B66106  37.467  19.490  15.920  0.2705 -0.1887 -0.0306
 3687DPPE   C3B66107  37.621  19.929  15.791  0.2252  0.0748 -0.0395
 3687DPPE   C4B66108  37.793  20.418  15.770  0.1636  0.2682 -0.1300
 3688DPPE   NH366109   0.496  14.620  16.551 -0.1412  0.2883  0.3899
 3688DPPE   PO466110   0.766  14.666  16.198  0.2244  0.2508  0.0226
 3688DPPE   GL166111   0.879  14.868  15.785 -0.2397 -0.1709 -0.2497
 3688DPPE   GL266112   0.874  15.145  15.997 -0.0133  0.3330 -0.0067
 3688DPPE   C1A66113   1.265  14.921  15.752 -0.1891 -0.0677  0.1211
 3688DPPE   C2A66114   1.358  15.249  15.481  0.0011  0.0330 -0.2917
 3688DPPE   C3A66115   1.670  15.290  15.232 -0.0245 -0.3350 -0.3223
 3688DPPE   C4A66116   1.832  15.660  15.144  0.3696  0.2028 -0.1359
 3688DPPE   C1B66117   0.893  15.365  15.745 -0.1806  0.3367  0.0789
 3688DPPE   C2B66118   1.152  15.709  15.777 -0.5134  0.2574  0.0755
 3688DPPE   C3B66119   1.392  15.815  16.175  0.2799  0.0111  0.0568
 3688DPPE   C4B66120   1.666  15.979  16.515 -0.1765  0.0440  0.0524
 3689DPPE   NH366121  34.709  17.538  12.973 -0.0748 -0.0117 -0.1294
 3689DPPE   PO466122  34.356  17.513  12.870 -0.1047  0.0524  0.0253
 3689DPPE   GL166123  34.577  17.800  12.560  0.1313  0.0267 -0.4828
 3689DPPE   GL266124  34.842  17.753  12.381 -0.1580 -0.0039 -0.0534
 3689DPPE   C1A66125  34.639  18.228  12.446 -0.1618  0.3612  0.0112
 3689DPPE   C2A66126  34.850  18.584  12.316  0.3179 -0.1782  0.1772
 3689DPPE   C3A66127  35.058  18.917  12.101 -0.3690  0.1569  0.1667
 3689DPPE   C4A66128  35.489  19.280  12.147  0.0522 -0.0147 -0.0940
 3689DPPE   C1B66129  35.282  17.739  12.574  0.1316  0.3373 -0.0901
 3689DPPE   C2B66130  35.590  17.615  12.871 -0.0019 -0.2879 -0.1990
 3689DPPE   C3B66131  35.710  17.444  13.263  0.0957  0.1364 -0.1037
 3689DPPE   C4B66132  35.713  17.401  13.679 -0.1673  0.0486 -0.0650
 3690DPPE   NH366133  33.449  17.198  12.882  0.1950 -0.0091  0.3175
 3690DPPE   PO466134  33.494  17.104  12.514 -0.3367  0.1856  0.1101
 3690DPPE   GL166135  33.093  17.044  12.403  0.0751 -0.1825 -0.1121
 3690DPPE   GL266136  32.961  17.165  12.154  0.2546  0.1826  0.0481
 3690DPPE   C1A66137  32.713  16.764  12.426  0.1773  0.1031 -0.0863
 3690DPPE   C2A66138  32.308  16.788  12.461  0.0577 -0.0211  0.0706
 3690DPPE   C3A66139  32.016  16.471  12.424  0.3630  0.1534  0.1765
 3690DPPE   C4A66140  31.688  16.224  12.518  0.2588 -0.0253  0.1708
 3690DPPE   C1B66141  32.515  16.955  11.905 -0.1519 -0.2325 -0.2414
 3690DPPE   C2B66142  32.127  16.938  12.011 -0.0116 -0.0441 -0.2133
 3690DPPE   C3B66143  31.776  16.901  12.255 -0.1716  0.1573 -0.0173
 3690DPPE   C4B66144  31.485  16.792  12.533 -0.2759  0.3503 -0.0970
 3691DPPE   NH366145  35.719  14.689  11.298  0.1412  0.0192 -0.0156
 3691DPPE   PO466146  35.239  14.846  11.288  0.0352  0.0861 -0.0208
 3691DPPE   GL166147  35.026  14.598  11.058 -0.0358  0.0228  0.0341
 3691DPPE   GL266148  34.863  14.286  11.294  0.2100 -0.1514  0.1766
 3691DPPE   C1A66149  34.751  14.293  10.840 -0.1814  0.1111 -0.0292
 3691DPPE   C2A66150  34.435  14.106  10.674 -0.1132  0.0987 -0.2110
 3691DPPE   C3A66151  34.012  13.989  10.658  0.1244 -0.1732 -0.0151
 3691DPPE   C4A66152  33.795  13.690  10.842  0.1857 -0.0686  0.1967
 3691DPPE   C1B66153  34.410  14.220  11.166  0.0477  0.1106 -0.0777
 3691DPPE   C2B66154  34.040  14.165  11.140  0.2047 -0.0645  0.1101
 3691DPPE   C3B66155  33.658  13.852  11.293 -0.1227  0.0271 -0.3238
 3691DPPE   C4B66156  33.439  13.394  11.325 -0.0930  0.2591 -0.0400
 3692DPPE   NH366157   2.418  10.258  11.745  0.0177 -0.0179  0.2365
 3692DPPE   PO466158   2.698  10.438  11.495 -0.1826  0.1431  0.0269
 3692DPPE   GL166159   3.047  10.300  11.641 -0.1199  0.1482  0.0649
 3692DPPE   GL266160   3.263  10.495  11.734 -0.1171  0.0306  0.1641
 3692DPPE   C1A66161   3.200   9.972  11.852  0.0504  0.0771 -0.0673
 3692DPPE   C2A66162   3.217   9.805  12.265  0.2682  0.0526  0.0992
 3692DPPE   C3A66163   3.273   9.828  12.747  0.1644 -0.0950  0.1896
 3692DPPE   C4A66164   2.979   9.568  13.046 -0.5295  0.2125  0.2527
 3692DPPE   C1B66165   3.583  10.457  12.121 -0.1434 -0.2226 -0.0606
 3692DPPE   C2B66166   3.766  10.335  12.523  0.2588 -0.0170 -0.0935
 3692DPPE   C3B66167   3.807   9.977  12.715  0.0488  0.1741  0.0470
 3692DPPE   C4B66168   4.203   9.790  12.703 -0.0239 -0.0562  0.0595
 3693DPPE   NH366169  34.531  16.818  15.994 -0.1165 -0.2533  0.0383
 3693DPPE   PO466170  34.492  17.269  15.939 -0.5277 -0.3011 -0.2771
 3693DPPE   GL166171  34.162  17.263  16.220 -0.0573 -0.0336 -0.1949
 3693DPPE   GL266172  34.130  16.984  16.246 -0.2441  0.0935  0.0134
 3693DPPE   C1A66173  33.815  17.355  16.538  0.0142 -0.2845  0.1078
 3693DPPE   C2A66174  33.471  17.250  16.691 -0.0259  0.2287  0.0077
 3693DPPE   C3A66175  33.237  16.764  16.649 -0.1323  0.1618 -0.2032
 3693DPPE   C4A66176  33.171  16.431  16.532 -0.0350 -0.2189 -0.0414
 3693DPPE   C1B66177  33.882  16.799  16.157 -0.1374  0.2308 -0.2797
 3693DPPE   C2B66178  33.639  16.494  16.141  0.3058  0.1313 -0.4318
 3693DPPE   C3B66179  33.396  16.108  16.151 -0.0540  0.1772 -0.3865
 3693DPPE   C4B66180  33.336  15.669  16.200 -0.1895  0.1410  0.1248
 3694DPPE   NH366181  33.930  20.219  14.656  0.0760  0.0916  0.0041
 3694DPPE   PO466182  33.730  19.886  14.526 -0.0609  0.0364  0.0722
 3694DPPE   GL166183  33.272  19.846  14.809 -0.1090  0.0720 -0.3693
 3694DPPE   GL266184  33.263  19.695  15.119  0.2159 -0.0420 -0.0486
 3694DPPE   C1A66185  32.797  19.808  14.931 -0.4790  0.0297 -0.3790
 3694DPPE   C2A66186  32.339  19.884  14.981 -0.2445 -0.2746  0.0420
 3694DPPE   C3A66187  31.876  19.841  14.943 -0.0658 -0.0771 -0.0453
 3694DPPE   C4A66188  31.634  19.840  15.214  0.5323  0.1286 -0.0309
 3694DPPE   C1B66189  33.069  20.086  15.360  0.1097 -0.2652 -0.3226
 3694DPPE   C2B66190  32.775  20.224  15.239 -0.0710  0.0672 -0.1098
 3694DPPE   C3B66191  32.360  20.349  15.373 -0.2800  0.2970  0.1949
 3694DPPE   C4B66192  32.073  20.072  15.336 -0.3461 -0.0371  0.0891
 3695DPPE   NH366193  36.625  18.929  17.297  0.0550 -0.0046  0.0144
 3695DPPE   PO466194  36.872  18.555  17.276  0.2319 -0.0182 -0.3052
 3695DPPE   GL166195  37.112  18.821  17.054  0.1295  0.1636  0.0890
 3695DPPE   GL266196  37.120  19.117  16.903  0.1520  0.0351  0.1098
 3695DPPE   C1A66197  37.379  19.176  17.316 -0.0833  0.0518 -0.0926
 3695DPPE   C2A66198  37.551  19.488  17.617 -0.0390  0.0107 -0.0598
 3695DPPE   C3A66199  37.751  19.797  17.746  0.4704 -0.2664 -0.2531
 3695DPPE   C4A66200  37.675  20.131  18.030  0.2466  0.1731 -0.2423
 3695DPPE   C1B66201  37.566  18.921  16.917  0.1176  0.1595 -0.1640
 3695DPPE   C2B66202  38.012  18.944  16.730  0.1599 -0.0713 -0.1659
 3695DPPE   C3B66203  38.471  18.956  16.596  0.1562 -0.3307  0.1144
 3695DPPE   C4B66204  38.815  18.764  16.452 -0.1454 -0.1340 -0.0116
 3696DPPE   NH366205  36.598  17.721   2.749  0.1818  0.0550  0.0387
 3696DPPE   PO466206  36.340  17.418   2.887 -0.0134 -0.0031 -0.0184
 3696DPPE   GL166207  36.367  17.317   2.411  0.1463  0.2195  0.0282
 3696DPPE   GL266208  36.450  17.434   2.075 -0.3273  0.0046  0.1403
 3696DPPE   C1A66209  36.133  17.039   2.061  0.1801  0.2912  0.0337
 3696DPPE   C2A66210  36.139  16.822   1.617  0.1714 -0.1556 -0.4558
 3696DPPE   C3A66211  36.067  16.488   1.403 -0.0293  0.1110 -0.1295
 3696DPPE   C4A66212  36.028  16.158   1.089  0.1171  0.1326 -0.1902
 3696DPPE   C1B66213  36.330  17.373   1.658  0.0722 -0.1896 -0.1819
 3696DPPE   C2B66214  36.323  17.183   1.305 -0.1730 -0.1165 -0.0415
 3696DPPE   C3B66215  36.102  16.868   1.083 -0.0978  0.2514  0.2246
 3696DPPE   C4B66216  35.868  16.597   0.750  0.1695  0.0968 -0.2381
 3697DPPE   NH366217  34.346  23.011   8.120  0.1922 -0.1493 -0.0524
 3697DPPE   PO466218  34.642  23.060   8.420 -0.3618 -0.0959 -0.0571
 3697DPPE   GL166219  34.913  23.269   8.289  0.1774  0.2035  0.1186
 3697DPPE   GL266220  34.821  23.529   8.200 -0.1555  0.0969 -0.1806
 3697DPPE   C1A66221  35.319  23.338   8.326  0.1390 -0.0527 -0.0103
 3697DPPE   C2A66222  35.688  23.292   8.128 -0.4854  0.1366  0.0903
 3697DPPE   C3A66223  35.990  23.573   8.141  0.3195  0.1917 -0.0738
 3697DPPE   C4A66224  36.238  23.854   8.073 -0.1428 -0.3726 -0.2637
 3697DPPE   C1B66225  35.157  23.811   8.184 -0.1125  0.0272 -0.0894
 3697DPPE   C2B66226  35.610  23.837   8.340  0.1666  0.0847  0.3001
 3697DPPE   C3B66227  35.560  24.294   8.521 -0.1837  0.3209 -0.0743
 3697DPPE   C4B66228  35.819  24.690   8.432 -0.0254  0.0353  0.1970
 3698DPPE   NH366229   2.774  11.562  13.029 -0.0440 -0.1994  0.1725
 3698DPPE   PO466230   2.885  11.841  13.259  0.4379  0.0976  0.1905
 3698DPPE   GL166231   3.325  11.809  13.463  0.0350 -0.1165  0.0073
 3698DPPE   GL266232   3.426  11.999  13.658 -0.2426  0.1008 -0.0182
 3698DPPE   C1A66233   3.668  11.562  13.410  0.2133 -0.0436 -0.0740
 3698DPPE   C2A66234   3.922  11.425  13.463  0.2852  0.0335  0.0651
 3698DPPE   C3A66235   4.211  11.487  13.650 -0.0140 -0.3784 -0.3255
 3698DPPE   C4A66236   4.665  11.483  13.918 -0.2162 -0.0046  0.2536
 3698DPPE   C1B66237   3.595  12.096  14.049  0.0426 -0.0975 -0.2147
 3698DPPE   C2B66238   3.471  12.219  14.537  0.1844  0.0047  0.0935
 3698DPPE   C3B66239   3.723  12.509  14.767 -0.0031  0.2932  0.1339
 3698DPPE   C4B66240   4.050  12.399  15.181  0.0862  0.1563 -0.1431
 3699DPPE   NH366241  37.727  14.672   4.535 -0.1049  0.3120  0.2183
 3699DPPE   PO466242  37.667  14.500   4.145  0.2450 -0.0011  0.3426
 3699DPPE   GL166243  37.417  14.371   3.738 -0.1039 -0.0740 -0.1065
 3699DPPE   GL266244  37.546  14.427   3.434  0.1334  0.0677  0.0429
 3699DPPE   C1A66245  37.188  14.003   3.558 -0.2799 -0.0558 -0.1981
 3699DPPE   C2A66246  36.847  13.655   3.409 -0.0408  0.2230 -0.3135
 3699DPPE   C3A66247  36.558  13.330   3.470  0.0604  0.2194  0.1476
 3699DPPE   C4A66248  36.156  13.270   3.204 -0.4120 -0.0560  0.0211
 3699DPPE   C1B66249  37.300  14.441   3.128 -0.2118  0.1652 -0.0129
 3699DPPE   C2B66250  37.016  14.068   3.056 -0.0128 -0.1391  0.1580
 3699DPPE   C3B66251  36.704  13.939   2.896 -0.1964  0.2672  0.1126
 3699DPPE   C4B66252  36.629  13.886   2.502 -0.1137 -0.2133 -0.0756
 3700DPPE   NH366253   2.899  10.835   9.326 -0.1569 -0.0888  0.0355
 3700DPPE   PO466254   3.190  10.671   8.976 -0.4274  0.1517 -0.1130
 3700DPPE   GL166255   3.697  10.392   8.778 -0.0244  0.3352 -0.4981
 3700DPPE   GL266256   3.618  10.160   8.656  0.4905  0.0694 -0.0802
 3700DPPE   C1A66257   4.057  10.494   8.555 -0.1020 -0.0880 -0.5069
 3700DPPE   C2A66258   4.342  10.306   8.724 -0.1416 -0.2151  0.3067
 3700DPPE   C3A66259   4.433   9.922   8.857 -0.2095  0.2266 -0.1467
 3700DPPE   C4A66260   4.621   9.543   8.915  0.2797 -0.2041  0.1771
 3700DPPE   C1B66261   3.937   9.949   8.606  0.0808 -0.0033 -0.0772
 3700DPPE   C2B66262   4.080   9.966   8.247  0.2423  0.0443 -0.1936
 3700DPPE   C3B66263   4.055   9.941   7.779  0.1408 -0.0551 -0.0337
 3700DPPE   C4B66264   3.849   9.731   7.404 -0.2735  0.2030  0.0504
 3701DPPE   NH366265  34.472  22.135   9.231  0.0378  0.0801 -0.0732
 3701DPPE   PO466266  34.528  21.977   8.760  0.1196 -0.0265 -0.3149
 3701DPPE   GL166267  34.891  21.859   8.761 -0.1282 -0.3669  0.0160
 3701DPPE   GL266268  34.966  22.005   9.032  0.1188  0.2060  0.3525
 3701DPPE   C1A66269  35.291  21.653   8.991 -0.4199  0.1071 -0.2193
 3701DPPE   C2A66270  35.657  21.799   9.290  0.0902 -0.1216 -0.1416
 3701DPPE   C3A66271  36.120  21.880   9.237 -0.0726  0.0525 -0.0730
 3701DPPE   C4A66272  36.338  21.576   9.184  0.2131 -0.3055  0.2385
 3701DPPE   C1B66273  35.370  22.173   8.993  0.1775  0.0565  0.2979
 3701DPPE   C2B66274  35.775  22.185   9.002  0.2548 -0.2135  0.1950
 3701DPPE   C3B66275  36.147  22.396   9.097 -0.0862  0.2823 -0.2251
 3701DPPE   C4B66276  36.582  22.406   8.855 -0.0005 -0.1354 -0.0720
 3702DPPE   NH366277  34.389  16.458  14.184 -0.0146 -0.1087  0.0131
 3702DPPE   PO466278  34.601  16.386  13.889 -0.0436 -0.0995 -0.1623
 3702DPPE   GL166279  34.142  16.420  13.679 -0.0205 -0.1025  0.1327
 3702DPPE   GL266280  33.979  16.513  13.790 -0.0468  0.0658  0.0618
 3702DPPE   C1A66281  33.922  15.950  13.725 -0.2010  0.2258 -0.0086
 3702DPPE   C2A66282  33.574  15.655  13.633  0.0004 -0.1778  0.1496
 3702DPPE   C3A66283  33.187  15.444  13.463  0.1859  0.0402 -0.0720
 3702DPPE   C4A66284  32.912  15.103  13.525  0.1022 -0.0877  0.0129
 3702DPPE   C1B66285  33.521  16.281  13.792 -0.1030  0.2414  0.1429
 3702DPPE   C2B66286  33.141  16.260  14.009 -0.1788 -0.1423 -0.1867
 3702DPPE   C3B66287  32.883  16.030  14.249 -0.0972  0.0911 -0.0414
 3702DPPE   C4B66288  32.812  15.625  14.491  0.2470  0.2000 -0.1207
 3703DPPE   NH366289  32.886  22.810  10.729  0.1201  0.0174  0.2104
 3703DPPE   PO466290  33.099  23.221  10.543 -0.3464 -0.0642 -0.1626
 3703DPPE   GL166291  32.750  23.407  10.448 -0.2084  0.1285 -0.2375
 3703DPPE   GL266292  32.586  23.130  10.392  0.0702 -0.0193  0.1509
 3703DPPE   C1A66293  32.363  23.548  10.348  0.2390 -0.0705  0.1074
 3703DPPE   C2A66294  31.886  23.612  10.310  0.3031  0.1701 -0.1005
 3703DPPE   C3A66295  31.572  23.505  10.015 -0.0903  0.3911 -0.1850
 3703DPPE   C4A66296  31.308  23.141   9.976 -0.2080  0.2786 -0.1232
 3703DPPE   C1B66297  32.242  23.134  10.559 -0.1589  0.1566 -0.1434
 3703DPPE   C2B66298  31.780  23.162  10.514  0.0170 -0.0162 -0.0104
 3703DPPE   C3B66299  31.499  23.491  10.596 -0.3547 -0.1501  0.3736
 3703DPPE   C4B66300  31.165  23.708  10.751  0.2010 -0.3685 -0.3592
 3704DPPE   NH366301  34.020  16.451  12.188  0.0989 -0.0550  0.0462
 3704DPPE   PO466302  34.299  16.336  11.825 -0.0610 -0.1888 -0.2308
 3704DPPE   GL166303  33.811  16.108  11.841  0.1407  0.0040  0.1623
 3704DPPE   GL266304  33.548  16.333  11.956  0.4031  0.2764  0.2194
 3704DPPE   C1A66305  33.588  15.746  12.067  0.0364 -0.1186  0.0396
 3704DPPE   C2A66306  33.217  15.604  12.096 -0.0797 -0.1470 -0.0221
 3704DPPE   C3A66307  32.923  15.354  12.264 -0.1742  0.2412  0.3513
 3704DPPE   C4A66308  32.567  15.040  12.245  0.0896  0.3513  0.0161
 3704DPPE   C1B66309  33.199  16.185  12.057  0.0714  0.2578 -0.3071
 3704DPPE   C2B66310  32.858  15.933  12.281  0.0535 -0.2501 -0.2961
 3704DPPE   C3B66311  32.496  15.664  12.293  0.2242 -0.0170  0.0779
 3704DPPE   C4B66312  32.044  15.519  12.383  0.0003  0.2835 -0.1919
 3705DPPE   NH366313  36.283  16.361  18.307 -0.1265 -0.1514  0.1336
 3705DPPE   PO466314  36.428  15.939  18.162 -0.2361  0.1300 -0.1118
 3705DPPE   GL166315  36.417  15.452  18.443  0.2468 -0.1163  0.2654
 3705DPPE   GL266316  36.421  15.246  18.219 -0.1020  0.2709 -0.4425
 3705DPPE   C1A66317  36.349  15.241  18.802 -0.0675  0.1814 -0.0167
 3705DPPE   C2A66318  36.382  15.280  19.186 -0.1466 -0.2157  0.1833
 3705DPPE   C3A66319  36.311  15.492  19.516 -0.3934  0.3731  0.0358
 3705DPPE   C4A66320  36.460  15.712  19.882  0.0471  0.0078  0.0966
 3705DPPE   C1B66321  36.494  14.936  18.414 -0.0628  0.3726 -0.1321
 3705DPPE   C2B66322  36.388  14.714  18.800  0.1193 -0.2202 -0.1778
 3705DPPE   C3B66323  36.382  14.280  19.041 -0.3205  0.1700  0.4701
 3705DPPE   C4B66324  36.307  13.813  19.115 -0.2721 -0.0626  0.1640
 3706DPPE   NH366325  33.146  20.457  13.281 -0.1328  0.2622 -0.1339
 3706DPPE   PO466326  32.845  20.284  12.941 -0.0246  0.1432  0.3442
 3706DPPE   GL166327  32.543  20.524  12.718 -0.0205 -0.1253  0.1452
 3706DPPE   GL266328  32.458  20.755  12.908  0.5211 -0.0951 -0.1700
 3706DPPE   C1A66329  32.164  20.542  12.593  0.1071  0.1505  0.0634
 3706DPPE   C2A66330  31.720  20.748  12.563  0.1511 -0.1729  0.0765
 3706DPPE   C3A66331  31.418  20.984  12.722  0.0679 -0.1137  0.0312
 3706DPPE   C4A66332  30.966  20.851  12.736 -0.0674 -0.0974  0.2410
 3706DPPE   C1B66333  32.105  20.697  13.276  0.2284 -0.1282 -0.1838
 3706DPPE   C2B66334  31.860  20.726  13.643  0.0055 -0.0356  0.0607
 3706DPPE   C3B66335  31.478  20.900  13.844  0.0695  0.3242  0.2874
 3706DPPE   C4B66336  31.114  21.164  13.860  0.0512 -0.1787 -0.0572
 3707DPPE   NH366337  35.521  15.667  12.678  0.2285 -0.2629 -0.1311
 3707DPPE   PO466338  35.257  15.398  12.533  0.2495  0.0078  0.2488
 3707DPPE   GL166339  34.804  15.230  12.543  0.1709  0.1257 -0.1099
 3707DPPE   GL266340  34.840  15.294  12.883 -0.0956  0.1329 -0.2766
 3707DPPE   C1A66341  34.306  15.129  12.316  0.0006 -0.0636  0.1145
 3707DPPE   C2A66342  34.009  14.958  12.399 -0.0480  0.0553 -0.0212
 3707DPPE   C3A66343  33.593  14.697  12.358  0.3496  0.0809  0.0287
 3707DPPE   C4A66344  33.366  14.319  12.142  0.1288  0.0032  0.1605
 3707DPPE   C1B66345  34.528  14.865  12.746  0.2216  0.1493  0.2368
 3707DPPE   C2B66346  34.176  14.657  12.838  0.2867  0.0019 -0.2399
 3707DPPE   C3B66347  33.814  14.453  12.803  0.3678  0.0686  0.1568
 3707DPPE   C4B66348  33.479  14.164  12.587  0.2099 -0.1157  0.1504
 3708DPPE   NH366349   1.837  10.737  14.397  0.1916 -0.0445  0.0690
 3708DPPE   PO466350   2.145  10.966  14.555 -0.0559  0.2152  0.0205
 3708DPPE   GL166351   2.585  10.999  14.639  0.1559  0.4878  0.0351
 3708DPPE   GL266352   2.626  10.676  14.608 -0.0517 -0.1802 -0.0183
 3708DPPE   C1A66353   3.064  10.964  14.629  0.1869 -0.1281  0.0847
 3708DPPE   C2A66354   3.412  11.089  14.460  0.1681 -0.1345  0.0252
 3708DPPE   C3A66355   3.822  11.293  14.526  0.1699 -0.2929  0.0638
 3708DPPE   C4A66356   4.032  11.512  14.797 -0.0542 -0.1271 -0.1646
 3708DPPE   C1B66357   2.815  10.622  15.077 -0.2405 -0.2430 -0.1770
 3708DPPE   C2B66358   3.038  10.980  15.346  0.0209  0.2714  0.0173
 3708DPPE   C3B66359   3.209  11.307  15.359  0.0375  0.1160 -0.1432
 3708DPPE   C4B66360   3.107  11.699  15.292  0.1143 -0.1586  0.3430
 3709DPPE   NH366361  34.641  22.637   6.564 -0.5042 -0.3231 -0.3333
 3709DPPE   PO466362  34.614  23.072   6.592  0.4533 -0.2484 -0.0509
 3709DPPE   GL166363  34.398  23.396   6.294  0.0301 -0.0450 -0.1381
 3709DPPE   GL266364  34.379  23.729   6.517  0.0396  0.0605  0.2979
 3709DPPE   C1A66365  34.148  23.835   6.080 -0.0976  0.0278 -0.0369
 3709DPPE   C2A66366  33.670  24.095   6.015 -0.3513  0.0973 -0.4107
 3709DPPE   C3A66367  33.368  24.069   5.634 -0.1575  0.1747 -0.1738
 3709DPPE   C4A66368  33.165  23.880   5.250 -0.0589  0.0224  0.0593
 3709DPPE   C1B66369  34.545  24.260   6.419  0.1332  0.0381 -0.1597
 3709DPPE   C2B66370  34.788  24.435   6.095  0.4049  0.3674 -0.2110
 3709DPPE   C3B66371  35.089  24.505   5.891  0.1188 -0.1326 -0.0090
 3709DPPE   C4B66372  35.147  24.610   5.378 -0.1306 -0.0144  0.2821
 3710DPPE   NH366373  34.525  23.213   9.475 -0.3153  0.0421 -0.2725
 3710DPPE   PO466374  34.261  22.975   9.758 -0.0069 -0.4284 -0.0198
 3710DPPE   GL166375  34.691  23.168  10.038  0.0693  0.0670 -0.0320
 3710DPPE   GL266376  34.778  23.394   9.952  0.1302  0.0013  0.1400
 3710DPPE   C1A66377  35.125  23.137  10.165  0.3193 -0.2223 -0.2345
 3710DPPE   C2A66378  35.543  23.201  10.422 -0.4140  0.0271 -0.1279
 3710DPPE   C3A66379  35.905  23.540  10.345  0.3996 -0.1172  0.1872
 3710DPPE   C4A66380  36.105  23.651   9.981 -0.0768 -0.7232 -0.0715
 3710DPPE   C1B66381  34.870  23.884   9.965 -0.1077  0.0141 -0.1447
 3710DPPE   C2B66382  35.119  24.143   9.987 -0.0610 -0.2146 -0.1695
 3710DPPE   C3B66383  35.465  24.236  10.159  0.1651  0.2513 -0.0417
 3710DPPE   C4B66384  35.893  24.045  10.187  0.0888  0.0216  0.0059
 3711DPPE   NH366385  37.166  15.704  15.874  0.2736 -0.1797 -0.0645
 3711DPPE   PO466386  37.100  15.845  15.432 -0.1734 -0.0047 -0.1709
 3711DPPE   GL166387  37.183  16.107  15.132  0.0506  0.0688 -0.1197
 3711DPPE   GL266388  37.314  15.966  14.894  0.2118  0.1956 -0.2207
 3711DPPE   C1A66389  37.332  16.454  15.055 -0.1628 -0.0396 -0.2126
 3711DPPE   C2A66390  37.598  16.782  15.103 -0.2144 -0.0826  0.0981
 3711DPPE   C3A66391  37.882  17.074  15.112  0.1206 -0.0329 -0.4005
 3711DPPE   C4A66392  38.094  17.245  14.878 -0.1619  0.0981  0.2415
 3711DPPE   C1B66393  37.752  16.286  14.840  0.3895  0.1150 -0.1397
 3711DPPE   C2B66394  38.032  16.517  14.915  0.0249 -0.1629 -0.1809
 3711DPPE   C3B66395  38.303  16.685  15.033  0.3790 -0.0311 -0.2787
 3711DPPE   C4B66396  38.470  16.970  14.763  0.2127  0.3792  0.2030
 3712DPPE   NH366397  35.249  20.555   3.769 -0.0983  0.1697  0.4443
 3712DPPE   PO466398  34.909  20.405   4.060  0.2717  0.2565  0.0569
 3712DPPE   GL166399  34.756  20.620   3.818  0.0651 -0.0673 -0.2722
 3712DPPE   GL266400  34.799  20.456   3.549  0.1982  0.1678 -0.2729
 3712DPPE   C1A66401  34.413  20.996   3.690  0.3494 -0.0701  0.0471
 3712DPPE   C2A66402  34.367  21.344   3.514  0.1890 -0.1171  0.1445
 3712DPPE   C3A66403  34.137  21.594   3.383 -0.2088  0.1676  0.2684
 3712DPPE   C4A66404  33.882  21.757   3.565  0.0503  0.1561 -0.0667
 3712DPPE   C1B66405  34.873  20.392   3.068 -0.1725  0.1123  0.0402
 3712DPPE   C2B66406  34.925  20.712   2.717  0.0688  0.0350  0.1696
 3712DPPE   C3B66407  34.860  20.921   2.366 -0.2417  0.2187 -0.4330
 3712DPPE   C4B66408  35.045  21.207   2.033 -0.0367 -0.4778 -0.1498
 3713DPPE   NH366409   1.998  10.683   6.153  0.4446 -0.0190  0.4778
 3713DPPE   PO466410   2.383  10.627   6.311  0.0040 -0.0967  0.0466
 3713DPPE   GL166411   2.479  10.531   5.868 -0.0183 -0.0762 -0.0674
 3713DPPE   GL266412   2.316  10.344   5.920 -0.1097 -0.1517  0.0544
 3713DPPE   C1A66413   2.685  10.497   5.520  0.0100 -0.0798  0.1245
 3713DPPE   C2A66414   2.539  10.596   5.090  0.2755  0.0575 -0.0193
 3713DPPE   C3A66415   2.306  10.489   4.705  0.1293 -0.3639 -0.1545
 3713DPPE   C4A66416   2.265  10.224   4.226 -0.1261  0.2625  0.1327
 3713DPPE   C1B66417   2.328  10.018   5.997  0.1277  0.5029 -0.0349
 3713DPPE   C2B66418   2.362   9.731   6.410  0.0346  0.1034 -0.1042
 3713DPPE   C3B66419   2.730   9.430   6.530 -0.1161  0.3089 -0.0494
 3713DPPE   C4B66420   3.002   9.221   6.766  0.1484  0.0728  0.0730
 3714DPPE   NH366421  37.858  14.656   5.756 -0.2445 -0.1357 -0.0235
 3714DPPE   PO466422  38.080  14.857   5.506  0.0467 -0.1825 -0.1192
 3714DPPE   GL166423  38.308  15.236   5.589  0.0885 -0.1361  0.0008
 3714DPPE   GL266424  38.479  15.216   5.419 -0.3150  0.0973  0.2092
 3714DPPE   C1A66425  38.756  15.437   5.770  0.0528 -0.1737  0.1021
 3714DPPE   C2A66426  38.987  15.730   6.068  0.1551  0.3420  0.3541
 3714DPPE   C3A66427  38.835  16.026   6.279  0.2803 -0.2585 -0.2078
 3714DPPE   C4A66428  39.117  16.190   6.540  0.0649 -0.2154  0.1856
 3714DPPE   C1B66429  38.637  15.673   5.321  0.3462 -0.1578  0.4366
 3714DPPE   C2B66430  38.925  15.996   5.352  0.0401 -0.0416 -0.0727
 3714DPPE   C3B66431  39.267  16.336   5.388 -0.0462  0.4113  0.1623
 3714DPPE   C4B66432  39.667  16.471   5.520 -0.0359  0.1021  0.2469
 3715DPPE   NH366433   1.423  12.944  13.745  0.2111 -0.0404  0.2961
 3715DPPE   PO466434   1.332  12.913  13.448 -0.3143 -0.4053 -0.0510
 3715DPPE   GL166435   1.514  13.173  13.207  0.1372  0.1814 -0.0662
 3715DPPE   GL266436   1.655  13.300  13.497 -0.0389 -0.0126 -0.1653
 3715DPPE   C1A66437   1.765  13.267  12.995 -0.0528  0.1704 -0.0435
 3715DPPE   C2A66438   2.164  13.556  13.190 -0.2254  0.2953 -0.4818
 3715DPPE   C3A66439   2.093  13.991  12.999 -0.2849 -0.5274 -0.4043
 3715DPPE   C4A66440   1.796  14.253  12.988 -0.0142  0.3313 -0.2892
 3715DPPE   C1B66441   2.035  13.265  13.701  0.0295 -0.1278  0.0571
 3715DPPE   C2B66442   2.431  13.236  13.468 -0.0638  0.1817 -0.1425
 3715DPPE   C3B66443   2.783  13.393  13.502 -0.1695 -0.1808 -0.4860
 3715DPPE   C4B66444   3.148  13.395  13.263  0.2792  0.2669 -0.1754
 3716DPPE   NH366445  35.715  17.959   7.077 -0.2463 -0.4456 -0.1796
 3716DPPE   PO466446  35.844  17.983   6.604  0.0963  0.2094  0.1942
 3716DPPE   GL166447  36.411  18.089   6.529 -0.0830 -0.1702  0.1322
 3716DPPE   GL266448  36.648  17.765   6.658 -0.3148 -0.1203  0.2038
 3716DPPE   C1A66449  36.871  18.263   6.582  0.2595  0.1515  0.1529
 3716DPPE   C2A66450  37.070  18.611   6.803 -0.3250 -0.1521  0.3801
 3716DPPE   C3A66451  37.143  18.834   7.128 -0.1553  0.1034 -0.0953
 3716DPPE   C4A66452  37.311  19.148   7.328  0.0069  0.1805 -0.2096
 3716DPPE   C1B66453  36.849  17.653   7.054 -0.0653 -0.1564  0.2911
 3716DPPE   C2B66454  37.349  17.769   7.283 -0.0727  0.0369 -0.0197
 3716DPPE   C3B66455  37.762  18.000   7.309  0.4823  0.1633  0.0545
 3716DPPE   C4B66456  37.808  18.367   7.414 -0.0315  0.0933 -0.2363
 3717DPPE   NH366457  37.786  11.550  11.457  0.0598  0.1225  0.2094
 3717DPPE   PO466458  37.728  11.571  11.030  0.3034 -0.2119 -0.1551
 3717DPPE   GL166459  37.485  11.202  11.117  0.3633  0.0700  0.1914
 3717DPPE   GL266460  37.397  11.293  11.315  0.3178  0.0211 -0.0896
 3717DPPE   C1A66461  37.132  10.969  10.905 -0.0340 -0.0129  0.2905
 3717DPPE   C2A66462  36.748  10.839  10.752 -0.3414 -0.1271  0.1015
 3717DPPE   C3A66463  36.704  10.686  10.359  0.0080  0.1270  0.2362
 3717DPPE   C4A66464  36.452  10.547  10.010 -0.2149 -0.0211 -0.0035
 3717DPPE   C1B66465  37.120  10.998  11.441 -0.1798 -0.3039 -0.2762
 3717DPPE   C2B66466  36.944  10.676  11.396  0.1756  0.0336 -0.2674
 3717DPPE   C3B66467  36.675  10.438  11.127  0.4047  0.0759 -0.0941
 3717DPPE   C4B66468  36.347  10.437  10.914 -0.1197  0.0411 -0.2387
 3718DPPE   NH366469  38.141  14.349  14.899 -0.4655  0.1648  0.3585
 3718DPPE   PO466470  38.432  14.091  14.639  0.0955 -0.2009  0.1839
 3718DPPE   GL166471  38.748  14.316  14.394  0.2520 -0.1362 -0.1497
 3718DPPE   GL266472  38.591  14.489  14.184 -0.1819 -0.0973  0.0984
 3718DPPE   C1A66473  39.125  14.223  14.049  0.0190 -0.1805 -0.1047
 3718DPPE   C2A66474  39.335  14.511  13.743 -0.1994  0.0945  0.1004
 3718DPPE   C3A66475  39.493  14.710  13.420 -0.1905  0.0310 -0.2432
 3718DPPE   C4A66476  39.575  15.052  13.481 -0.4183 -0.2699 -0.1947
 3718DPPE   C1B66477  38.861  14.799  14.016 -0.1085  0.1327 -0.0258
 3718DPPE   C2B66478  39.244  14.933  13.958  0.1989 -0.1729 -0.0069
 3718DPPE   C3B66479  39.728  14.975  13.992  0.1762  0.4416  0.1875
 3718DPPE   C4B66480  39.923  15.365  13.711  0.1406 -0.1450  0.1369
 3719DPPE   NH366481   0.301  12.283  10.185  0.0617 -0.1246 -0.0895
 3719DPPE   PO466482   0.627  12.154   9.873 -0.2141  0.0840 -0.1720
 3719DPPE   GL166483   0.660  12.614   9.887  0.1374 -0.2172 -0.2895
 3719DPPE   GL266484   0.335  12.583   9.773 -0.3889  0.0326  0.1216
 3719DPPE   C1A66485   0.631  13.099   9.875 -0.1206 -0.2206 -0.0912
 3719DPPE   C2A66486   0.759  13.460   9.910  0.1648  0.0201 -0.0673
 3719DPPE   C3A66487   0.892  13.847   9.919  0.5096  0.1925 -0.0150
 3719DPPE   C4A66488   1.251  14.035   9.851  0.3137  0.1071 -0.1449
 3719DPPE   C1B66489   0.118  13.057   9.785 -0.2197  0.0913  0.3221
 3719DPPE   C2B66490  -0.027  13.289   9.517  0.1168  0.0882  0.1585
 3719DPPE   C3B66491  -0.217  13.580   9.251  0.2051  0.0719  0.0071
 3719DPPE   C4B66492  -0.408  14.074   9.027  0.1256  0.1129 -0.1552
 3720DPPE   NH366493  35.202  16.195   6.439 -0.0157 -0.3205  0.0762
 3720DPPE   PO466494  35.391  15.902   6.765  0.2094  0.1515  0.0890
 3720DPPE   GL166495  35.091  15.604   6.551  0.2367  0.1828  0.1640
 3720DPPE   GL266496  34.981  15.320   6.714 -0.2585  0.0414  0.0380
 3720DPPE   C1A66497  34.671  15.382   6.324 -0.0724  0.3416  0.0661
 3720DPPE   C2A66498  34.368  15.142   6.501 -0.0938  0.0527  0.0240
 3720DPPE   C3A66499  34.250  14.773   6.586  0.0590 -0.2042 -0.5010
 3720DPPE   C4A66500  33.899  14.625   6.860  0.1400 -0.0368 -0.0316
 3720DPPE   C1B66501  34.732  14.997   6.829 -0.0216  0.4379 -0.1480
 3720DPPE   C2B66502  34.412  14.862   7.084 -0.5258 -0.0008  0.1739
 3720DPPE   C3B66503  34.225  14.559   7.235  0.0876  0.0354 -0.1638
 3720DPPE   C4B66504  33.927  14.326   7.392 -0.2353  0.0105  0.0146
 3721DPPE   NH366505  38.118  17.122   3.365  0.3064 -0.3299  0.1106
 3721DPPE   PO466506  38.095  17.260   2.914  0.3289 -0.1063 -0.0751
 3721DPPE   GL166507  38.350  17.451   2.559 -0.2328  0.2276  0.4196
 3721DPPE   GL266508  38.614  17.712   2.628 -0.0177 -0.0079 -0.0047
 3721DPPE   C1A66509  38.440  17.627   2.171  0.0942 -0.1259  0.1826
 3721DPPE   C2A66510  38.355  17.831   1.821 -0.1770 -0.0586 -0.0746
 3721DPPE   C3A66511  38.593  18.056   1.537 -0.1983 -0.1330  0.1518
 3721DPPE   C4A66512  38.690  18.303   1.050  0.2400 -0.2394 -0.2368
 3721DPPE   C1B66513  38.895  18.016   2.627  0.1325  0.0365  0.1761
 3721DPPE   C2B66514  39.056  18.312   2.518  0.0742 -0.0008 -0.0406
 3721DPPE   C3B66515  39.038  18.702   2.201  0.0732 -0.1029 -0.4691
 3721DPPE   C4B66516  38.974  19.095   1.897 -0.1448 -0.0930 -0.0802
 3722DPPE   NH366517   1.083  12.120   7.736  0.1111 -0.1496 -0.0569
 3722DPPE   PO466518   1.278  12.280   7.418  0.0975  0.1350 -0.0246
 3722DPPE   GL166519   1.650  12.595   7.455 -0.1729 -0.0766  0.1459
 3722DPPE   GL266520   1.787  12.710   7.797  0.0727 -0.1897  0.1041
 3722DPPE   C1A66521   1.947  12.754   7.246  0.0014  0.1744 -0.0612
 3722DPPE   C2A66522   2.280  13.086   7.276 -0.1163  0.0957  0.1732
 3722DPPE   C3A66523   2.607  13.378   7.308  0.2773 -0.0131 -0.0163
 3722DPPE   C4A66524   2.922  13.577   7.538 -0.0456  0.2508 -0.0832
 3722DPPE   C1B66525   1.760  13.085   7.596  0.0771  0.2863  0.0311
 3722DPPE   C2B66526   2.009  13.405   7.772  0.0593 -0.2108  0.1207
 3722DPPE   C3B66527   2.020  13.894   7.781 -0.2815  0.1234  0.3270
 3722DPPE   C4B66528   2.127  14.361   7.988  0.3768 -0.2019 -0.1273
 3723DPPE   NH366529  37.121  16.371  18.022 -0.0292 -0.4897 -0.1731
 3723DPPE   PO466530  37.192  16.762  18.119 -0.0630  0.0186 -0.1305
 3723DPPE   GL166531  37.541  16.555  18.469  0.3093  0.3882 -0.3622
 3723DPPE   GL266532  37.469  16.819  18.574 -0.0849 -0.1581 -0.0773
 3723DPPE   C1A66533  37.718  16.442  18.870  0.0260  0.0724 -0.2487
 3723DPPE   C2A66534  37.718  16.168  19.152 -0.3110 -0.1944  0.3406
 3723DPPE   C3A66535  37.641  15.799  19.424 -0.1353  0.0854 -0.1988
 3723DPPE   C4A66536  37.807  15.659  19.752 -0.1497 -0.2759 -0.2172
 3723DPPE   C1B66537  37.646  17.102  18.839 -0.2472  0.3804  0.1632
 3723DPPE   C2B66538  37.813  17.430  19.152  0.0301 -0.2030  0.1978
 3723DPPE   C3B66539  37.904  17.369  19.606  0.2414  0.0613  0.0484
 3723DPPE   C4B66540  37.598  17.254  19.890 -0.2115 -0.0106 -0.1925
 3724DPPE   NH366541   0.162  13.298   8.814  0.2217  0.2812 -0.0668
 3724DPPE   PO466542   0.289  12.884   8.879 -0.2145  0.1416 -0.1567
 3724DPPE   GL166543   0.480  13.110   9.195  0.1330 -0.1658 -0.0904
 3724DPPE   GL266544   0.566  12.819   9.432  0.1899 -0.0391 -0.0670
 3724DPPE   C1A66545   0.493  13.528   9.465 -0.2789 -0.0364 -0.4724
 3724DPPE   C2A66546   0.199  13.752   9.535  0.0293 -0.3386 -0.3388
 3724DPPE   C3A66547  -0.055  13.855   9.875 -0.3473 -0.3209  0.2928
 3724DPPE   C4A66548  -0.191  13.625  10.156 -0.1408 -0.0705  0.0381
 3724DPPE   C1B66549   0.902  13.200   9.432  0.0641 -0.2368 -0.2950
 3724DPPE   C2B66550   1.154  13.505   9.295  0.1878  0.3340 -0.0184
 3724DPPE   C3B66551   1.249  13.869   9.361 -0.1088 -0.1143  0.0377
 3724DPPE   C4B66552   1.513  14.312   9.379 -0.0687  0.0882  0.1262
 3725DPPE   NH366553  36.782  13.438  14.934 -0.1373 -0.1404  0.0648
 3725DPPE   PO466554  36.569  13.814  14.870  0.2861  0.2224 -0.1954
 3725DPPE   GL166555  36.367  13.591  15.092  0.1786 -0.1146  0.0386
 3725DPPE   GL266556  36.291  13.744  15.328 -0.0412  0.0039 -0.4390
 3725DPPE   C1A66557  36.183  13.179  15.057  0.1293  0.0993 -0.1555
 3725DPPE   C2A66558  36.009  12.886  15.234 -0.0316 -0.2803  0.5705
 3725DPPE   C3A66559  35.948  12.594  15.521  0.0841  0.0265  0.2218
 3725DPPE   C4A66560  35.779  12.460  15.974  0.0843  0.1283 -0.1130
 3725DPPE   C1B66561  36.015  13.377  15.492 -0.0091  0.1754  0.3101
 3725DPPE   C2B66562  35.661  13.188  15.681 -0.0131  0.0642 -0.0532
 3725DPPE   C3B66563  35.405  12.779  15.666 -0.0943  0.0587 -0.1148
 3725DPPE   C4B66564  34.994  12.553  15.705 -0.1073 -0.0781 -0.3478
 3726DPPE   NH366565  34.935  15.522  10.264  0.2773 -0.2229 -0.0264
 3726DPPE   PO466566  35.038  15.178  10.331  0.0934 -0.0012 -0.0821
 3726DPPE   GL166567  34.595  15.057  10.264 -0.1231 -0.1953  0.0142
 3726DPPE   GL266568  34.674  14.886  10.025  0.3538  0.0808 -0.2562
 3726DPPE   C1A66569  34.207  15.070  10.109  0.1061 -0.2115  0.1591
 3726DPPE   C2A66570  33.847  14.871  10.055  0.1935  0.1060 -0.2203
 3726DPPE   C3A66571  33.508  14.921  10.001 -0.3375 -0.1742 -0.1347
 3726DPPE   C4A66572  33.115  14.607   9.761 -0.1956  0.0143  0.1326
 3726DPPE   C1B66573  34.424  14.528   9.896 -0.1055  0.0848 -0.1490
 3726DPPE   C2B66574  33.998  14.385   9.846 -0.0203 -0.1632  0.0600
 3726DPPE   C3B66575  33.634  14.475   9.819 -0.0515 -0.2547 -0.0912
 3726DPPE   C4B66576  33.253  14.171   9.894  0.2466 -0.2383  0.2110
 3727DPPE   NH366577   1.474  13.641  16.910 -0.0690 -0.2137  0.0155
 3727DPPE   PO466578   1.469  13.898  17.353  0.3334  0.2644  0.1144
 3727DPPE   GL166579   1.868  13.935  17.394  0.3633 -0.6069 -0.0841
 3727DPPE   GL266580   1.861  14.006  17.005  0.1215 -0.0517 -0.2150
 3727DPPE   C1A66581   2.164  14.193  17.372  0.0974  0.0725 -0.0908
 3727DPPE   C2A66582   2.636  14.262  17.506  0.0229 -0.0883  0.2595
 3727DPPE   C3A66583   3.092  14.220  17.431  0.3205  0.1068  0.1811
 3727DPPE   C4A66584   3.531  14.314  17.313 -0.2811 -0.0060  0.2397
 3727DPPE   C1B66585   2.195  13.805  17.065 -0.0158  0.2088  0.0753
 3727DPPE   C2B66586   2.601  13.719  16.965 -0.3207 -0.0872 -0.1693
 3727DPPE   C3B66587   2.947  13.890  16.933 -0.2660 -0.0010 -0.1115
 3727DPPE   C4B66588   3.386  13.960  16.912  0.0774 -0.2482  0.1649
 3728DPPE   NH366589   1.074  14.282  17.326  0.0610 -0.3107  0.0960
 3728DPPE   PO466590   1.070  14.245  17.791 -0.0855 -0.1917 -0.0271
 3728DPPE   GL166591   1.514  14.384  17.741 -0.0446 -0.1182  0.1763
 3728DPPE   GL266592   1.555  14.224  18.062  0.0955 -0.4005  0.1191
 3728DPPE   C1A66593   2.038  14.528  17.692  0.0509  0.0984  0.1413
 3728DPPE   C2A66594   2.522  14.663  17.770  0.2513 -0.0355  0.1950
 3728DPPE   C3A66595   2.474  15.060  17.775  0.1002 -0.2496  0.2082
 3728DPPE   C4A66596   2.559  15.393  17.439 -0.1526 -0.0184 -0.0833
 3728DPPE   C1B66597   1.432  14.018  18.372 -0.2517 -0.1637 -0.1528
 3728DPPE   C2B66598   0.974  13.874  18.587  0.2270 -0.2236  0.0775
 3728DPPE   C3B66599   0.558  13.701  18.860  0.2046 -0.0800  0.1537
 3728DPPE   C4B66600   0.055  13.583  18.761  0.4218  0.1188  0.0200
 3729DPPE   NH366601   0.693  11.984   6.895  0.3022  0.0769 -0.0628
 3729DPPE   PO466602   0.892  11.725   6.671  0.0630  0.0297  0.2219
 3729DPPE   GL166603   0.741  11.216   6.587  0.0431 -0.1298  0.0367
 3729DPPE   GL266604   0.776  10.939   6.793  0.0466  0.1030  0.0497
 3729DPPE   C1A66605   0.545  10.887   6.357  0.2391 -0.2576 -0.0046
 3729DPPE   C2A66606   0.234  10.543   6.105 -0.3166  0.3153  0.3619
 3729DPPE   C3A66607   0.100  10.149   6.306  0.0998  0.2312  0.0037
 3729DPPE   C4A66608  -0.268   9.907   6.402 -0.1009  0.1258  0.1501
 3729DPPE   C1B66609   0.484  10.570   6.825 -0.2254 -0.1975  0.1733
 3729DPPE   C2B66610   0.463  10.148   6.680  0.0105 -0.2328 -0.3179
 3729DPPE   C3B66611   0.621   9.798   6.613 -0.2903  0.1055 -0.0415
 3729DPPE   C4B66612   0.868   9.455   6.475  0.2380  0.2740  0.0379
 3730DPPE   NH366613  34.213  20.576   6.710 -0.3162  0.0311  0.1028
 3730DPPE   PO466614  34.050  20.185   6.479 -0.0344  0.0082  0.0628
 3730DPPE   GL166615  33.657  20.265   6.343  0.2269  0.1619 -0.0401
 3730DPPE   GL266616  33.539  19.977   6.304  0.1528 -0.2999  0.0289
 3730DPPE   C1A66617  33.286  20.356   6.172  0.0175 -0.0043  0.1488
 3730DPPE   C2A66618  32.816  20.228   6.093 -0.0863  0.0949  0.0918
 3730DPPE   C3A66619  32.386  20.222   5.984 -0.0525  0.1494  0.1611
 3730DPPE   C4A66620  32.021  20.231   5.707  0.0652 -0.1202  0.1850
 3730DPPE   C1B66621  33.200  19.892   6.110 -0.0660 -0.2290 -0.0179
 3730DPPE   C2B66622  32.798  19.776   5.994 -0.1469  0.2818  0.0777
 3730DPPE   C3B66623  32.490  19.779   5.701 -0.0654 -0.2599  0.0115
 3730DPPE   C4B66624  32.218  20.019   5.305 -0.1078 -0.0476  0.2917
 3731DPPE   NH366625  34.613  17.505  10.033  0.1658 -0.1009  0.2028
 3731DPPE   PO466626  34.849  17.363   9.628 -0.1249 -0.3121  0.2307
 3731DPPE   GL166627  35.145  17.667   9.602  0.2228  0.2346 -0.1484
 3731DPPE   GL266628  35.344  17.628   9.895  0.1107 -0.0969 -0.0514
 3731DPPE   C1A66629  35.509  17.829   9.502 -0.3356 -0.0339 -0.3090
 3731DPPE   C2A66630  35.869  18.117   9.379 -0.2881 -0.1358 -0.2063
 3731DPPE   C3A66631  36.035  18.554   9.502  0.0665 -0.0084 -0.4261
 3731DPPE   C4A66632  36.350  18.555   9.754  0.2467 -0.1830 -0.0147
 3731DPPE   C1B66633  35.707  17.890   9.948 -0.0125  0.2431  0.1568
 3731DPPE   C2B66634  36.070  18.055   9.857  0.0295  0.1635 -0.0651
 3731DPPE   C3B66635  36.448  18.059   9.612  0.0380  0.0580 -0.0149
 3731DPPE   C4B66636  36.821  18.083   9.511 -0.2341 -0.0054  0.2729
 3732DPPE   NH366637  13.490  19.267   4.469 -0.4774 -0.0752  0.0423
 3732DPPE   PO466638  13.873  19.395   4.636 -0.2662  0.1079 -0.0388
 3732DPPE   GL166639  14.309  19.335   4.508 -0.2182  0.0486 -0.0661
 3732DPPE   GL266640  14.610  19.285   4.726 -0.2085  0.0451 -0.0121
 3732DPPE   C1A66641  14.443  19.482   4.189 -0.0645  0.0601  0.2888
 3732DPPE   C2A66642  14.693  19.173   3.970 -0.2084  0.3323  0.2020
 3732DPPE   C3A66643  15.138  18.999   4.065  0.1067 -0.2854 -0.2114
 3732DPPE   C4A66644  15.401  19.020   4.409  0.2057  0.0040  0.2134
 3732DPPE   C1B66645  14.831  19.136   4.479 -0.1657  0.0182 -0.1931
 3732DPPE   C2B66646  15.014  18.702   4.511 -0.3393  0.2903  0.1012
 3732DPPE   C3B66647  15.161  18.299   4.330  0.0148 -0.1188 -0.0887
 3732DPPE   C4B66648  15.493  17.990   4.297 -0.4029 -0.1070  0.0131
 3733DPPE   NH366649  33.299  25.335  15.065  0.0099  0.1566  0.1055
 3733DPPE   PO466650  32.912  25.158  15.278 -0.0869 -0.0177 -0.1853
 3733DPPE   GL166651  33.008  24.725  15.087 -0.0752  0.3202 -0.4459
 3733DPPE   GL266652  33.004  24.864  14.766 -0.0543  0.3211  0.0252
 3733DPPE   C1A66653  33.186  24.396  14.906 -0.3506 -0.1124 -0.0912
 3733DPPE   C2A66654  33.261  24.256  14.531  0.1886  0.2085 -0.0939
 3733DPPE   C3A66655  33.176  24.278  14.085  0.1364  0.2609  0.1632
 3733DPPE   C4A66656  33.198  24.489  13.711 -0.1904 -0.0740 -0.1104
 3733DPPE   C1B66657  33.342  24.903  14.411 -0.1420 -0.2624 -0.1665
 3733DPPE   C2B66658  33.501  24.593  14.158  0.1243 -0.0798  0.2765
 3733DPPE   C3B66659  33.582  24.209  13.837  0.0356 -0.2432 -0.1373
 3733DPPE   C4B66660  33.777  23.776  13.990  0.1084  0.0749 -0.1728
 3734DPPE   NH366661  12.100  23.799   4.638 -0.0501  0.3349  0.2641
 3734DPPE   PO466662  12.386  23.879   4.705 -0.0816  0.1736 -0.4457
 3734DPPE   GL166663  12.833  23.849   4.578  0.0589 -0.1392  0.2276
 3734DPPE   GL266664  12.795  23.563   4.399  0.1511 -0.0318  0.0209
 3734DPPE   C1A66665  13.096  24.115   4.473 -0.1060 -0.1848  0.1429
 3734DPPE   C2A66666  13.162  24.360   4.114  0.1462 -0.1915 -0.0556
 3734DPPE   C3A66667  13.034  24.305   3.724  0.0795  0.1004  0.0941
 3734DPPE   C4A66668  12.978  24.449   3.314 -0.1201 -0.0129  0.4021
 3734DPPE   C1B66669  12.946  23.663   4.048 -0.0216  0.3578  0.0050
 3734DPPE   C2B66670  12.948  23.830   3.581 -0.1290 -0.1629 -0.1913
 3734DPPE   C3B66671  13.177  23.991   3.250 -0.1245 -0.0065  0.4167
 3734DPPE   C4B66672  13.056  24.184   2.815  0.2117 -0.2795  0.2866
 3735DPPE   NH366673   1.315  19.822   4.407 -0.3536  0.1087  0.2958
 3735DPPE   PO466674   1.819  19.699   4.241  0.1175  0.1144  0.1139
 3735DPPE   GL166675   1.461  19.436   4.034  0.2647 -0.3397 -0.2579
 3735DPPE   GL266676   1.283  19.630   3.932 -0.0605  0.1576  0.1203
 3735DPPE   C1A66677   1.208  19.086   4.229  0.1542 -0.0103  0.0362
 3735DPPE   C2A66678   0.821  18.795   4.418  0.2586 -0.0282  0.0525
 3735DPPE   C3A66679   0.978  18.428   4.719  0.2337  0.2421  0.1161
 3735DPPE   C4A66680   0.742  18.273   5.024 -0.1181  0.0827  0.0489
 3735DPPE   C1B66681   0.934  19.394   3.967  0.0800  0.2273  0.0938
 3735DPPE   C2B66682   0.542  19.325   4.188 -0.0426  0.0719  0.1457
 3735DPPE   C3B66683   0.376  18.990   4.336 -0.0270  0.2680  0.4539
 3735DPPE   C4B66684   0.434  18.513   4.218  0.2408  0.1327 -0.0045
 3736DPPE   NH366685   3.831  11.393  17.703  0.0705 -0.0205 -0.0012
 3736DPPE   PO466686   3.971  11.557  18.126 -0.0889  0.1351 -0.2004
 3736DPPE   GL166687   3.830  11.876  17.948 -0.1420 -0.3051  0.2154
 3736DPPE   GL266688   3.727  12.116  18.065 -0.2256  0.1858 -0.3610
 3736DPPE   C1A66689   3.695  12.074  17.558 -0.1849 -0.2936 -0.0678
 3736DPPE   C2A66690   3.450  12.233  17.200  0.1410  0.0434 -0.1917
 3736DPPE   C3A66691   3.342  12.361  16.894  0.0174  0.2450  0.1440
 3736DPPE   C4A66692   3.669  12.497  16.550  0.2699  0.1831 -0.4038
 3736DPPE   C1B66693   3.354  11.984  18.016 -0.1724 -0.0586  0.1384
 3736DPPE   C2B66694   3.149  11.983  17.558  0.0193  0.0211  0.3777
 3736DPPE   C3B66695   2.705  12.033  17.529  0.1238  0.5201  0.1154
 3736DPPE   C4B66696   2.313  12.219  17.384  0.0758  0.1006  0.0617
 3737DPPE   NH366697   2.960  16.396  13.336 -0.1149  0.2123  0.0442
 3737DPPE   PO466698   2.707  16.573  12.904 -0.3063 -0.1479  0.0487
 3737DPPE   GL166699   2.349  16.386  13.109 -0.3295 -0.1759 -0.1806
 3737DPPE   GL266700   2.057  16.541  12.924  0.1479 -0.2568 -0.0417
 3737DPPE   C1A66701   2.117  16.175  13.425  0.0062  0.0362 -0.2375
 3737DPPE   C2A66702   1.869  16.219  13.782  0.0169  0.1402  0.1593
 3737DPPE   C3A66703   1.591  16.469  13.979 -0.0102  0.0994 -0.1204
 3737DPPE   C4A66704   1.411  16.917  14.001 -0.0767 -0.2074 -0.0312
 3737DPPE   C1B66705   1.736  16.330  13.106  0.5450 -0.2052  0.0059
 3737DPPE   C2B66706   1.650  16.020  13.309  0.1774  0.0982 -0.2113
 3737DPPE   C3B66707   1.701  15.599  13.140 -0.0144  0.2825  0.1788
 3737DPPE   C4B66708   1.464  15.280  13.054  0.0623 -0.0110 -0.1500
 3738DPPE   NH366709  14.895  20.428  12.034 -0.2891 -0.1399  0.0064
 3738DPPE   PO466710  14.939  20.791  12.371  0.0508  0.0820 -0.1444
 3738DPPE   GL166711  15.333  20.834  12.345  0.1167  0.1758 -0.0347
 3738DPPE   GL266712  15.409  21.209  12.300 -0.1195  0.0911  0.1998
 3738DPPE   C1A66713  15.733  20.612  12.427 -0.0805 -0.0567 -0.1955
 3738DPPE   C2A66714  16.168  20.360  12.411 -0.0051 -0.1001  0.0165
 3738DPPE   C3A66715  16.415  20.095  12.366  0.0678  0.0271  0.1515
 3738DPPE   C4A66716  16.646  19.719  12.172  0.2379 -0.2565  0.0732
 3738DPPE   C1B66717  15.790  21.086  12.275  0.2167  0.0222 -0.1765
 3738DPPE   C2B66718  16.245  21.219  12.184 -0.3301 -0.4043  0.2074
 3738DPPE   C3B66719  16.563  21.459  12.201  0.3114  0.0196 -0.2234
 3738DPPE   C4B66720  16.783  21.785  12.185  0.4435  0.0333  0.3185
 3739DPPE   NH366721   1.511  17.398  12.592 -0.2078 -0.0405  0.0788
 3739DPPE   PO466722   1.487  17.253  12.212  0.0700  0.3936 -0.3781
 3739DPPE   GL166723   1.337  16.916  12.176  0.1666  0.1096  0.0965
 3739DPPE   GL266724   1.008  16.832  11.893  0.2220  0.1014  0.3480
 3739DPPE   C1A66725   1.105  16.663  12.387  0.3016 -0.0486  0.0337
 3739DPPE   C2A66726   0.918  16.326  12.166  0.1933  0.5290 -0.2205
 3739DPPE   C3A66727   0.539  16.139  12.026 -0.1625 -0.1830 -0.2052
 3739DPPE   C4A66728   0.117  15.929  12.198 -0.1466  0.1754  0.3144
 3739DPPE   C1B66729   0.627  16.631  11.867  0.2668  0.0128 -0.0039
 3739DPPE   C2B66730   0.280  16.627  11.738  0.0223  0.0007 -0.1339
 3739DPPE   C3B66731  -0.068  16.348  11.550  0.0443  0.3241  0.2740
 3739DPPE   C4B66732  -0.207  16.007  11.257 -0.0257  0.0233 -0.1113
 3740DPPE   NH366733  10.782  22.550  17.685  0.2195 -0.0724 -0.1721
 3740DPPE   PO466734  10.374  22.705  17.691 -0.1633 -0.1525 -0.1177
 3740DPPE   GL166735  10.374  22.890  18.052 -0.0085 -0.1706 -0.1822
 3740DPPE   GL266736  10.639  23.074  17.952 -0.1856 -0.1442 -0.1437
 3740DPPE   C1A66737  10.410  22.850  18.479 -0.1249 -0.0426 -0.0907
 3740DPPE   C2A66738  10.664  23.065  18.783 -0.1424  0.3993 -0.1817
 3740DPPE   C3A66739  10.907  22.988  19.209  0.2593 -0.0669  0.0212
 3740DPPE   C4A66740  11.249  23.094  19.271 -0.0287  0.2970 -0.2236
 3740DPPE   C1B66741  10.902  22.996  18.315  0.0239  0.2390 -0.1119
 3740DPPE   C2B66742  11.173  22.965  18.646 -0.0937 -0.1852  0.1745
 3740DPPE   C3B66743  11.542  22.775  18.780  0.2102  0.0510 -0.2131
 3740DPPE   C4B66744  11.550  22.690  19.214 -0.2149  0.0353  0.0029
 3741DPPE   NH366745  10.711  21.065  17.917 -0.1229 -0.1549  0.2093
 3741DPPE   PO466746  11.064  21.254  17.733  0.0832 -0.1889 -0.2056
 3741DPPE   GL166747  11.177  20.926  18.006  0.0108  0.0971 -0.0434
 3741DPPE   GL266748  11.460  21.197  18.177  0.1037 -0.0082  0.4810
 3741DPPE   C1A66749  11.204  20.475  18.263  0.0655  0.0772 -0.0319
 3741DPPE   C2A66750  11.149  20.359  18.663 -0.0376  0.0138 -0.0255
 3741DPPE   C3A66751  11.305  19.911  18.892 -0.0009 -0.2120 -0.1237
 3741DPPE   C4A66752  11.446  19.551  18.902  0.1500 -0.0742 -0.0435
 3741DPPE   C1B66753  11.637  21.085  18.609 -0.1978 -0.0273 -0.1899
 3741DPPE   C2B66754  11.994  20.878  18.862 -0.0237 -0.0881 -0.0114
 3741DPPE   C3B66755  12.259  20.529  18.911 -0.0315 -0.1460 -0.0431
 3741DPPE   C4B66756  12.361  20.211  18.687  0.1858  0.3995  0.2601
 3742DPPE   NH366757  33.639  12.810  18.642  0.2153 -0.0155 -0.1843
 3742DPPE   PO466758  34.023  12.644  18.801  0.2500 -0.0610 -0.2329
 3742DPPE   GL166759  34.443  12.575  18.677  0.2889  0.3803  0.1713
 3742DPPE   GL266760  34.619  12.300  18.464 -0.2655 -0.2759 -0.0665
 3742DPPE   C1A66761  34.789  12.729  18.334  0.1571  0.1611  0.1848
 3742DPPE   C2A66762  34.838  12.954  17.959 -0.3177 -0.2125 -0.0545
 3742DPPE   C3A66763  35.000  13.163  17.616  0.0475  0.0926 -0.2502
 3742DPPE   C4A66764  34.867  13.376  17.322  0.3354 -0.0888  0.1652
 3742DPPE   C1B66765  34.968  12.403  18.619 -0.0483  0.0442 -0.2535
 3742DPPE   C2B66766  35.459  12.385  18.730 -0.1188 -0.1670 -0.3067
 3742DPPE   C3B66767  35.847  12.629  18.465 -0.0368 -0.0542  0.3047
 3742DPPE   C4B66768  36.079  12.724  18.176 -0.0520  0.0899 -0.2692
 3743DPPE   NH366769   4.396  14.873  14.969 -0.1463  0.2856 -0.4497
 3743DPPE   PO466770   4.225  14.722  14.574 -0.2507 -0.1700  0.3344
 3743DPPE   GL166771   4.300  14.356  14.796 -0.0632 -0.3326 -0.0255
 3743DPPE   GL266772   4.622  14.356  14.676  0.0941  0.1092 -0.2050
 3743DPPE   C1A66773   3.874  14.214  14.845 -0.1552 -0.1363  0.0336
 3743DPPE   C2A66774   3.441  14.155  14.673  0.1577 -0.0021  0.0451
 3743DPPE   C3A66775   2.970  14.274  14.640 -0.2827  0.2432  0.0392
 3743DPPE   C4A66776   2.572  14.238  14.588 -0.1348  0.3995 -0.3011
 3743DPPE   C1B66777   4.737  14.006  14.690 -0.2992 -0.1156 -0.2532
 3743DPPE   C2B66778   5.005  13.735  14.784  0.3724 -0.1045  0.1475
 3743DPPE   C3B66779   5.256  13.406  14.903  0.1713  0.0156 -0.0789
 3743DPPE   C4B66780   5.350  13.013  15.257 -0.2244 -0.1764  0.1782
 3744DPPE   NH366781  33.478  13.011   3.053 -0.1062 -0.0517 -0.0567
 3744DPPE   PO466782  33.594  13.301   2.730  0.0642 -0.0256  0.1961
 3744DPPE   GL166783  33.913  13.448   3.060 -0.2266  0.0028  0.3061
 3744DPPE   GL266784  33.923  13.772   2.916  0.2789  0.0660 -0.2729
 3744DPPE   C1A66785  34.338  13.446   3.398  0.0259 -0.0259 -0.0362
 3744DPPE   C2A66786  34.858  13.517   3.262  0.0174  0.1796  0.1678
 3744DPPE   C3A66787  35.349  13.414   3.257  0.0816 -0.3049  0.2473
 3744DPPE   C4A66788  35.704  13.541   3.311 -0.1186 -0.0367  0.0763
 3744DPPE   C1B66789  34.269  13.936   3.099  0.0229  0.2668 -0.0698
 3744DPPE   C2B66790  34.556  13.916   3.436 -0.1836 -0.1128 -0.0554
 3744DPPE   C3B66791  34.925  13.971   3.656  0.3007  0.0891 -0.1064
 3744DPPE   C4B66792  35.439  13.960   3.550 -0.1545  0.0381 -0.2186
 3745DPPE   NH366793   0.086  21.725  10.233  0.2508  0.0295  0.4326
 3745DPPE   PO466794   0.013  21.342  10.042  0.1205  0.5022  0.0068
 3745DPPE   GL166795  -0.256  21.038   9.962  0.0148 -0.3289 -0.0781
 3745DPPE   GL266796  -0.406  20.646  10.080 -0.0930  0.0494 -0.0261
 3745DPPE   C1A66797  -0.645  20.998   9.645 -0.0808  0.0809  0.1723
 3745DPPE   C2A66798  -1.082  21.136   9.490 -0.2098 -0.0201  0.3608
 3745DPPE   C3A66799  -1.439  20.927   9.212 -0.1497  0.0338 -0.3023
 3745DPPE   C4A66800  -1.540  20.687   8.811  0.2165 -0.0164  0.1077
 3745DPPE   C1B66801  -0.881  20.691  10.104  0.1498  0.2405 -0.0442
 3745DPPE   C2B66802  -1.235  20.777   9.886 -0.1174  0.0147  0.0580
 3745DPPE   C3B66803  -1.616  20.626   9.702  0.0543  0.1166  0.1582
 3745DPPE   C4B66804  -1.898  20.260   9.637 -0.3096 -0.1380  0.0905
 3746DPPE   NH366805  37.304   7.842  15.170  0.1452  0.1078 -0.0453
 3746DPPE   PO466806  37.681   7.507  15.034 -0.1013 -0.0880  0.3023
 3746DPPE   GL166807  37.966   7.873  14.902  0.0662 -0.1573 -0.1668
 3746DPPE   GL266808  37.828   8.143  15.021  0.0135  0.1525 -0.1718
 3746DPPE   C1A66809  38.003   8.029  14.452  0.1972  0.0557 -0.0674
 3746DPPE   C2A66810  38.088   8.350  14.052  0.1005  0.0199 -0.1102
 3746DPPE   C3A66811  38.280   8.647  13.975  0.2500 -0.2945  0.1612
 3746DPPE   C4A66812  38.386   9.002  13.776  0.0361  0.1395 -0.3430
 3746DPPE   C1B66813  37.888   8.636  14.856 -0.0098  0.0049 -0.1705
 3746DPPE   C2B66814  37.875   8.996  14.761  0.0704 -0.0101 -0.0664
 3746DPPE   C3B66815  37.588   9.092  14.410 -0.0827  0.0149  0.4553
 3746DPPE   C4B66816  37.676   9.164  13.953  0.2937 -0.3131  0.1375
 3747DPPE   NH366817  13.879  20.590  14.121 -0.0609  0.2494 -0.0113
 3747DPPE   PO466818  13.949  20.333  13.891  0.0934  0.2273  0.1975
 3747DPPE   GL166819  14.151  20.148  14.189 -0.0288 -0.0362  0.1814
 3747DPPE   GL266820  14.014  19.933  14.376 -0.0734  0.0468 -0.0493
 3747DPPE   C1A66821  14.524  20.118  14.493 -0.2055  0.0114 -0.1080
 3747DPPE   C2A66822  14.730  19.759  14.614 -0.2072 -0.2138  0.0812
 3747DPPE   C3A66823  15.159  19.784  14.835 -0.1014 -0.2485  0.0949
 3747DPPE   C4A66824  15.228  19.770  15.268 -0.2950  0.0929  0.0570
 3747DPPE   C1B66825  13.966  19.474  14.432  0.4033 -0.0251  0.0067
 3747DPPE   C2B66826  14.031  19.147  14.649 -0.1300  0.3331  0.0768
 3747DPPE   C3B66827  14.019  18.944  14.996 -0.0556 -0.1844  0.4639
 3747DPPE   C4B66828  14.004  18.634  15.207  0.0553 -0.2393 -0.1175
 3748DPPE   NH366829   0.925  20.397   6.372  0.0458  0.0203 -0.1562
 3748DPPE   PO466830   0.796  20.707   6.019 -0.1765 -0.0256  0.0661
 3748DPPE   GL166831   0.596  20.432   5.830 -0.2376 -0.2663 -0.1135
 3748DPPE   GL266832   0.657  20.094   5.988 -0.4533 -0.1617  0.2521
 3748DPPE   C1A66833   0.146  20.272   5.713 -0.2398 -0.0104  0.0009
 3748DPPE   C2A66834  -0.035  19.861   5.558 -0.0472  0.2690 -0.3373
 3748DPPE   C3A66835  -0.134  19.518   5.769  0.2211 -0.3253  0.2732
 3748DPPE   C4A66836  -0.174  19.139   5.881 -0.3084 -0.0831  0.1422
 3748DPPE   C1B66837   0.244  19.808   5.996  0.1738 -0.2188 -0.0004
 3748DPPE   C2B66838  -0.133  19.930   6.084 -0.1758  0.2013 -0.1684
 3748DPPE   C3B66839  -0.053  20.414   6.171 -0.0628  0.1287 -0.0087
 3748DPPE   C4B66840  -0.189  20.864   6.101  0.0095  0.2819  0.0888
 3749DPPE   NH366841  36.575  15.847   4.013 -0.2709 -0.2013  0.3052
 3749DPPE   PO466842  37.062  15.814   3.787  0.2277 -0.3255 -0.1030
 3749DPPE   GL166843  36.697  15.766   3.542  0.2536  0.0338  0.0201
 3749DPPE   GL266844  36.627  15.863   3.188  0.1624 -0.1634  0.0191
 3749DPPE   C1A66845  36.346  15.493   3.418 -0.3407  0.0158 -0.1698
 3749DPPE   C2A66846  35.945  15.200   3.442 -0.0218 -0.2976  0.4195
 3749DPPE   C3A66847  35.789  14.784   3.431 -0.2278  0.0099  0.3509
 3749DPPE   C4A66848  35.668  14.366   3.469  0.2771 -0.0645  0.1632
 3749DPPE   C1B66849  36.404  15.558   2.946 -0.3716 -0.2593  0.0430
 3749DPPE   C2B66850  36.061  15.576   2.588  0.0745  0.1716 -0.4822
 3749DPPE   C3B66851  35.839  15.207   2.388  0.2073 -0.2329  0.0587
 3749DPPE   C4B66852  35.671  15.029   1.938 -0.0579 -0.1420  0.1408
 3750DPPE   NH366853  36.903  15.402  15.254 -0.2070 -0.0229 -0.3034
 3750DPPE   PO466854  36.853  15.253  14.850 -0.0666 -0.2601  0.0689
 3750DPPE   GL166855  37.111  15.395  14.534 -0.0091  0.2196 -0.1935
 3750DPPE   GL266856  37.458  15.297  14.609 -0.0843 -0.2284  0.1201
 3750DPPE   C1A66857  37.163  15.845  14.479  0.0025 -0.1130 -0.2401
 3750DPPE   C2A66858  37.392  15.695  14.194 -0.2869 -0.1118  0.0296
 3750DPPE   C3A66859  37.541  15.924  13.899 -0.0889  0.0809  0.0146
 3750DPPE   C4A66860  37.700  16.297  13.748  0.1379 -0.0134  0.0738
 3750DPPE   C1B66861  37.696  15.743  14.688  0.2446  0.3741  0.2761
 3750DPPE   C2B66862  37.726  16.048  14.360  0.0309 -0.2533 -0.0040
 3750DPPE   C3B66863  37.860  16.374  14.368  0.3428 -0.0895 -0.2231
 3750DPPE   C4B66864  38.075  16.626  14.023 -0.3483  0.0098 -0.0528
 3751DPPE   NH366865  36.126  13.869  12.735 -0.1613  0.0003  0.2120
 3751DPPE   PO466866  36.178  13.776  12.315 -0.0966  0.0584 -0.0160
 3751DPPE   GL166867  35.799  13.603  12.232 -0.1816 -0.4350 -0.2365
 3751DPPE   GL266868  35.858  13.298  12.325 -0.0421  0.0937 -0.0689
 3751DPPE   C1A66869  35.381  13.405  12.464 -0.0051 -0.3926 -0.0230
 3751DPPE   C2A66870  35.295  13.040  12.736 -0.0379  0.1044 -0.0740
 3751DPPE   C3A66871  35.010  12.647  12.959  0.1074 -0.1297 -0.1711
 3751DPPE   C4A66872  34.682  12.329  12.951  0.1269  0.0509 -0.0488
 3751DPPE   C1B66873  35.496  12.998  12.246 -0.1859  0.1252 -0.0479
 3751DPPE   C2B66874  35.071  12.912  12.120  0.1200  0.1579 -0.0938
 3751DPPE   C3B66875  34.766  12.661  11.941 -0.2769 -0.3014  0.0538
 3751DPPE   C4B66876  34.520  12.411  11.661 -0.2384  0.0780  0.1618
 3752DPPE   NH366877  36.673  14.711   6.338  0.1518  0.3020  0.1533
 3752DPPE   PO466878  36.386  14.409   6.513  0.0167  0.3240  0.3798
 3752DPPE   GL166879  36.048  14.298   6.393  0.0085 -0.0403 -0.1788
 3752DPPE   GL266880  35.797  14.560   6.286 -0.0237  0.3279  0.2232
 3752DPPE   C1A66881  35.673  14.100   6.408 -0.1171  0.0587  0.0734
 3752DPPE   C2A66882  35.430  13.723   6.534  0.1092  0.1394  0.2742
 3752DPPE   C3A66883  35.205  13.396   6.350 -0.1072  0.2130 -0.0357
 3752DPPE   C4A66884  34.931  13.167   6.136  0.3003  0.1897  0.1068
 3752DPPE   C1B66885  35.523  14.445   6.072  0.1587  0.0784 -0.0222
 3752DPPE   C2B66886  35.187  14.161   6.018 -0.1610 -0.0421  0.0697
 3752DPPE   C3B66887  35.144  14.006   5.678 -0.3513 -0.1464  0.0040
 3752DPPE   C4B66888  34.705  13.837   5.682  0.0509 -0.1666 -0.1949
 3753DPPE   NH366889  36.722  14.463   6.950 -0.1804 -0.2096 -0.1104
 3753DPPE   PO466890  36.676  14.130   7.255  0.1232  0.2064  0.2038
 3753DPPE   GL166891  36.405  13.764   7.301  0.1361 -0.2933 -0.1518
 3753DPPE   GL266892  36.559  13.541   7.000 -0.1762  0.1322 -0.0381
 3753DPPE   C1A66893  36.046  13.526   7.519 -0.2612  0.3771  0.1292
 3753DPPE   C2A66894  35.799  13.155   7.499 -0.1274  0.1826 -0.1061
 3753DPPE   C3A66895  35.621  12.945   7.159  0.0974  0.0549 -0.0748
 3753DPPE   C4A66896  35.385  12.760   6.858 -0.1491 -0.0047  0.2928
 3753DPPE   C1B66897  36.346  13.369   6.633 -0.0103 -0.0669 -0.1163
 3753DPPE   C2B66898  36.219  13.035   6.314  0.4019 -0.2311 -0.0423
 3753DPPE   C3B66899  35.982  12.665   6.109 -0.0517  0.1696  0.1154
 3753DPPE   C4B66900  36.024  12.414   5.686  0.4222  0.0876  0.2086
 3754DPPE   NH366901  35.465  14.520  10.393  0.0942  0.3407  0.1042
 3754DPPE   PO466902  35.175  14.763  10.590  0.0563  0.0436  0.2271
 3754DPPE   GL166903  34.919  14.602  10.451 -0.0896 -0.0308 -0.0193
 3754DPPE   GL266904  34.965  14.361  10.294  0.2351 -0.1693 -0.3637
 3754DPPE   C1A66905  34.540  14.557  10.409  0.2274  0.0871 -0.2388
 3754DPPE   C2A66906  34.149  14.578  10.353 -0.0060 -0.1058 -0.2842
 3754DPPE   C3A66907  33.679  14.552  10.376  0.0087 -0.2392  0.0903
 3754DPPE   C4A66908  33.203  14.513  10.289 -0.0376 -0.0466  0.0656
 3754DPPE   C1B66909  34.632  14.118  10.185  0.1970 -0.2887 -0.1236
 3754DPPE   C2B66910  34.196  13.997  10.167 -0.0193 -0.1605 -0.1573
 3754DPPE   C3B66911  33.811  14.108  10.191 -0.2133 -0.1225 -0.1281
 3754DPPE   C4B66912  33.339  14.093  10.365  0.0599 -0.0517  0.0426
 3755DPPE   NH366913  35.467  16.302  13.203  0.1760  0.1284  0.2519
 3755DPPE   PO466914  35.590  16.021  12.999 -0.1928 -0.0992 -0.0667
 3755DPPE   GL166915  36.013  16.197  13.120 -0.0890  0.1111 -0.1304
 3755DPPE   GL266916  36.091  16.116  13.489  0.3321  0.3309  0.3139
 3755DPPE   C1A66917  36.441  16.247  13.182  0.0204  0.0235 -0.2231
 3755DPPE   C2A66918  36.682  16.398  13.326 -0.1314  0.4156 -0.2018
 3755DPPE   C3A66919  36.766  16.795  13.441  0.0866  0.1419 -0.0059
 3755DPPE   C4A66920  37.082  17.136  13.322  0.4188  0.0450  0.1556
 3755DPPE   C1B66921  36.261  16.495  13.637  0.0934  0.0565 -0.0679
 3755DPPE   C2B66922  36.395  16.775  13.895 -0.1896 -0.0975 -0.1595
 3755DPPE   C3B66923  36.589  17.061  14.074 -0.0100  0.1145 -0.3492
 3755DPPE   C4B66924  36.813  17.432  14.079  0.1679  0.0945  0.1024
 3756DPPE   NH366925  33.321  19.906  14.202 -0.0699 -0.0390 -0.0491
 3756DPPE   PO466926  33.334  19.536  14.369 -0.1175 -0.0725 -0.0044
 3756DPPE   GL166927  32.849  19.595  14.304 -0.0710 -0.0487 -0.4769
 3756DPPE   GL266928  32.729  19.898  14.365  0.1041 -0.2682  0.5759
 3756DPPE   C1A66929  32.567  19.264  14.090  0.1560  0.1183  0.2402
 3756DPPE   C2A66930  32.221  18.936  14.064 -0.0774  0.0116 -0.1362
 3756DPPE   C3A66931  31.826  18.958  14.311  0.3103 -0.2746 -0.1814
 3756DPPE   C4A66932  31.484  18.951  14.638  0.2494  0.4096  0.0932
 3756DPPE   C1B66933  32.226  20.053  14.530 -0.2261 -0.0789  0.0356
 3756DPPE   C2B66934  31.891  19.837  14.449 -0.3546 -0.0333 -0.1040
 3756DPPE   C3B66935  31.546  19.851  14.249 -0.0716 -0.0728  0.1668
 3756DPPE   C4B66936  31.138  19.936  14.391  0.3165  0.0201 -0.0296
 3757DPPE   NH366937   1.418  12.505  15.559 -0.0318  0.0122  0.1894
 3757DPPE   PO466938   1.371  12.858  15.853  0.1417 -0.0476 -0.1525
 3757DPPE   GL166939   1.640  12.682  16.140  0.1456  0.0191  0.1895
 3757DPPE   GL266940   1.886  12.788  16.280  0.1816 -0.0882  0.3604
 3757DPPE   C1A66941   1.584  12.272  16.303 -0.0551 -0.1030  0.0869
 3757DPPE   C2A66942   1.476  12.068  16.716  0.2945 -0.1308  0.0887
 3757DPPE   C3A66943   1.391  11.768  16.961  0.1180  0.2546  0.0004
 3757DPPE   C4A66944   1.339  11.551  17.436 -0.0832  0.2567  0.2063
 3757DPPE   C1B66945   2.194  12.691  16.587  0.2248 -0.0763 -0.2115
 3757DPPE   C2B66946   2.303  12.660  16.997  0.3220  0.2914  0.2030
 3757DPPE   C3B66947   2.423  12.704  17.393 -0.1671  0.0596 -0.2101
 3757DPPE   C4B66948   2.636  12.517  17.642  0.1309 -0.1273  0.0357
 3758DPPE   NH366949  33.744  17.752   8.567 -0.2809 -0.0997 -0.4340
 3758DPPE   PO466950  33.826  17.755   9.009  0.1427 -0.1021  0.1129
 3758DPPE   GL166951  33.559  17.456   9.103  0.3483 -0.0915  0.1039
 3758DPPE   GL266952  33.334  17.387   9.462 -0.3111 -0.2419  0.0833
 3758DPPE   C1A66953  33.227  17.104   9.059 -0.0847  0.0431 -0.0953
 3758DPPE   C2A66954  32.904  17.012   8.814 -0.1830 -0.0200  0.1380
 3758DPPE   C3A66955  32.668  16.675   8.628  0.1493 -0.0131  0.2574
 3758DPPE   C4A66956  32.645  16.311   8.355 -0.0616 -0.1426 -0.0673
 3758DPPE   C1B66957  32.874  17.314   9.289 -0.0663  0.0098 -0.1921
 3758DPPE   C2B66958  32.485  17.170   9.143 -0.1498  0.1086 -0.3858
 3758DPPE   C3B66959  32.317  16.767   9.054 -0.1490  0.1185 -0.4296
 3758DPPE   C4B66960  32.227  16.427   8.773  0.0971  0.1842 -0.1380
 3759DPPE   NH366961  33.918  17.287  14.215  0.3851  0.0400  0.2083
 3759DPPE   PO466962  34.253  16.905  14.013  0.0827  0.6009 -0.0420
 3759DPPE   GL166963  33.816  16.756  14.184 -0.0938 -0.0382 -0.1899
 3759DPPE   GL266964  33.974  16.584  14.416 -0.2154 -0.2924 -0.1899
 3759DPPE   C1A66965  33.392  16.688  14.210  0.2947 -0.0214  0.2699
 3759DPPE   C2A66966  33.097  16.682  14.443  0.1351 -0.0366  0.3248
 3759DPPE   C3A66967  32.794  16.401  14.672  0.3455  0.0121 -0.0466
 3759DPPE   C4A66968  32.750  16.028  14.762 -0.0768 -0.0737 -0.2978
 3759DPPE   C1B66969  33.766  16.252  14.340 -0.0956 -0.0416 -0.0251
 3759DPPE   C2B66970  33.608  15.918  14.094 -0.3780 -0.1832 -0.1128
 3759DPPE   C3B66971  33.191  15.705  13.954 -0.1822  0.1408 -0.5321
 3759DPPE   C4B66972  32.593  15.666  14.021 -0.2710 -0.2480 -0.2231
 3760DPPE   NH366973  37.214  13.406   7.869 -0.1927 -0.2216  0.1162
 3760DPPE   PO466974  37.409  13.434   7.462  0.1715 -0.3124  0.0455
 3760DPPE   GL166975  37.076  13.190   7.394  0.0232 -0.0746  0.1944
 3760DPPE   GL266976  36.968  13.077   7.634 -0.1848  0.1571 -0.0798
 3760DPPE   C1A66977  36.739  13.002   7.115 -0.1439 -0.4474 -0.1630
 3760DPPE   C2A66978  36.509  12.573   7.063 -0.0804  0.0019  0.1923
 3760DPPE   C3A66979  36.203  12.243   7.063 -0.0256 -0.2567  0.1273
 3760DPPE   C4A66980  35.948  11.921   7.166  0.0895 -0.3657  0.2015
 3760DPPE   C1B66981  36.895  12.760   7.552 -0.1592  0.5802 -0.0972
 3760DPPE   C2B66982  36.913  12.297   7.361 -0.3964 -0.3203 -0.1525
 3760DPPE   C3B66983  36.788  11.954   7.375 -0.2137 -0.2975  0.2217
 3760DPPE   C4B66984  36.791  11.532   7.174  0.0555 -0.4609  0.0465
 3761DPPE   NH366985  35.839  19.619   4.975  0.0042 -0.4553 -0.1017
 3761DPPE   PO466986  36.185  19.918   5.102  0.1940  0.1061  0.1506
 3761DPPE   GL166987  36.552  19.968   5.381 -0.2147 -0.2355 -0.0162
 3761DPPE   GL266988  36.460  20.280   5.343 -0.0887  0.0406 -0.0251
 3761DPPE   C1A66989  36.990  20.103   5.345 -0.0971 -0.2673 -0.0145
 3761DPPE   C2A66990  37.203  20.194   5.065 -0.1550  0.0063  0.0159
 3761DPPE   C3A66991  37.332  20.327   4.696  0.4279  0.3148  0.2069
 3761DPPE   C4A66992  37.332  20.738   4.481  0.1319  0.0648  0.0992
 3761DPPE   C1B66993  36.627  20.493   5.697 -0.2090 -0.3216  0.1298
 3761DPPE   C2B66994  36.962  20.696   5.922 -0.0407  0.1050 -0.1300
 3761DPPE   C3B66995  37.307  20.574   6.201  0.3904 -0.1181  0.1035
 3761DPPE   C4B66996  37.506  20.150   6.165 -0.2944  0.2244 -0.0825
 3762DPPE   NH366997  33.275  19.462  13.893  0.1421  0.2103  0.0070
 3762DPPE   PO466998  33.079  18.975  13.654 -0.1684 -0.4269  0.1859
 3762DPPE   GL166999  32.721  19.128  13.429  0.0155  0.4285 -0.1255
 3762DPPE   GL267000  32.710  19.345  13.081 -0.0996  0.0814 -0.2882
 3762DPPE   C1A67001  32.152  19.021  13.537 -0.0154  0.1129 -0.3478
 3762DPPE   C2A67002  31.763  19.110  13.847 -0.2925 -0.1938 -0.1385
 3762DPPE   C3A67003  31.495  19.298  14.199  0.0243 -0.1776  0.0225
 3762DPPE   C4A67004  31.188  19.436  14.484 -0.0249  0.0826  0.2973
 3762DPPE   C1B67005  32.241  19.330  13.199 -0.0583 -0.0333  0.0435
 3762DPPE   C2B67006  31.935  19.605  13.237  0.1457  0.0665 -0.1596
 3762DPPE   C3B67007  31.525  19.817  12.975 -0.0499 -0.1868 -0.1741
 3762DPPE   C4B67008  31.162  20.084  13.062  0.1962  0.1897 -0.1051
 3763DPPE   NH367009   0.695  13.548  16.755  0.1508  0.1187  0.2632
 3763DPPE   PO467010   1.016  13.725  17.045 -0.0484 -0.0194 -0.0223
 3763DPPE   GL167011   1.141  13.379  17.307 -0.1056 -0.0514  0.1117
 3763DPPE   GL267012   1.275  13.248  17.143  0.2151  0.0205 -0.2352
 3763DPPE   C1A67013   1.179  13.253  17.777  0.1844 -0.1228  0.0262
 3763DPPE   C2A67014   1.430  13.216  18.188  0.2482 -0.1151 -0.1044
 3763DPPE   C3A67015   1.353  13.524  18.439 -0.1190  0.5576  0.2308
 3763DPPE   C4A67016   1.584  13.770  18.774 -0.1317  0.2236 -0.3560
 3763DPPE   C1B67017   1.300  12.820  17.437 -0.2176 -0.2693 -0.0984
 3763DPPE   C2B67018   1.191  12.626  17.790  0.0142 -0.2634  0.2500
 3763DPPE   C3B67019   1.358  12.575  18.236 -0.1213  0.4328  0.4703
 3763DPPE   C4B67020   1.584  12.565  18.550 -0.2810  0.3291  0.0992
 3764DPPE   NH367021  34.028  23.361  11.333  0.0237  0.2527  0.0383
 3764DPPE   PO467022  33.545  23.121  11.441 -0.0916  0.0884  0.0104
 3764DPPE   GL167023  33.098  23.386  11.352 -0.2194 -0.1590 -0.0157
 3764DPPE   GL267024  33.085  23.529  11.762 -0.1567  0.3843 -0.0893
 3764DPPE   C1A67025  32.589  23.598  11.427 -0.0866  0.3901 -0.1329
 3764DPPE   C2A67026  32.344  23.727  11.695 -0.0043  0.0458 -0.4476
 3764DPPE   C3A67027  32.120  23.459  12.013  0.2272 -0.0684 -0.2178
 3764DPPE   C4A67028  32.074  23.118  12.075  0.2486  0.0881  0.2007
 3764DPPE   C1B67029  33.104  23.989  11.957  0.3290 -0.0270 -0.2712
 3764DPPE   C2B67030  33.206  24.435  11.882  0.1485  0.2735 -0.1597
 3764DPPE   C3B67031  33.508  24.609  11.697  0.4455 -0.0508  0.0648
 3764DPPE   C4B67032  33.527  24.583  11.314  0.3401 -0.2266 -0.0048
 3765DPPE   NH367033   0.698  13.011  16.525  0.4271  0.1037 -0.0468
 3765DPPE   PO467034   0.343  13.343  16.469 -0.3040  0.0959  0.1501
 3765DPPE   GL167035   0.167  12.967  16.586 -0.1254 -0.1581  0.3311
 3765DPPE   GL267036   0.373  12.617  16.565  0.2449  0.5444  0.3440
 3765DPPE   C1A67037  -0.123  12.762  16.801  0.0747 -0.1237 -0.0406
 3765DPPE   C2A67038  -0.495  12.778  16.890  0.3178  0.2416  0.3110
 3765DPPE   C3A67039  -0.654  12.463  16.894 -0.1725  0.1280 -0.1638
 3765DPPE   C4A67040  -0.861  12.129  16.885 -0.0120  0.1341  0.0547
 3765DPPE   C1B67041   0.214  12.325  16.847  0.1987  0.1733 -0.1946
 3765DPPE   C2B67042  -0.229  12.011  17.009  0.1990 -0.0124 -0.4129
 3765DPPE   C3B67043  -0.506  11.786  17.176 -0.1159  0.0541  0.1476
 3765DPPE   C4B67044  -0.652  11.562  17.586  0.1635 -0.2307  0.1164
 3766DPPE   NH367045  37.626  14.083   8.136 -0.2276 -0.2145 -0.0234
 3766DPPE   PO467046  37.652  14.339   7.822 -0.2219  0.0191 -0.0174
 3766DPPE   GL167047  38.133  14.231   7.975  0.0300  0.1825 -0.3745
 3766DPPE   GL267048  38.144  14.411   8.152 -0.2832 -0.0226  0.2508
 3766DPPE   C1A67049  38.604  14.440   8.175  0.2227  0.2006  0.0872
 3766DPPE   C2A67050  38.661  14.661   8.525  0.1255 -0.0196  0.2791
 3766DPPE   C3A67051  38.890  14.823   8.831 -0.0446  0.0514 -0.0783
 3766DPPE   C4A67052  39.314  15.071   8.852 -0.0852  0.1590  0.3352
 3766DPPE   C1B67053  38.222  14.464   8.557  0.2866 -0.3508  0.1729
 3766DPPE   C2B67054  38.391  14.677   9.000 -0.1089  0.0134 -0.1489
 3766DPPE   C3B67055  38.627  14.765   9.297  0.1983 -0.1426 -0.4679
 3766DPPE   C4B67056  38.665  14.784   9.660  0.1269 -0.0865  0.0030
  38.39083  38.39083  26.43971
