BUMPy system t= 3300000.00000 step= 165000000
67056
    1BOLB   NC1    1  18.500  24.380  21.960
    1BOLB   PO1    2  18.950  24.620  22.060
    1BOLB   GL1    3  18.940  24.280  21.760
    1BOLB   GL2    4  18.940  23.950  21.730
    1BOLB   C1A    5  18.980  24.370  21.310
    1BOLB   C2A    6  19.030  24.110  20.980
    1BOLB   C3A    7  19.080  24.240  20.630
    1BOLB   C4A    8  18.820  24.260  20.290
    1BOLB   C1B    9  18.660  23.940  21.390
    1BOLB   C2B   10  18.300  23.810  21.390
    1BOLB   C3B   11  17.880  24.000  21.520
    1BOLB   C4B   12  17.420  24.010  21.730
    1BOLB   NC2   13  18.140  25.930  21.410
    1BOLB   PO2   14  18.050  26.130  21.020
    1BOLB   GL3   15  18.060  26.100  20.520
    1BOLB   GL4   16  18.350  26.390  20.270
    1BOLB   C1C   17  17.920  25.810  20.210
    1BOLB   C2C   18  17.960  25.470  20.090
    1BOLB   C3C   19  18.210  24.980  20.190
    1BOLB   C4C   20  18.500  24.670  20.170
    1BOLB   C1D   21  17.910  26.260  19.970
    1BOLB   C2D   22  17.580  26.420  19.660
    1BOLB   C3D   23  17.480  26.720  19.490
    1BOLB   C4D   24  17.140  26.940  19.350
    2BOLB   NC1   25  16.610  19.080   5.350
    2BOLB   PO1   26  16.680  19.310   5.070
    2BOLB   GL1   27  16.550  19.630   4.720
    2BOLB   GL2   28  16.620  19.970   4.610
    2BOLB   C1A   29  16.450  19.790   4.210
    2BOLB   C2A   30  16.030  19.910   4.100
    2BOLB   C3A   31  15.970  20.030   3.720
    2BOLB   C4A   32  16.010  20.150   3.290
    2BOLB   C1B   33  16.880  20.150   4.230
    2BOLB   C2B   34  16.840  20.540   4.050
    2BOLB   C3B   35  16.890  20.920   3.840
    2BOLB   C4B   36  16.640  21.120   3.620
    2BOLB   NC2   37  15.180  21.000   1.350
    2BOLB   PO2   38  15.560  21.090   1.170
    2BOLB   GL3   39  15.620  21.190   1.620
    2BOLB   GL4   40  15.440  21.000   1.830
    2BOLB   C1C   41  15.770  21.250   2.050
    2BOLB   C2C   42  15.710  21.030   2.440
    2BOLB   C3C   43  15.930  20.760   2.790
    2BOLB   C4C   44  16.110  20.500   3.080
    2BOLB   C1D   45  15.620  20.700   2.090
    2BOLB   C2D   46  15.840  20.550   2.360
    2BOLB   C3D   47  15.830  20.270   2.730
    2BOLB   C4D   48  15.430  20.150   3.010
    3BOLB   NC1   49   4.660  25.300  20.040
    3BOLB   PO1   50   4.920  25.630  19.960
    3BOLB   GL1   51   5.350  25.440  19.970
    3BOLB   GL2   52   5.520  25.680  19.920
    3BOLB   C1A   53   5.590  25.110  20.010
    3BOLB   C2A   54   5.710  24.710  20.120
    3BOLB   C3A   55   5.850  24.320  20.080
    3BOLB   C4A   56   5.750  23.880  20.120
    3BOLB   C1B   57   5.740  25.350  19.590
    3BOLB   C2B   58   5.920  24.970  19.610
    3BOLB   C3B   59   6.040  24.590  19.620
    3BOLB   C4B   60   6.290  24.300  19.850
    3BOLB   NC2   61   3.900  24.980  20.230
    3BOLB   PO2   62   4.370  24.830  20.040
    3BOLB   GL3   63   4.490  24.540  20.000
    3BOLB   GL4   64   4.650  24.570  19.690
    3BOLB   C1C   65   4.500  24.130  19.970
    3BOLB   C2C   66   4.740  23.810  19.990
    3BOLB   C3C   67   5.010  23.450  20.010
    3BOLB   C4C   68   5.470  23.500  20.140
    3BOLB   C1D   69   5.050  24.460  19.540
    3BOLB   C2D   70   5.520  24.360  19.660
    3BOLB   C3D   71   5.820  24.080  19.640
    3BOLB   C4D   72   6.210  23.790  19.620
    4BOLB   NC1   73  18.570   5.610  15.420
    4BOLB   PO1   74  18.420   5.410  15.080
    4BOLB   GL1   75  18.360   5.780  15.040
    4BOLB   GL2   76  18.640   6.060  15.050
    4BOLB   C1A   77  18.150   6.130  14.800
    4BOLB   C2A   78  18.180   6.370  14.400
    4BOLB   C3A   79  18.070   6.770  14.150
    4BOLB   C4A   80  17.890   7.180  14.030
    4BOLB   C1B   81  18.990   6.260  14.800
    4BOLB   C2B   82  19.070   6.160  14.410
    4BOLB   C3B   83  18.900   6.000  14.030
    4BOLB   C4B   84  18.770   6.010  13.670
    4BOLB   NC2   85  17.660   5.120  14.920
    4BOLB   PO2   86  18.050   5.080  14.990
    4BOLB   GL3   87  18.000   5.510  14.810
    4BOLB   GL4   88  17.860   5.490  15.170
    4BOLB   C1C   89  17.740   5.880  14.640
    4BOLB   C2C   90  17.690   6.320  14.530
    4BOLB   C3C   91  17.580   6.640  14.200
    4BOLB   C4C   92  17.460   7.010  14.060
    4BOLB   C1D   93  17.870   5.820  15.150
    4BOLB   C2D   94  17.730   6.200  15.060
    4BOLB   C3D   95  17.800   6.640  14.960
    4BOLB   C4D   96  17.520   6.920  15.110
    5BOLB   NC1   97  16.340  22.160  25.270
    5BOLB   PO1   98  16.570  21.780  25.160
    5BOLB   GL1   99  16.330  21.680  24.870
    5BOLB   GL2  100  16.450  21.630  24.600
    5BOLB   C1A  101  15.940  21.400  24.880
    5BOLB   C2A  102  15.710  21.190  24.490
    5BOLB   C3A  103  15.420  21.290  24.130
    5BOLB   C4A  104  15.130  21.610  24.100
    5BOLB   C1B  105  16.240  21.180  24.600
    5BOLB   C2B  106  16.160  20.720  24.620
    5BOLB   C3B  107  16.210  20.470  24.230
    5BOLB   C4B  108  16.010  20.500  23.680
    5BOLB   NC2  109  14.830  21.680  26.520
    5BOLB   PO2  110  14.550  21.880  26.160
    5BOLB   GL3  111  14.580  21.600  25.860
    5BOLB   GL4  112  14.260  21.460  25.820
    5BOLB   C1C  113  14.590  21.630  25.370
    5BOLB   C2C  114  14.420  21.870  24.950
    5BOLB   C3C  115  14.670  21.960  24.730
    5BOLB   C4C  116  14.890  21.800  24.330
    5BOLB   C1D  117  14.060  21.350  25.450
    5BOLB   C2D  118  13.930  21.460  25.080
    5BOLB   C3D  119  13.970  21.720  24.730
    5BOLB   C4D  120  13.890  21.630  24.190
    6BOLB   NC1  121  19.220  10.960  15.060
    6BOLB   PO1  122  19.590  10.670  15.090
    6BOLB   GL1  123  19.660  10.470  15.430
    6BOLB   GL2  124  19.660  10.190  15.400
    6BOLB   C1A  125  20.000  10.250  15.780
    6BOLB   C2A  126  20.370  10.210  15.860
    6BOLB   C3A  127  20.630   9.770  15.950
    6BOLB   C4A  128  20.630   9.400  16.160
    6BOLB   C1B  129  19.610   9.870  15.650
    6BOLB   C2B  130  19.640   9.540  15.920
    6BOLB   C3B  131  20.090   9.240  16.100
    6BOLB   C4B  132  20.230   8.930  16.390
    6BOLB   NC2  133  21.590   7.400  17.120
    6BOLB   PO2  134  21.840   7.640  16.880
    6BOLB   GL3  135  21.570   7.850  16.580
    6BOLB   GL4  136  21.460   7.630  16.290
    6BOLB   C1C  137  21.330   8.210  16.590
    6BOLB   C2C  138  21.120   8.490  16.420
    6BOLB   C3C  139  20.960   8.830  16.490
    6BOLB   C4C  140  20.690   9.060  16.510
    6BOLB   C1D  141  21.160   7.840  16.330
    6BOLB   C2D  142  20.760   7.830  16.120
    6BOLB   C3D  143  20.430   7.860  16.340
    6BOLB   C4D  144  20.190   7.830  16.710
    7BOLB   NC1  145  21.380  23.890  12.400
    7BOLB   PO1  146  21.780  23.850  12.680
    7BOLB   GL1  147  22.260  23.950  12.590
    7BOLB   GL2  148  22.140  24.130  12.360
    7BOLB   C1A  149  22.660  24.090  12.640
    7BOLB   C2A  150  22.970  24.260  12.590
    7BOLB   C3A  151  23.420  24.360  12.640
    7BOLB   C4A  152  23.520  24.400  12.280
    7BOLB   C1B  153  22.280  24.510  12.640
    7BOLB   C2B  154  22.550  24.540  12.880
    7BOLB   C3B  155  22.350  24.610  13.320
    7BOLB   C4B  156  22.390  24.900  13.590
    7BOLB   NC2  157  24.820  26.540  12.420
    7BOLB   PO2  158  24.910  26.150  12.520
    7BOLB   GL3  159  24.770  25.760  12.600
    7BOLB   GL4  160  24.670  25.780  12.860
    7BOLB   C1C  161  24.720  25.350  12.510
    7BOLB   C2C  162  24.690  25.130  12.090
    7BOLB   C3C  163  24.280  24.960  12.180
    7BOLB   C4C  164  24.010  24.640  12.140
    7BOLB   C1D  165  24.220  25.670  12.730
    7BOLB   C2D  166  24.060  25.330  13.060
    7BOLB   C3D  167  23.940  25.120  13.360
    7BOLB   C4D  168  23.890  24.700  13.490
    8BOLB   NC1  169  10.500   5.440  14.360
    8BOLB   PO1  170  10.460   5.330  13.910
    8BOLB   GL1  171  10.510   5.760  13.910
    8BOLB   GL2  172  10.320   5.970  13.810
    8BOLB   C1A  173  10.750   6.240  13.960
    8BOLB   C2A  174  10.660   6.660  13.890
    8BOLB   C3A  175  10.360   6.970  14.030
    8BOLB   C4A  176  10.500   7.250  14.350
    8BOLB   C1B  177  10.220   6.420  13.820
    8BOLB   C2B  178   9.900   6.680  13.940
    8BOLB   C3B  179   9.710   6.550  14.280
    8BOLB   C4B  180   9.660   6.800  14.570
    8BOLB   NC2  181  10.070   5.020  15.120
    8BOLB   PO2  182  10.220   5.360  15.160
    8BOLB   GL3  183  10.170   5.860  15.200
    8BOLB   GL4  184   9.950   6.070  15.050
    8BOLB   C1C  185  10.200   6.360  15.460
    8BOLB   C2C  186  10.200   6.740  15.260
    8BOLB   C3C  187  10.150   7.030  14.860
    8BOLB   C4C  188  10.560   7.170  14.780
    8BOLB   C1D  189  10.170   6.370  14.800
    8BOLB   C2D  190  10.490   6.680  14.740
    8BOLB   C3D  191  10.790   6.760  14.420
    8BOLB   C4D  192  10.930   7.070  14.090
    9BOLB   NC1  193  13.710   9.320  12.360
    9BOLB   PO1  194  13.340   9.000  12.480
    9BOLB   GL1  195  13.310   8.630  12.310
    9BOLB   GL2  196  13.720   8.590  12.450
    9BOLB   C1A  197  12.980   8.330  12.340
    9BOLB   C2A  198  12.960   7.910  12.570
    9BOLB   C3A  199  12.960   7.740  12.960
    9BOLB   C4A  200  12.900   7.410  13.330
    9BOLB   C1B  201  13.480   8.200  12.490
    9BOLB   C2B  202  13.430   7.650  12.620
    9BOLB   C3B  203  13.100   7.460  12.560
    9BOLB   C4B  204  13.130   7.090  12.510
    9BOLB   NC2  205  13.170   5.160  13.990
    9BOLB   PO2  206  12.780   5.270  14.170
    9BOLB   GL3  207  12.900   5.530  13.830
    9BOLB   GL4  208  13.230   5.660  13.750
    9BOLB   C1C  209  12.870   5.990  13.700
    9BOLB   C2C  210  12.960   6.450  13.670
    9BOLB   C3C  211  12.780   6.870  13.800
    9BOLB   C4C  212  12.750   7.300  13.740
    9BOLB   C1D  213  13.510   5.900  13.970
    9BOLB   C2D  214  13.780   6.190  13.760
    9BOLB   C3D  215  13.760   6.590  13.660
    9BOLB   C4D  216  13.780   6.980  13.580
   10BOLB   NC1  217  12.320  10.510   8.210
   10BOLB   PO1  218  12.450  10.130   8.410
   10BOLB   GL1  219  12.460   9.770   8.660
   10BOLB   GL2  220  12.180   9.660   8.450
   10BOLB   C1A  221  12.150   9.320   8.800
   10BOLB   C2A  222  11.760   9.270   9.040
   10BOLB   C3A  223  11.300   9.350   9.140
   10BOLB   C4A  224  10.980   9.020   9.010
   10BOLB   C1B  225  12.430   9.320   8.410
   10BOLB   C2B  226  12.310   8.890   8.690
   10BOLB   C3B  227  12.010   8.660   8.950
   10BOLB   C4B  228  11.540   8.770   9.030
   10BOLB   NC2  229  10.230   6.980   7.840
   10BOLB   PO2  230  10.620   6.810   7.900
   10BOLB   GL3  231  10.510   7.190   8.180
   10BOLB   GL4  232  10.480   7.030   8.570
   10BOLB   C1C  233  10.750   7.570   8.270
   10BOLB   C2C  234  10.710   8.090   8.400
   10BOLB   C3C  235  10.760   8.220   8.820
   10BOLB   C4C  236  11.040   8.580   8.840
   10BOLB   C1D  237  10.550   7.350   8.970
   10BOLB   C2D  238  10.780   7.620   9.290
   10BOLB   C3D  239  10.890   7.770   9.680
   10BOLB   C4D  240  10.740   8.180   9.840
   11BOLB   NC1  241   4.610   9.470  19.210
   11BOLB   PO1  242   4.300   9.860  19.220
   11BOLB   GL1  243   4.610   9.940  18.960
   11BOLB   GL2  244   4.550  10.330  18.940
   11BOLB   C1A  245   4.840   9.910  18.530
   11BOLB   C2A  246   4.930  10.090  18.180
   11BOLB   C3A  247   5.170  10.160  17.910
   11BOLB   C4A  248   5.470  10.420  17.990
   11BOLB   C1B  249   4.720  10.730  18.860
   11BOLB   C2B  250   5.070  11.030  18.620
   11BOLB   C3B  251   5.350  11.310  18.980
   11BOLB   C4B  252   5.480  11.690  19.080
   11BOLB   NC2  253   4.280  10.360  19.490
   11BOLB   PO2  254   4.240  10.640  19.830
   11BOLB   GL3  255   4.640  10.620  19.750
   11BOLB   GL4  256   4.830  10.410  19.820
   11BOLB   C1C  257   4.960  10.630  19.390
   11BOLB   C2C  258   5.330  10.710  19.190
   11BOLB   C3C  259   5.560  10.720  18.730
   11BOLB   C4C  260   5.620  10.700  18.300
   11BOLB   C1D  261   5.310  10.460  19.700
   11BOLB   C2D  262   5.580  10.400  19.560
   11BOLB   C3D  263   5.860  10.680  19.370
   11BOLB   C4D  264   5.820  11.000  19.160
   12BOLB   NC1  265  12.830  18.480  28.270
   12BOLB   PO1  266  13.000  18.880  27.980
   12BOLB   GL1  267  12.950  18.800  27.550
   12BOLB   GL2  268  12.750  18.500  27.700
   12BOLB   C1A  269  12.910  18.770  27.000
   12BOLB   C2A  270  12.970  18.790  26.560
   12BOLB   C3A  271  12.810  18.970  26.150
   12BOLB   C4A  272  12.530  19.100  25.990
   12BOLB   C1B  273  12.780  18.250  27.350
   12BOLB   C2B  274  12.710  17.900  27.240
   12BOLB   C3B  275  12.640  17.690  26.930
   12BOLB   C4B  276  12.510  17.300  26.740
   12BOLB   NC2  277  11.690  21.110  27.560
   12BOLB   PO2  278  11.380  20.820  27.490
   12BOLB   GL3  279  11.560  20.450  27.280
   12BOLB   GL4  280  11.750  20.240  27.450
   12BOLB   C1C  281  11.490  20.120  26.920
   12BOLB   C2C  282  11.730  19.970  26.530
   12BOLB   C3C  283  11.960  19.640  26.400
   12BOLB   C4C  284  12.140  19.460  25.970
   12BOLB   C1D  285  12.040  20.170  27.020
   12BOLB   C2D  286  12.210  20.100  26.550
   12BOLB   C3D  287  12.160  20.400  26.170
   12BOLB   C4D  288  12.170  20.870  26.080
   13BOLB   NC1  289  21.540   6.610  13.630
   13BOLB   PO1  290  21.660   6.650  14.030
   13BOLB   GL1  291  21.590   7.050  13.880
   13BOLB   GL2  292  21.580   7.100  14.240
   13BOLB   C1A  293  21.360   7.440  13.680
   13BOLB   C2A  294  20.940   7.400  13.490
   13BOLB   C3A  295  20.550   7.540  13.280
   13BOLB   C4A  296  20.320   7.500  13.000
   13BOLB   C1B  297  21.400   7.480  14.170
   13BOLB   C2B  298  21.230   7.820  14.040
   13BOLB   C3B  299  21.120   7.860  13.520
   13BOLB   C4B  300  20.720   8.070  13.430
   13BOLB   NC2  301  20.450   5.540  12.540
   13BOLB   PO2  302  20.820   5.830  12.740
   13BOLB   GL3  303  20.580   6.180  12.720
   13BOLB   GL4  304  20.370   6.080  12.710
   13BOLB   C1C  305  20.570   6.430  12.380
   13BOLB   C2C  306  20.400   6.770  12.160
   13BOLB   C3C  307  20.110   7.080  12.250
   13BOLB   C4C  308  20.190   7.450  12.620
   13BOLB   C1D  309  20.120   6.410  12.900
   13BOLB   C2D  310  19.910   6.670  13.140
   13BOLB   C3D  311  19.640   6.880  13.310
   13BOLB   C4D  312  19.390   7.300  13.270
   14BOLB   NC1  313  15.330   5.910  20.040
   14BOLB   PO1  314  15.740   5.790  20.020
   14BOLB   GL1  315  15.750   6.180  19.970
   14BOLB   GL2  316  15.590   6.140  19.640
   14BOLB   C1A  317  15.610   6.650  20.180
   14BOLB   C2A  318  15.350   6.950  20.390
   14BOLB   C3A  319  15.310   7.320  20.670
   14BOLB   C4A  320  14.920   7.430  20.820
   14BOLB   C1B  321  15.440   6.520  19.720
   14BOLB   C2B  322  15.270   6.880  19.890
   14BOLB   C3B  323  15.310   7.330  19.950
   14BOLB   C4B  324  15.310   7.670  19.700
   14BOLB   NC2  325  13.840   4.710  21.110
   14BOLB   PO2  326  13.880   5.160  20.910
   14BOLB   GL3  327  13.710   5.630  20.880
   14BOLB   GL4  328  13.440   5.740  20.710
   14BOLB   C1C  329  13.850   6.050  20.730
   14BOLB   C2C  330  14.020   6.460  20.740
   14BOLB   C3C  331  14.340   6.630  20.550
   14BOLB   C4C  332  14.660   6.940  20.760
   14BOLB   C1D  333  13.570   6.050  20.370
   14BOLB   C2D  334  13.760   6.360  20.240
   14BOLB   C3D  335  13.960   6.770  20.160
   14BOLB   C4D  336  13.940   7.290  19.990
   15BOLB   NC1  337  19.780  14.220  18.240
   15BOLB   PO1  338  20.100  14.430  18.330
   15BOLB   GL1  339  20.490  14.230  18.310
   15BOLB   GL2  340  20.590  14.330  18.080
   15BOLB   C1A  341  20.820  13.870  18.590
   15BOLB   C2A  342  21.130  14.030  18.900
   15BOLB   C3A  343  21.330  14.120  19.240
   15BOLB   C4A  344  21.720  14.040  19.430
   15BOLB   C1B  345  20.990  14.300  18.290
   15BOLB   C2B  346  21.390  14.050  18.390
   15BOLB   C3B  347  21.600  13.750  18.610
   15BOLB   C4B  348  22.000  13.690  18.770
   15BOLB   NC2  349  22.410  12.700  21.600
   15BOLB   PO2  350  22.400  13.100  21.330
   15BOLB   GL3  351  22.090  13.300  21.030
   15BOLB   GL4  352  21.750  13.090  21.000
   15BOLB   C1C  353  22.290  13.580  20.690
   15BOLB   C2C  354  22.540  13.560  20.320
   15BOLB   C3C  355  22.410  13.640  19.880
   15BOLB   C4C  356  22.100  13.870  19.720
   15BOLB   C1D  357  21.400  13.310  20.940
   15BOLB   C2D  358  21.090  13.640  21.050
   15BOLB   C3D  359  20.910  14.120  20.930
   15BOLB   C4D  360  20.650  14.440  21.200
   16BOLB   NC1  361  13.400  13.010  15.810
   16BOLB   PO1  362  13.240  13.050  15.470
   16BOLB   GL1  363  13.020  12.630  15.790
   16BOLB   GL2  364  13.080  12.560  16.080
   16BOLB   C1A  365  12.770  12.220  15.780
   16BOLB   C2A  366  12.490  11.960  16.020
   16BOLB   C3A  367  12.150  11.690  16.140
   16BOLB   C4A  368  11.860  11.520  16.290
   16BOLB   C1B  369  12.870  12.190  16.320
   16BOLB   C2B  370  12.530  11.990  16.490
   16BOLB   C3B  371  12.300  11.680  16.650
   16BOLB   C4B  372  12.210  11.410  16.990
   16BOLB   NC2  373  13.480  10.730  15.110
   16BOLB   PO2  374  13.520  11.140  15.430
   16BOLB   GL3  375  13.180  10.960  15.540
   16BOLB   GL4  376  13.290  10.820  15.780
   16BOLB   C1C  377  12.860  11.230  15.790
   16BOLB   C2C  378  12.630  11.150  16.190
   16BOLB   C3C  379  12.330  11.080  16.530
   16BOLB   C4C  380  11.970  11.250  16.570
   16BOLB   C1D  381  13.330  10.590  16.150
   16BOLB   C2D  382  13.480  10.520  16.610
   16BOLB   C3D  383  13.250  10.500  17.020
   16BOLB   C4D  384  13.120  10.680  17.380
   17BOLB   NC1  385  14.910   8.560  26.100
   17BOLB   PO1  386  14.730   8.530  25.770
   17BOLB   GL1  387  14.850   9.040  25.820
   17BOLB   GL2  388  14.700   9.320  25.910
   17BOLB   C1A  389  15.050   9.440  25.500
   17BOLB   C2A  390  15.190   9.670  25.220
   17BOLB   C3A  391  15.180   9.870  24.840
   17BOLB   C4A  392  15.100   9.650  24.390
   17BOLB   C1B  393  14.650   9.650  25.660
   17BOLB   C2B  394  14.750   9.850  25.350
   17BOLB   C3B  395  14.770  10.150  25.020
   17BOLB   C4B  396  14.710  10.500  24.620
   17BOLB   NC2  397  15.240   7.390  24.940
   17BOLB   PO2  398  15.630   7.440  24.720
   17BOLB   GL3  399  15.610   7.710  24.400
   17BOLB   GL4  400  15.930   7.810  24.370
   17BOLB   C1C  401  15.320   7.990  24.440
   17BOLB   C2C  402  15.310   8.340  24.160
   17BOLB   C3C  403  15.240   8.710  24.230
   17BOLB   C4C  404  15.170   9.220  24.280
   17BOLB   C1D  405  15.710   8.030  24.070
   17BOLB   C2D  406  15.360   7.880  23.950
   17BOLB   C3D  407  14.880   7.940  23.870
   17BOLB   C4D  408  14.590   8.150  23.600
   18BOLB   NC1  409  11.450   4.590  15.810
   18BOLB   PO1  410  11.400   5.070  15.980
   18BOLB   GL1  411  11.420   5.560  15.820
   18BOLB   GL2  412  11.260   5.780  15.990
   18BOLB   C1A  413  11.520   6.060  15.690
   18BOLB   C2A  414  11.460   6.490  15.510
   18BOLB   C3A  415  11.800   6.610  15.480
   18BOLB   C4A  416  12.120   6.730  15.580
   18BOLB   C1B  417  11.310   6.250  16.110
   18BOLB   C2B  418  11.190   6.670  15.990
   18BOLB   C3B  419  11.030   6.920  16.270
   18BOLB   C4B  420  10.890   7.200  16.530
   18BOLB   NC2  421  13.810   5.080  16.800
   18BOLB   PO2  422  13.850   5.390  16.520
   18BOLB   GL3  423  13.720   5.810  16.430
   18BOLB   GL4  424  13.910   6.120  16.520
   18BOLB   C1C  425  13.400   6.090  16.220
   18BOLB   C2C  426  13.160   6.400  16.060
   18BOLB   C3C  427  12.820   6.720  15.950
   18BOLB   C4C  428  12.520   6.960  15.800
   18BOLB   C1D  429  14.120   6.470  16.280
   18BOLB   C2D  430  14.080   6.940  16.230
   18BOLB   C3D  431  14.260   7.290  15.980
   18BOLB   C4D  432  13.790   7.550  15.870
   19BOLB   NC1  433  23.500  18.910  11.500
   19BOLB   PO1  434  24.020  18.830  11.680
   19BOLB   GL1  435  24.460  19.030  11.670
   19BOLB   GL2  436  24.480  19.260  11.990
   19BOLB   C1A  437  24.700  19.410  11.500
   19BOLB   C2A  438  25.080  19.660  11.600
   19BOLB   C3A  439  25.230  19.970  11.770
   19BOLB   C4A  440  25.270  20.040  12.160
   19BOLB   C1B  441  24.840  19.620  12.150
   19BOLB   C2B  442  25.240  19.570  12.310
   19BOLB   C3B  443  25.520  19.630  12.050
   19BOLB   C4B  444  25.850  19.820  11.970
   19BOLB   NC2  445  27.570  21.250  13.110
   19BOLB   PO2  446  27.500  20.860  12.800
   19BOLB   GL3  447  27.140  20.550  12.980
   19BOLB   GL4  448  27.000  20.660  12.670
   19BOLB   C1C  449  26.670  20.390  13.100
   19BOLB   C2C  450  26.310  20.210  12.950
   19BOLB   C3C  451  25.930  20.180  12.720
   19BOLB   C4C  452  25.620  20.050  12.380
   19BOLB   C1D  453  26.740  20.910  12.840
   19BOLB   C2D  454  26.640  21.270  13.070
   19BOLB   C3D  455  26.360  21.670  13.320
   19BOLB   C4D  456  26.130  22.020  13.420
   20BOLB   NC1  457  22.310  20.090  16.620
   20BOLB   PO1  458  21.790  20.000  16.740
   20BOLB   GL1  459  22.130  20.010  17.080
   20BOLB   GL2  460  22.060  19.750  17.270
   20BOLB   C1A  461  22.550  20.120  17.240
   20BOLB   C2A  462  22.880  20.200  17.310
   20BOLB   C3A  463  23.120  20.310  17.730
   20BOLB   C4A  464  23.120  20.200  18.210
   20BOLB   C1B  465  22.380  19.620  17.500
   20BOLB   C2B  466  22.440  19.200  17.740
   20BOLB   C3B  467  22.640  18.960  18.070
   20BOLB   C4B  468  22.960  18.880  18.230
   20BOLB   NC2  469  25.100  20.180  19.360
   20BOLB   PO2  470  24.930  20.590  19.550
   20BOLB   GL3  471  24.530  20.510  19.420
   20BOLB   GL4  472  24.550  20.240  19.520
   20BOLB   C1C  473  24.370  20.510  18.980
   20BOLB   C2C  474  24.140  20.610  18.590
   20BOLB   C3C  475  23.720  20.530  18.590
   20BOLB   C4C  476  23.350  20.270  18.590
   20BOLB   C1D  477  24.100  20.060  19.510
   20BOLB   C2D  478  23.710  20.240  19.490
   20BOLB   C3D  479  23.470  20.530  19.260
   20BOLB   C4D  480  23.080  20.530  19.010
   21BOLB   NC1  481  19.300  20.840  19.260
   21BOLB   PO1  482  19.580  20.580  19.090
   21BOLB   GL1  483  19.700  20.580  19.520
   21BOLB   GL2  484  19.540  20.680  19.790
   21BOLB   C1A  485  20.030  20.640  19.880
   21BOLB   C2A  486  20.400  20.480  20.070
   21BOLB   C3A  487  20.730  20.530  20.300
   21BOLB   C4A  488  21.100  20.580  20.410
   21BOLB   C1B  489  19.430  20.920  20.140
   21BOLB   C2B  490  19.510  21.160  20.400
   21BOLB   C3B  491  19.640  21.550  20.720
   21BOLB   C4B  492  19.550  21.920  20.850
   21BOLB   NC2  493  22.870  21.350  21.640
   21BOLB   PO2  494  22.650  20.990  21.860
   21BOLB   GL3  495  22.560  20.970  21.470
   21BOLB   GL4  496  22.790  21.030  21.250
   21BOLB   C1C  497  22.260  20.810  21.280
   21BOLB   C2C  498  21.900  20.660  21.120
   21BOLB   C3C  499  21.780  20.630  20.660
   21BOLB   C4C  500  21.420  20.450  20.550
   21BOLB   C1D  501  22.550  21.410  21.080
   21BOLB   C2D  502  22.620  21.850  20.860
   21BOLB   C3D  503  22.330  21.920  20.640
   21BOLB   C4D  504  21.960  21.740  20.330
   22BOLB   NC1  505  23.000  13.210  21.110
   22BOLB   PO1  506  23.010  13.010  20.670
   22BOLB   GL1  507  22.930  13.090  20.260
   22BOLB   GL2  508  23.170  12.900  20.040
   22BOLB   C1A  509  22.630  13.170  19.990
   22BOLB   C2A  510  22.260  13.080  19.840
   22BOLB   C3A  511  21.810  13.010  19.690
   22BOLB   C4A  512  21.720  12.560  19.680
   22BOLB   C1B  513  22.920  12.790  19.830
   22BOLB   C2B  514  22.530  12.700  19.890
   22BOLB   C3B  515  22.190  12.460  19.710
   22BOLB   C4B  516  21.890  12.120  19.990
   22BOLB   NC2  517  23.140  11.730  20.270
   22BOLB   PO2  518  23.050  11.240  20.440
   22BOLB   GL3  519  23.010  11.290  19.960
   22BOLB   GL4  520  23.000  11.110  19.600
   22BOLB   C1C  521  22.540  11.300  19.820
   22BOLB   C2C  522  22.400  11.680  19.610
   22BOLB   C3C  523  22.100  11.970  19.460
   22BOLB   C4C  524  21.680  12.130  19.530
   22BOLB   C1D  525  22.790  11.430  19.350
   22BOLB   C2D  526  22.580  11.710  19.120
   22BOLB   C3D  527  22.360  12.020  18.940
   22BOLB   C4D  528  21.900  12.150  18.920
   23BOLB   NC1  529   7.000   8.430  10.500
   23BOLB   PO1  530   6.820   8.530  10.950
   23BOLB   GL1  531   7.300   8.640  10.850
   23BOLB   GL2  532   7.530   8.570  10.620
   23BOLB   C1A  533   7.710   8.620  11.060
   23BOLB   C2A  534   8.010   8.950  11.160
   23BOLB   C3A  535   8.040   9.380  11.460
   23BOLB   C4A  536   8.160   9.710  11.200
   23BOLB   C1B  537   7.840   9.040  10.600
   23BOLB   C2B  538   7.960   9.440  10.830
   23BOLB   C3B  539   7.640   9.710  10.890
   23BOLB   C4B  540   7.280   9.820  10.930
   23BOLB   NC2  541   9.700  11.720  11.420
   23BOLB   PO2  542  10.110  11.610  11.550
   23BOLB   GL3  543   9.840  11.220  11.550
   23BOLB   GL4  544   9.590  11.190  11.260
   23BOLB   C1C  545   9.510  11.040  11.710
   23BOLB   C2C  546   9.080  10.780  11.700
   23BOLB   C3C  547   8.760  10.470  11.450
   23BOLB   C4C  548   8.390  10.200  11.110
   23BOLB   C1D  549   9.340  10.860  11.220
   23BOLB   C2D  550   9.250  10.490  11.140
   23BOLB   C3D  551   9.240  10.200  10.780
   23BOLB   C4D  552   9.110   9.820  10.760
   24BOLB   NC1  553  16.190   6.370  21.600
   24BOLB   PO1  554  16.140   6.630  22.010
   24BOLB   GL1  555  16.240   6.910  21.650
   24BOLB   GL2  556  16.170   7.180  21.770
   24BOLB   C1A  557  16.050   7.170  21.300
   24BOLB   C2A  558  15.690   7.320  20.980
   24BOLB   C3A  559  15.500   7.750  20.960
   24BOLB   C4A  560  15.110   7.750  21.220
   24BOLB   C1B  561  15.720   7.080  21.670
   24BOLB   C2B  562  15.440   7.080  21.320
   24BOLB   C3B  563  15.340   7.370  21.360
   24BOLB   C4B  564  15.740   7.560  21.450
   24BOLB   NC2  565  14.260   6.080  22.940
   24BOLB   PO2  566  14.490   6.540  23.120
   24BOLB   GL3  567  14.360   6.610  22.640
   24BOLB   GL4  568  14.450   6.400  22.330
   24BOLB   C1C  569  14.300   6.880  22.380
   24BOLB   C2C  570  14.370   7.120  22.000
   24BOLB   C3C  571  14.530   7.350  21.700
   24BOLB   C4C  572  14.930   7.620  21.630
   24BOLB   C1D  573  14.690   6.600  21.980
   24BOLB   C2D  574  14.500   6.880  21.570
   24BOLB   C3D  575  14.350   7.020  21.280
   24BOLB   C4D  576  14.000   7.350  21.230
   25BOLB   NC1  577   8.540  12.830  25.540
   25BOLB   PO1  578   8.370  13.200  25.520
   25BOLB   GL1  579   8.570  13.610  25.400
   25BOLB   GL2  580   8.590  13.890  25.630
   25BOLB   C1A  581   8.920  13.670  25.080
   25BOLB   C2A  582   8.960  13.240  24.670
   25BOLB   C3A  583   9.270  13.140  24.310
   25BOLB   C4A  584   9.540  12.940  23.970
   25BOLB   C1B  585   8.710  14.160  25.220
   25BOLB   C2B  586   9.060  14.180  24.930
   25BOLB   C3B  587   9.260  14.220  24.470
   25BOLB   C4B  588   9.440  13.950  24.230
   25BOLB   NC2  589  10.240  12.710  26.330
   25BOLB   PO2  590  10.210  12.420  26.090
   25BOLB   GL3  591  10.110  12.650  25.740
   25BOLB   GL4  592   9.890  12.930  25.910
   25BOLB   C1C  593  10.220  12.670  25.290
   25BOLB   C2C  594  10.250  12.620  24.820
   25BOLB   C3C  595  10.030  12.900  24.490
   25BOLB   C4C  596   9.940  12.860  24.150
   25BOLB   C1D  597  10.040  13.120  25.570
   25BOLB   C2D  598  10.230  13.430  25.220
   25BOLB   C3D  599  10.510  13.610  24.890
   25BOLB   C4D  600  10.790  13.560  24.530
   26BOLB   NC1  601  19.140  12.620  25.080
   26BOLB   PO1  602  18.780  12.810  25.030
   26BOLB   GL1  603  18.580  12.480  24.810
   26BOLB   GL2  604  18.400  12.240  24.830
   26BOLB   C1A  605  18.600  12.480  24.400
   26BOLB   C2A  606  18.270  12.510  24.140
   26BOLB   C3A  607  17.950  12.360  24.010
   26BOLB   C4A  608  17.460  12.280  23.800
   26BOLB   C1B  609  18.040  12.500  24.710
   26BOLB   C2B  610  17.760  12.600  24.390
   26BOLB   C3B  611  17.410  12.590  24.220
   26BOLB   C4B  612  17.020  12.670  24.070
   26BOLB   NC2  613  17.160  10.980  26.450
   26BOLB   PO2  614  17.390  11.050  26.010
   26BOLB   GL3  615  17.360  11.280  25.620
   26BOLB   GL4  616  17.660  11.390  25.480
   26BOLB   C1C  617  17.110  11.350  25.140
   26BOLB   C2C  618  17.010  11.530  24.850
   26BOLB   C3C  619  17.060  11.820  24.440
   26BOLB   C4C  620  17.120  12.090  24.080
   26BOLB   C1D  621  17.390  11.780  25.380
   26BOLB   C2D  622  17.170  11.990  25.670
   26BOLB   C3D  623  16.850  11.900  25.800
   26BOLB   C4D  624  16.430  12.050  26.000
   27BOLB   NC1  625  24.420  25.180  17.950
   27BOLB   PO1  626  24.040  25.110  17.750
   27BOLB   GL1  627  23.840  24.700  17.680
   27BOLB   GL2  628  23.970  24.820  17.280
   27BOLB   C1A  629  23.530  24.380  17.780
   27BOLB   C2A  630  23.180  24.190  17.610
   27BOLB   C3A  631  22.740  24.120  17.730
   27BOLB   C4A  632  22.360  23.960  17.590
   27BOLB   C1B  633  23.880  24.450  17.020
   27BOLB   C2B  634  23.620  24.190  17.080
   27BOLB   C3B  635  23.090  24.120  17.040
   27BOLB   C4B  636  22.650  24.040  17.110
   27BOLB   NC2  637  20.240  22.980  16.550
   27BOLB   PO2  638  20.410  22.600  16.840
   27BOLB   GL3  639  20.700  22.750  17.060
   27BOLB   GL4  640  20.940  22.560  16.960
   27BOLB   C1C  641  20.980  22.980  17.270
   27BOLB   C2C  642  21.260  23.210  17.100
   27BOLB   C3C  643  21.600  23.460  17.270
   27BOLB   C4C  644  21.970  23.730  17.530
   27BOLB   C1D  645  21.310  22.650  17.100
   27BOLB   C2D  646  21.610  22.820  17.410
   27BOLB   C3D  647  21.680  23.080  17.690
   27BOLB   C4D  648  21.870  23.150  18.070
   28BOLB   NC1  649  10.070  14.570  13.510
   28BOLB   PO1  650  10.080  14.190  13.190
   28BOLB   GL1  651   9.800  13.840  13.090
   28BOLB   GL2  652  10.050  13.700  13.130
   28BOLB   C1A  653   9.460  13.720  13.180
   28BOLB   C2A  654   9.000  13.670  13.320
   28BOLB   C3A  655   8.670  14.020  13.520
   28BOLB   C4A  656   8.300  14.130  13.490
   28BOLB   C1B  657   9.720  13.350  13.260
   28BOLB   C2B  658   9.320  13.320  13.500
   28BOLB   C3B  659   8.820  13.300  13.520
   28BOLB   C4B  660   8.610  13.000  13.760
   28BOLB   NC2  661   9.380  14.720  12.310
   28BOLB   PO2  662   9.120  15.000  11.930
   28BOLB   GL3  663   8.790  15.090  12.080
   28BOLB   GL4  664   8.700  14.730  12.120
   28BOLB   C1C  665   8.260  15.030  12.300
   28BOLB   C2C  666   8.080  14.950  12.710
   28BOLB   C3C  667   7.880  14.740  13.000
   28BOLB   C4C  668   7.990  14.490  13.330
   28BOLB   C1D  669   8.640  14.720  12.600
   28BOLB   C2D  670   8.440  14.780  12.940
   28BOLB   C3D  671   8.320  14.850  13.260
   28BOLB   C4D  672   8.140  15.020  13.580
   29BOLB   NC1  673  18.720   8.560   2.740
   29BOLB   PO1  674  18.960   8.590   2.990
   29BOLB   GL1  675  18.640   8.770   3.270
   29BOLB   GL2  676  18.580   9.130   3.070
   29BOLB   C1A  677  18.270   8.740   3.430
   29BOLB   C2A  678  17.960   8.880   3.690
   29BOLB   C3A  679  17.740   9.170   3.900
   29BOLB   C4A  680  17.430   9.090   4.200
   29BOLB   C1B  681  18.780   9.420   3.310
   29BOLB   C2B  682  18.800   9.530   3.800
   29BOLB   C3B  683  19.010   9.500   4.200
   29BOLB   C4B  684  19.480   9.480   4.420
   29BOLB   NC2  685  18.160   7.350   3.620
   29BOLB   PO2  686  18.600   7.640   3.600
   29BOLB   GL3  687  18.550   7.950   3.820
   29BOLB   GL4  688  18.750   7.970   4.070
   29BOLB   C1C  689  18.200   7.860   4.090
   29BOLB   C2C  690  17.710   8.060   4.060
   29BOLB   C3C  691  17.420   8.260   4.390
   29BOLB   C4C  692  17.320   8.710   4.390
   29BOLB   C1D  693  18.810   8.340   4.340
   29BOLB   C2D  694  18.820   8.690   4.650
   29BOLB   C3D  695  18.730   9.050   4.930
   29BOLB   C4D  696  18.430   9.350   5.010
   30BOLB   NC1  697   6.060  25.280  20.950
   30BOLB   PO1  698   6.380  25.440  21.240
   30BOLB   GL1  699   6.580  25.110  21.020
   30BOLB   GL2  700   6.400  24.920  20.960
   30BOLB   C1A  701   6.900  24.870  20.870
   30BOLB   C2A  702   7.220  24.540  20.880
   30BOLB   C3A  703   7.530  24.360  21.150
   30BOLB   C4A  704   7.420  24.340  21.600
   30BOLB   C1B  705   6.040  24.620  20.750
   30BOLB   C2B  706   5.740  24.500  20.540
   30BOLB   C3B  707   5.340  24.840  20.620
   30BOLB   C4B  708   5.290  25.190  20.430
   30BOLB   NC2  709   6.120  23.850  23.470
   30BOLB   PO2  710   5.940  24.240  23.330
   30BOLB   GL3  711   6.360  24.240  23.150
   30BOLB   GL4  712   6.540  23.960  23.160
   30BOLB   C1C  713   6.660  24.480  22.930
   30BOLB   C2C  714   7.080  24.570  22.730
   30BOLB   C3C  715   7.460  24.430  22.500
   30BOLB   C4C  716   7.570  24.280  22.060
   30BOLB   C1D  717   6.860  23.830  22.950
   30BOLB   C2D  718   7.200  23.560  22.850
   30BOLB   C3D  719   7.470  23.510  22.550
   30BOLB   C4D  720   7.300  23.490  22.150
   31BOLB   NC1  721  22.420  12.550  13.440
   31BOLB   PO1  722  22.630  12.550  13.010
   31BOLB   GL1  723  22.980  12.250  13.300
   31BOLB   GL2  724  22.920  12.430  13.530
   31BOLB   C1A  725  23.320  12.090  13.320
   31BOLB   C2A  726  23.330  11.730  13.610
   31BOLB   C3A  727  23.760  11.540  13.770
   31BOLB   C4A  728  23.900  11.460  14.170
   31BOLB   C1B  729  23.160  12.300  13.800
   31BOLB   C2B  730  23.610  12.100  14.030
   31BOLB   C3B  731  24.030  12.070  13.950
   31BOLB   C4B  732  24.270  11.860  14.280
   31BOLB   NC2  733  25.010  10.120  16.570
   31BOLB   PO2  734  24.850  10.360  16.290
   31BOLB   GL3  735  24.480  10.600  16.200
   31BOLB   GL4  736  24.730  10.830  15.930
   31BOLB   C1C  737  24.130  10.790  15.960
   31BOLB   C2C  738  24.030  11.100  15.550
   31BOLB   C3C  739  23.930  11.180  15.070
   31BOLB   C4C  740  23.790  11.250  14.530
   31BOLB   C1D  741  24.600  10.950  15.540
   31BOLB   C2D  742  24.310  10.810  15.210
   31BOLB   C3D  743  24.180  10.840  14.810
   31BOLB   C4D  744  24.070  10.780  14.430
   32BOLB   NC1  745   3.200  21.080  11.870
   32BOLB   PO1  746   3.520  21.220  11.990
   32BOLB   GL1  747   3.900  21.290  12.300
   32BOLB   GL2  748   3.900  21.590  12.630
   32BOLB   C1A  749   4.250  21.250  12.480
   32BOLB   C2A  750   4.560  21.220  12.840
   32BOLB   C3A  751   4.600  21.270  13.250
   32BOLB   C4A  752   4.370  21.100  13.550
   32BOLB   C1B  753   3.970  21.190  12.920
   32BOLB   C2B  754   3.780  20.800  12.910
   32BOLB   C3B  755   4.070  20.450  12.890
   32BOLB   C4B  756   4.480  20.310  12.810
   32BOLB   NC2  757   3.220  22.210  13.670
   32BOLB   PO2  758   3.200  22.390  14.090
   32BOLB   GL3  759   3.490  22.320  14.480
   32BOLB   GL4  760   3.460  22.690  14.480
   32BOLB   C1C  761   3.810  22.010  14.640
   32BOLB   C2C  762   4.040  21.740  14.430
   32BOLB   C3C  763   4.190  21.480  14.090
   32BOLB   C4C  764   4.110  21.250  13.810
   32BOLB   C1D  765   3.870  22.710  14.310
   32BOLB   C2D  766   4.110  22.300  14.210
   32BOLB   C3D  767   4.400  21.950  14.110
   32BOLB   C4D  768   4.840  21.880  14.310
   33BOLB   NC1  769   3.340  20.270  21.820
   33BOLB   PO1  770   3.500  19.950  22.090
   33BOLB   GL1  771   3.890  19.790  21.920
   33BOLB   GL2  772   4.120  19.800  22.160
   33BOLB   C1A  773   4.230  19.800  21.600
   33BOLB   C2A  774   4.520  19.870  21.300
   33BOLB   C3A  775   4.850  19.930  21.110
   33BOLB   C4A  776   5.170  19.970  21.360
   33BOLB   C1B  777   4.480  20.130  22.130
   33BOLB   C2B  778   4.580  20.590  22.040
   33BOLB   C3B  779   4.530  20.890  21.750
   33BOLB   C4B  780   4.740  21.260  21.600
   33BOLB   NC2  781   4.720  21.060  23.190
   33BOLB   PO2  782   4.950  20.740  23.010
   33BOLB   GL3  783   5.320  20.630  22.730
   33BOLB   GL4  784   5.170  20.320  22.750
   33BOLB   C1C  785   5.720  20.630  22.450
   33BOLB   C2C  786   5.920  20.370  22.120
   33BOLB   C3C  787   5.780  20.120  21.860
   33BOLB   C4C  788   5.500  20.100  21.470
   33BOLB   C1D  789   5.570  20.240  22.610
   33BOLB   C2D  790   5.560  19.980  22.300
   33BOLB   C3D  791   5.450  19.800  21.900
   33BOLB   C4D  792   5.180  19.460  21.730
   34BOLB   NC1  793  14.690  24.080  24.590
   34BOLB   PO1  794  14.680  23.690  24.700
   34BOLB   GL1  795  14.390  23.560  24.510
   34BOLB   GL2  796  14.400  23.810  24.250
   34BOLB   C1A  797  13.990  23.510  24.640
   34BOLB   C2A  798  13.670  23.400  24.420
   34BOLB   C3A  799  13.670  22.870  24.230
   34BOLB   C4A  800  13.460  22.530  24.070
   34BOLB   C1B  801  13.960  23.670  24.080
   34BOLB   C2B  802  13.830  23.310  23.860
   34BOLB   C3B  803  13.820  22.970  23.760
   34BOLB   C4B  804  13.540  22.570  23.550
   34BOLB   NC2  805  14.140  22.370  26.330
   34BOLB   PO2  806  13.850  22.410  26.040
   34BOLB   GL3  807  13.820  22.380  25.660
   34BOLB   GL4  808  14.060  22.420  25.470
   34BOLB   C1C  809  13.600  22.120  25.320
   34BOLB   C2C  810  13.530  21.850  24.970
   34BOLB   C3C  811  13.460  21.800  24.550
   34BOLB   C4C  812  13.510  22.130  24.250
   34BOLB   C1D  813  14.110  22.240  25.110
   34BOLB   C2D  814  14.220  22.160  24.630
   34BOLB   C3D  815  13.980  22.170  24.330
   34BOLB   C4D  816  14.020  22.380  23.940
   35BOLB   NC1  817  13.060  26.240  22.550
   35BOLB   PO1  818  12.780  25.960  22.500
   35BOLB   GL1  819  12.570  25.590  22.160
   35BOLB   GL2  820  12.740  25.330  22.080
   35BOLB   C1A  821  12.250  25.280  21.950
   35BOLB   C2A  822  12.220  25.130  21.430
   35BOLB   C3A  823  12.590  24.870  21.300
   35BOLB   C4A  824  12.870  24.780  21.610
   35BOLB   C1B  825  12.590  24.930  22.040
   35BOLB   C2B  826  12.310  24.800  21.780
   35BOLB   C3B  827  12.010  24.420  21.720
   35BOLB   C4B  828  12.160  23.990  21.530
   35BOLB   NC2  829  13.410  26.210  21.760
   35BOLB   PO2  830  13.760  26.150  21.860
   35BOLB   GL3  831  13.760  25.830  21.640
   35BOLB   GL4  832  13.400  25.680  21.670
   35BOLB   C1C  833  13.860  25.520  21.190
   35BOLB   C2C  834  13.940  25.130  21.000
   35BOLB   C3C  835  13.750  24.820  21.040
   35BOLB   C4C  836  13.350  24.690  21.380
   35BOLB   C1D  837  13.540  25.260  21.570
   35BOLB   C2D  838  13.740  24.790  21.660
   35BOLB   C3D  839  13.720  24.400  21.860
   35BOLB   C4D  840  13.880  23.990  22.060
   36BOLB   NC1  841  19.400  23.580  22.580
   36BOLB   PO1  842  19.000  23.520  22.720
   36BOLB   GL1  843  19.010  23.280  22.490
   36BOLB   GL2  844  19.070  22.890  22.590
   36BOLB   C1A  845  18.770  23.280  22.130
   36BOLB   C2A  846  18.740  23.500  21.720
   36BOLB   C3A  847  18.540  23.410  21.300
   36BOLB   C4A  848  18.350  23.650  20.930
   36BOLB   C1B  849  19.110  22.600  22.140
   36BOLB   C2B  850  19.310  22.550  21.730
   36BOLB   C3B  851  19.110  22.750  21.300
   36BOLB   C4B  852  18.910  22.720  20.840
   36BOLB   NC2  853  17.610  25.990  21.210
   36BOLB   PO2  854  17.720  25.880  21.650
   36BOLB   GL3  855  17.680  25.550  21.390
   36BOLB   GL4  856  17.440  25.500  21.320
   36BOLB   C1C  857  17.920  25.300  21.170
   36BOLB   C2C  858  17.950  24.940  21.080
   36BOLB   C3C  859  18.010  24.580  21.030
   36BOLB   C4C  860  18.100  24.060  21.030
   36BOLB   C1D  861  17.500  25.230  20.880
   36BOLB   C2D  862  17.220  24.880  20.620
   36BOLB   C3D  863  17.080  24.640  20.290
   36BOLB   C4D  864  16.950  24.190  20.230
   37BOLB   NC1  865  10.050   5.510  18.920
   37BOLB   PO1  866   9.900   5.440  18.500
   37BOLB   GL1  867   9.870   5.820  18.580
   37BOLB   GL2  868   9.520   5.910  18.560
   37BOLB   C1A  869   9.760   6.290  18.270
   37BOLB   C2A  870  10.000   6.710  18.260
   37BOLB   C3A  871  10.070   7.010  18.490
   37BOLB   C4A  872   9.950   7.020  18.890
   37BOLB   C1B  873   9.260   6.300  18.510
   37BOLB   C2B  874   9.220   6.740  18.360
   37BOLB   C3B  875   8.870   7.000  18.130
   37BOLB   C4B  876   8.500   7.030  17.920
   37BOLB   NC2  877  10.390   5.270  20.650
   37BOLB   PO2  878  10.080   5.440  20.320
   37BOLB   GL3  879  10.230   5.870  20.180
   37BOLB   GL4  880  10.090   5.930  19.830
   37BOLB   C1C  881  10.270   6.330  20.210
   37BOLB   C2C  882  10.360   6.700  20.040
   37BOLB   C3C  883  10.180   6.890  19.700
   37BOLB   C4C  884   9.920   6.800  19.390
   37BOLB   C1D  885  10.430   6.150  19.740
   37BOLB   C2D  886  10.700   6.590  19.700
   37BOLB   C3D  887  10.650   6.960  19.540
   37BOLB   C4D  888  10.410   7.180  19.190
   38BOLB   NC1  889  19.920   9.330   2.960
   38BOLB   PO1  890  20.290   9.430   3.210
   38BOLB   GL1  891  20.090   9.800   3.480
   38BOLB   GL2  892  20.260   9.720   3.790
   38BOLB   C1A  893  19.800   9.960   3.770
   38BOLB   C2A  894  19.710  10.250   4.130
   38BOLB   C3A  895  19.910  10.550   4.320
   38BOLB   C4A  896  20.300  10.720   4.620
   38BOLB   C1B  897  20.290  10.030   4.020
   38BOLB   C2B  898  20.330  10.220   4.420
   38BOLB   C3B  899  20.290  10.030   4.750
   38BOLB   C4B  900  20.100   9.930   4.990
   38BOLB   NC2  901  21.850  10.280   3.080
   38BOLB   PO2  902  21.860  10.150   3.450
   38BOLB   GL3  903  21.980  10.160   3.940
   38BOLB   GL4  904  22.230  10.340   3.980
   38BOLB   C1C  905  21.690  10.230   4.230
   38BOLB   C2C  906  21.560  10.560   4.400
   38BOLB   C3C  907  21.170  10.800   4.510
   38BOLB   C4C  908  20.720  10.900   4.560
   38BOLB   C1D  909  22.090  10.580   4.310
   38BOLB   C2D  910  21.910  10.900   4.580
   38BOLB   C3D  911  21.850  11.090   4.930
   38BOLB   C4D  912  21.490  11.390   5.150
   39BOLB   NC1  913   8.190  25.790  23.370
   39BOLB   PO1  914   8.500  25.650  23.080
   39BOLB   GL1  915   8.450  25.580  22.790
   39BOLB   GL2  916   8.480  25.870  22.610
   39BOLB   C1A  917   8.380  25.160  22.590
   39BOLB   C2A  918   8.330  24.720  22.390
   39BOLB   C3A  919   8.470  24.380  22.340
   39BOLB   C4A  920   8.880  24.160  22.520
   39BOLB   C1B  921   8.410  25.700  22.230
   39BOLB   C2B  922   8.410  25.250  22.060
   39BOLB   C3B  923   8.100  24.900  21.990
   39BOLB   C4B  924   7.700  24.760  21.850
   39BOLB   NC2  925   7.300  24.910  23.760
   39BOLB   PO2  926   7.010  24.960  23.490
   39BOLB   GL3  927   7.290  24.730  23.270
   39BOLB   GL4  928   7.470  24.950  22.970
   39BOLB   C1C  929   7.780  24.710  23.290
   39BOLB   C2C  930   8.260  24.560  23.290
   39BOLB   C3C  931   8.720  24.470  23.350
   39BOLB   C4C  932   8.900  24.350  23.050
   39BOLB   C1D  933   7.430  24.920  22.580
   39BOLB   C2D  934   7.280  24.810  22.250
   39BOLB   C3D  935   7.020  24.410  22.250
   39BOLB   C4D  936   6.810  24.160  22.540
   40BOLB   NC1  937  18.000  21.680  19.260
   40BOLB   PO1  938  18.220  22.050  19.150
   40BOLB   GL1  939  18.620  22.160  19.420
   40BOLB   GL2  940  18.740  22.470  19.360
   40BOLB   C1A  941  18.760  22.250  19.840
   40BOLB   C2A  942  19.120  22.530  20.060
   40BOLB   C3A  943  19.350  22.560  20.370
   40BOLB   C4A  944  19.750  22.500  20.630
   40BOLB   C1B  945  19.230  22.300  19.610
   40BOLB   C2B  946  19.560  22.650  19.740
   40BOLB   C3B  947  19.980  22.810  19.800
   40BOLB   C4B  948  20.360  23.060  19.910
   40BOLB   NC2  949  20.910  23.400  22.410
   40BOLB   PO2  950  20.790  22.930  22.520
   40BOLB   GL3  951  20.660  22.940  22.100
   40BOLB   GL4  952  20.860  22.760  21.840
   40BOLB   C1C  953  20.310  22.880  21.810
   40BOLB   C2C  954  20.080  22.990  21.420
   40BOLB   C3C  955  19.990  22.990  21.060
   40BOLB   C4C  956  20.010  22.810  20.660
   40BOLB   C1D  957  20.610  22.900  21.360
   40BOLB   C2D  958  20.420  22.860  20.960
   40BOLB   C3D  959  20.490  22.760  20.560
   40BOLB   C4D  960  20.250  22.700  20.210
   41BOLB   NC1  961  23.780  12.800   3.020
   41BOLB   PO1  962  23.450  13.150   2.830
   41BOLB   GL1  963  23.220  13.560   3.010
   41BOLB   GL2  964  23.510  13.470   3.210
   41BOLB   C1A  965  22.750  13.630   3.190
   41BOLB   C2A  966  22.550  13.550   3.590
   41BOLB   C3A  967  22.080  13.540   3.640
   41BOLB   C4A  968  21.810  13.620   3.930
   41BOLB   C1B  969  23.140  13.530   3.550
   41BOLB   C2B  970  22.900  13.650   3.910
   41BOLB   C3B  971  22.540  13.750   4.150
   41BOLB   C4B  972  22.380  13.940   4.480
   41BOLB   NC2  973  19.830  13.730   5.770
   41BOLB   PO2  974  20.250  13.770   5.880
   41BOLB   GL3  975  20.470  13.500   5.550
   41BOLB   GL4  976  20.300  13.310   5.700
   41BOLB   C1C  977  20.660  13.560   5.160
   41BOLB   C2C  978  20.910  13.720   4.940
   41BOLB   C3C  979  21.360  13.660   4.790
   41BOLB   C4C  980  21.560  13.570   4.400
   41BOLB   C1D  981  20.240  13.070   5.310
   41BOLB   C2D  982  20.120  12.900   4.880
   41BOLB   C3D  983  19.630  12.800   4.780
   41BOLB   C4D  984  19.290  12.940   4.620
   42BOLB   NC1  985  18.590  14.360  19.110
   42BOLB   PO1  986  18.550  13.920  19.350
   42BOLB   GL1  987  18.560  13.620  19.680
   42BOLB   GL2  988  18.220  13.580  19.910
   42BOLB   C1A  989  18.680  13.320  19.920
   42BOLB   C2A  990  18.660  13.200  20.380
   42BOLB   C3A  991  18.680  12.900  20.700
   42BOLB   C4A  992  19.210  12.890  20.760
   42BOLB   C1B  993  18.440  13.650  20.300
   42BOLB   C2B  994  18.780  13.680  20.620
   42BOLB   C3B  995  19.190  13.540  20.510
   42BOLB   C4B  996  19.530  13.380  20.640
   42BOLB   NC2  997  20.300  12.870  22.700
   42BOLB   PO2  998  20.640  12.830  22.430
   42BOLB   GL3  999  20.310  12.780  22.210
   42BOLB   GL4 1000  20.170  13.080  22.290
   42BOLB   C1C 1001  20.170  12.560  21.910
   42BOLB   C2C 1002  20.020  12.590  21.430
   42BOLB   C3C 1003  19.900  12.770  21.110
   42BOLB   C4C 1004  19.620  12.790  20.770
   42BOLB   C1D 1005  19.890  12.960  21.870
   42BOLB   C2D 1006  19.620  12.930  21.540
   42BOLB   C3D 1007  19.410  12.710  21.240
   42BOLB   C4D 1008  19.320  12.430  21.010
   43BOLB   NC1 1009   6.280  21.660  24.730
   43BOLB   PO1 1010   6.440  21.970  24.440
   43BOLB   GL1 1011   6.790  21.760  24.630
   43BOLB   GL2 1012   6.940  21.820  24.310
   43BOLB   C1A 1013   7.200  21.430  24.430
   43BOLB   C2A 1014   7.530  21.280  24.300
   43BOLB   C3A 1015   7.720  21.170  24.010
   43BOLB   C4A 1016   7.480  20.750  23.930
   43BOLB   C1B 1017   6.960  21.970  23.920
   43BOLB   C2B 1018   6.910  21.940  23.580
   43BOLB   C3B 1019   7.230  21.890  23.250
   43BOLB   C4B 1020   7.430  22.090  22.930
   43BOLB   NC2 1021   5.250  20.960  24.660
   43BOLB   PO2 1022   5.600  21.090  24.290
   43BOLB   GL3 1023   5.950  21.210  24.110
   43BOLB   GL4 1024   6.240  21.420  24.040
   43BOLB   C1C 1025   6.080  21.110  23.660
   43BOLB   C2C 1026   6.270  20.690  23.520
   43BOLB   C3C 1027   6.630  20.600  23.750
   43BOLB   C4C 1028   7.080  20.580  23.880
   43BOLB   C1D 1029   6.610  21.590  23.900
   43BOLB   C2D 1030   6.920  21.440  23.490
   43BOLB   C3D 1031   6.910  21.260  23.110
   43BOLB   C4D 1032   6.790  21.280  22.640
   44BOLB   NC1 1033  12.420  10.340  26.670
   44BOLB   PO1 1034  12.470  10.760  26.900
   44BOLB   GL1 1035  12.630  10.880  26.390
   44BOLB   GL2 1036  13.010  10.900  26.340
   44BOLB   C1A 1037  12.800  11.130  26.000
   44BOLB   C2A 1038  12.750  11.360  25.710
   44BOLB   C3A 1039  12.630  11.590  25.310
   44BOLB   C4A 1040  12.280  11.600  25.060
   44BOLB   C1B 1041  13.200  10.830  25.920
   44BOLB   C2B 1042  13.160  11.110  25.500
   44BOLB   C3B 1043  13.160  11.380  25.250
   44BOLB   C4B 1044  12.870  11.600  24.890
   44BOLB   NC2 1045  10.970  10.260  25.940
   44BOLB   PO2 1046  11.140  10.040  25.530
   44BOLB   GL3 1047  11.160  10.540  25.530
   44BOLB   GL4 1048  11.590  10.650  25.550
   44BOLB   C1C 1049  11.120  10.830  25.270
   44BOLB   C2C 1050  11.270  11.110  24.950
   44BOLB   C3C 1051  11.650  11.280  24.830
   44BOLB   C4C 1052  12.050  11.510  24.810
   44BOLB   C1D 1053  11.680  10.780  25.070
   44BOLB   C2D 1054  12.010  10.810  24.980
   44BOLB   C3D 1055  12.470  10.700  25.000
   44BOLB   C4D 1056  12.570  10.340  25.080
   45BOLB   NC1 1057  10.450  13.040  27.030
   45BOLB   PO1 1058  10.760  12.880  27.170
   45BOLB   GL1 1059  10.860  12.790  26.810
   45BOLB   GL2 1060  10.600  12.850  26.620
   45BOLB   C1A 1061  11.110  12.760  26.430
   45BOLB   C2A 1062  11.480  12.530  26.380
   45BOLB   C3A 1063  11.690  12.440  25.910
   45BOLB   C4A 1064  11.720  12.380  25.500
   45BOLB   C1B 1065  10.790  13.060  26.220
   45BOLB   C2B 1066  11.060  13.360  26.080
   45BOLB   C3B 1067  11.450  13.620  26.120
   45BOLB   C4B 1068  11.410  13.960  26.390
   45BOLB   NC2 1069  10.320  11.330  25.800
   45BOLB   PO2 1070  10.670  11.250  25.920
   45BOLB   GL3 1071  10.760  11.650  25.780
   45BOLB   GL4 1072  10.700  12.020  25.950
   45BOLB   C1C 1073  10.800  11.900  25.310
   45BOLB   C2C 1074  10.940  12.030  24.870
   45BOLB   C3C 1075  11.350  12.320  24.810
   45BOLB   C4C 1076  11.640  12.260  25.060
   45BOLB   C1D 1077  10.510  12.300  25.530
   45BOLB   C2D 1078  10.740  12.410  25.130
   45BOLB   C3D 1079  10.760  12.620  24.760
   45BOLB   C4D 1080  10.600  13.050  24.560
   46BOLB   NC1 1081   6.860   5.250  17.060
   46BOLB   PO1 1082   7.150   5.580  17.140
   46BOLB   GL1 1083   7.280   6.030  16.990
   46BOLB   GL2 1084   7.040   6.220  16.870
   46BOLB   C1A 1085   7.680   6.230  16.980
   46BOLB   C2A 1086   7.920   6.640  16.930
   46BOLB   C3A 1087   8.160   6.930  16.680
   46BOLB   C4A 1088   8.620   6.930  16.600
   46BOLB   C1B 1089   7.330   6.580  16.630
   46BOLB   C2B 1090   7.600   6.860  16.470
   46BOLB   C3B 1091   7.640   7.270  16.500
   46BOLB   C4B 1092   7.380   7.630  16.440
   46BOLB   NC2 1093   9.720   5.080  18.230
   46BOLB   PO2 1094   9.680   5.090  17.760
   46BOLB   GL3 1095   9.690   5.490  17.550
   46BOLB   GL4 1096   9.890   5.600  17.330
   46BOLB   C1C 1097   9.410   5.720  17.290
   46BOLB   C2C 1098   9.270   6.090  17.220
   46BOLB   C3C 1099   9.040   6.490  17.160
   46BOLB   C4C 1100   8.850   6.570  16.790
   46BOLB   C1D 1101  10.290   5.660  17.490
   46BOLB   C2D 1102  10.590   6.060  17.520
   46BOLB   C3D 1103  10.730   6.280  17.850
   46BOLB   C4D 1104  10.820   6.200  18.240
   47BOLB   NC1 1105  18.130   9.550  14.540
   47BOLB   PO1 1106  17.990   9.300  14.140
   47BOLB   GL1 1107  18.060   8.830  14.200
   47BOLB   GL2 1108  17.960   8.660  14.450
   47BOLB   C1A 1109  17.910   8.380  14.050
   47BOLB   C2A 1110  17.800   7.980  13.940
   47BOLB   C3A 1111  17.890   7.660  14.010
   47BOLB   C4A 1112  18.040   7.480  14.380
   47BOLB   C1B 1113  17.950   8.210  14.630
   47BOLB   C2B 1114  18.290   7.780  14.750
   47BOLB   C3B 1115  18.620   7.540  14.660
   47BOLB   C4B 1116  18.580   7.100  14.530
   47BOLB   NC2 1117  19.270   5.900  15.640
   47BOLB   PO2 1118  19.620   6.110  15.570
   47BOLB   GL3 1119  19.230   6.340  15.430
   47BOLB   GL4 1120  19.230   6.560  15.640
   47BOLB   C1C 1121  18.810   6.460  15.320
   47BOLB   C2C 1122  18.650   6.890  15.300
   47BOLB   C3C 1123  18.460   7.240  15.050
   47BOLB   C4C 1124  18.130   7.270  14.720
   47BOLB   C1D 1125  19.060   6.960  15.580
   47BOLB   C2D 1126  18.730   7.390  15.500
   47BOLB   C3D 1127  18.610   7.750  15.220
   47BOLB   C4D 1128  18.460   8.090  15.130
   48BOLB   NC1 1129  17.490  20.380  25.700
   48BOLB   PO1 1130  17.450  20.450  25.220
   48BOLB   GL1 1131  17.210  20.160  24.980
   48BOLB   GL2 1132  17.070  20.240  24.800
   48BOLB   C1A 1133  17.060  19.770  24.700
   48BOLB   C2A 1134  16.870  19.590  24.380
   48BOLB   C3A 1135  16.610  19.390  24.200
   48BOLB   C4A 1136  16.580  18.990  23.930
   48BOLB   C1B 1137  17.160  20.130  24.370
   48BOLB   C2B 1138  17.160  20.150  23.950
   48BOLB   C3B 1139  17.050  20.110  23.540
   48BOLB   C4B 1140  17.110  20.170  23.080
   48BOLB   NC2 1141  18.800  18.670  24.560
   48BOLB   PO2 1142  18.470  18.960  24.840
   48BOLB   GL3 1143  18.220  19.080  24.570
   48BOLB   GL4 1144  18.320  19.050  24.270
   48BOLB   C1C 1145  17.870  18.850  24.340
   48BOLB   C2C 1146  17.650  18.580  24.010
   48BOLB   C3C 1147  17.240  18.570  23.820
   48BOLB   C4C 1148  16.900  18.580  23.820
   48BOLB   C1D 1149  18.050  18.890  23.880
   48BOLB   C2D 1150  17.610  18.880  23.590
   48BOLB   C3D 1151  17.270  18.900  23.440
   48BOLB   C4D 1152  16.930  18.740  23.350
   49BOLB   NC1 1153  16.180  19.260  26.740
   49BOLB   PO1 1154  16.570  19.100  26.780
   49BOLB   GL1 1155  16.270  18.980  26.360
   49BOLB   GL2 1156  16.310  18.760  26.040
   49BOLB   C1A 1157  15.790  19.090  26.270
   49BOLB   C2A 1158  15.490  19.460  26.360
   49BOLB   C3A 1159  15.050  19.850  26.290
   49BOLB   C4A 1160  14.810  20.040  26.010
   49BOLB   C1B 1161  16.230  18.780  25.590
   49BOLB   C2B 1162  16.320  18.730  25.100
   49BOLB   C3B 1163  15.970  19.000  24.850
   49BOLB   C4B 1164  15.880  19.300  24.420
   49BOLB   NC2 1165  13.500  21.400  27.770
   49BOLB   PO2 1166  13.580  21.040  27.560
   49BOLB   GL3 1167  13.530  20.770  27.070
   49BOLB   GL4 1168  13.500  20.470  27.080
   49BOLB   C1C 1169  13.480  20.600  26.600
   49BOLB   C2C 1170  13.760  20.430  26.310
   49BOLB   C3C 1171  14.000  20.170  26.150
   49BOLB   C4C 1172  14.400  20.160  25.950
   49BOLB   C1D 1173  13.780  20.190  26.820
   49BOLB   C2D 1174  13.620  19.950  26.410
   49BOLB   C3D 1175  13.440  19.750  26.080
   49BOLB   C4D 1176  13.150  19.360  26.030
   50BOLB   NC1 1177  13.060  19.760  27.780
   50BOLB   PO1 1178  12.980  19.880  27.400
   50BOLB   GL1 1179  12.810  19.820  26.990
   50BOLB   GL2 1180  12.520  20.000  27.170
   50BOLB   C1A 1181  12.530  19.780  26.660
   50BOLB   C2A 1182  12.580  19.600  26.120
   50BOLB   C3A 1183  12.860  19.740  25.860
   50BOLB   C4A 1184  13.080  20.060  25.740
   50BOLB   C1B 1185  12.530  20.310  26.850
   50BOLB   C2B 1186  12.200  20.610  26.610
   50BOLB   C3B 1187  11.820  20.530  26.590
   50BOLB   C4B 1188  11.420  20.380  26.540
   50BOLB   NC2 1189  13.810  22.190  27.010
   50BOLB   PO2 1190  13.530  21.810  26.900
   50BOLB   GL3 1191  13.680  21.560  26.560
   50BOLB   GL4 1192  13.620  21.120  26.620
   50BOLB   C1C 1193  13.720  21.480  26.090
   50BOLB   C2C 1194  13.470  21.210  25.740
   50BOLB   C3C 1195  13.120  20.930  25.820
   50BOLB   C4C 1196  13.070  20.510  25.940
   50BOLB   C1D 1197  13.620  20.950  26.170
   50BOLB   C2D 1198  13.690  20.700  25.680
   50BOLB   C3D 1199  13.750  20.830  25.220
   50BOLB   C4D 1200  13.910  20.870  24.950
   51BOLB   NC1 1201  13.070   4.560  20.120
   51BOLB   PO1 1202  12.790   4.970  20.170
   51BOLB   GL1 1203  12.520   5.310  20.360
   51BOLB   GL2 1204  12.260   5.450  20.220
   51BOLB   C1A 1205  12.610   5.730  20.440
   51BOLB   C2A 1206  12.400   6.220  20.300
   51BOLB   C3A 1207  12.380   6.590  20.490
   51BOLB   C4A 1208  12.070   6.870  20.310
   51BOLB   C1B 1209  12.100   5.850  20.450
   51BOLB   C2B 1210  11.860   5.900  20.930
   51BOLB   C3B 1211  11.740   6.280  21.150
   51BOLB   C4B 1212  11.580   6.660  21.180
   51BOLB   NC2 1213  11.270   4.670  20.750
   51BOLB   PO2 1214  11.000   4.960  20.510
   51BOLB   GL3 1215  10.990   5.350  20.400
   51BOLB   GL4 1216  10.670   5.580  20.270
   51BOLB   C1C 1217  11.040   5.790  20.510
   51BOLB   C2C 1218  11.140   6.180  20.400
   51BOLB   C3C 1219  11.260   6.660  20.370
   51BOLB   C4C 1220  11.670   6.940  20.270
   51BOLB   C1D 1221  10.720   6.070  20.190
   51BOLB   C2D 1222  10.720   6.480  20.230
   51BOLB   C3D 1223  10.820   6.900  20.570
   51BOLB   C4D 1224  11.100   7.250  20.510
   52BOLB   NC1 1225  26.900  11.480  11.850
   52BOLB   PO1 1226  26.710  11.310  11.440
   52BOLB   GL1 1227  26.250  11.340  11.370
   52BOLB   GL2 1228  26.190  11.030  11.290
   52BOLB   C1A 1229  25.840  11.550  11.310
   52BOLB   C2A 1230  25.770  11.420  11.740
   52BOLB   C3A 1231  25.540  11.190  11.920
   52BOLB   C4A 1232  25.270  10.910  12.030
   52BOLB   C1B 1233  25.980  11.210  10.970
   52BOLB   C2B 1234  25.840  11.460  10.510
   52BOLB   C3B 1235  25.700  11.850  10.440
   52BOLB   C4B 1236  25.340  12.150  10.190
   52BOLB   NC2 1237  26.130   9.360  12.230
   52BOLB   PO2 1238  25.760   9.090  12.400
   52BOLB   GL3 1239  25.510   9.350  12.230
   52BOLB   GL4 1240  25.140   9.350  12.290
   52BOLB   C1C 1241  25.410   9.800  12.120
   52BOLB   C2C 1242  25.010  10.030  11.980
   52BOLB   C3C 1243  24.990  10.280  11.720
   52BOLB   C4C 1244  24.910  10.670  11.850
   52BOLB   C1D 1245  24.840   9.460  12.510
   52BOLB   C2D 1246  24.570   9.950  12.590
   52BOLB   C3D 1247  24.220  10.180  12.750
   52BOLB   C4D 1248  23.860  10.450  12.720
   53BOLB   NC1 1249   2.010  13.270  16.970
   53BOLB   PO1 1250   2.180  13.080  17.370
   53BOLB   GL1 1251   2.520  13.100  17.380
   53BOLB   GL2 1252   2.610  12.790  17.280
   53BOLB   C1A 1253   2.850  13.260  17.050
   53BOLB   C2A 1254   2.960  13.150  16.630
   53BOLB   C3A 1255   3.250  13.130  16.320
   53BOLB   C4A 1256   3.310  13.000  15.840
   53BOLB   C1B 1257   2.850  12.740  16.910
   53BOLB   C2B 1258   3.300  12.720  16.840
   53BOLB   C3B 1259   3.410  12.690  16.410
   53BOLB   C4B 1260   3.710  12.390  16.290
   53BOLB   NC2 1261   1.530  12.460  14.090
   53BOLB   PO2 1262   1.590  12.240  14.580
   53BOLB   GL3 1263   2.020  12.170  14.880
   53BOLB   GL4 1264   1.900  12.490  15.090
   53BOLB   C1C 1265   2.440  12.290  14.790
   53BOLB   C2C 1266   2.900  12.370  14.880
   53BOLB   C3C 1267   3.180  12.470  15.060
   53BOLB   C4C 1268   3.340  12.710  15.460
   53BOLB   C1D 1269   2.220  12.760  14.960
   53BOLB   C2D 1270   2.530  12.770  14.510
   53BOLB   C3D 1271   2.700  12.660  14.090
   53BOLB   C4D 1272   2.520  12.340  13.760
   54BOLB   NC1 1273  23.900  19.080  10.860
   54BOLB   PO1 1274  24.120  19.210  11.340
   54BOLB   GL1 1275  24.470  19.070  11.190
   54BOLB   GL2 1276  24.580  18.810  11.250
   54BOLB   C1A 1277  24.880  19.120  10.990
   54BOLB   C2A 1278  25.270  19.190  10.900
   54BOLB   C3A 1279  25.680  19.290  10.810
   54BOLB   C4A 1280  26.120  19.500  10.730
   54BOLB   C1B 1281  24.920  18.940  11.560
   54BOLB   C2B 1282  25.140  19.200  11.380
   54BOLB   C3B 1283  25.560  19.190  11.300
   54BOLB   C4B 1284  26.020  19.400  11.280
   54BOLB   NC2 1285  28.120  19.050   9.510
   54BOLB   PO2 1286  28.210  19.540   9.550
   54BOLB   GL3 1287  27.800  19.560   9.680
   54BOLB   GL4 1288  27.750  19.240   9.890
   54BOLB   C1C 1289  27.440  19.560   9.980
   54BOLB   C2C 1290  27.180  19.380  10.240
   54BOLB   C3C 1291  26.790  19.230  10.230
   54BOLB   C4C 1292  26.530  19.500  10.410
   54BOLB   C1D 1293  27.300  19.010   9.900
   54BOLB   C2D 1294  27.030  18.830   9.920
   54BOLB   C3D 1295  26.590  18.810  10.010
   54BOLB   C4D 1296  26.300  18.860  10.010
   55BOLB   NC1 1297  17.280  12.560  27.080
   55BOLB   PO1 1298  16.910  12.220  27.170
   55BOLB   GL1 1299  16.800  12.420  26.850
   55BOLB   GL2 1300  16.530  12.200  26.810
   55BOLB   C1A 1301  16.730  12.590  26.490
   55BOLB   C2A 1302  16.600  12.510  26.050
   55BOLB   C3A 1303  16.280  12.470  25.800
   55BOLB   C4A 1304  15.870  12.100  25.680
   55BOLB   C1B 1305  16.300  12.320  26.450
   55BOLB   C2B 1306  15.850  12.370  26.220
   55BOLB   C3B 1307  15.390  12.460  26.410
   55BOLB   C4B 1308  15.050  12.480  26.640
   55BOLB   NC2 1309  15.550  11.220  27.920
   55BOLB   PO2 1310  15.660  11.570  27.740
   55BOLB   GL3 1311  15.470  11.440  27.350
   55BOLB   GL4 1312  15.750  11.390  27.020
   55BOLB   C1C 1313  15.280  11.640  26.980
   55BOLB   C2C 1314  15.430  12.040  26.720
   55BOLB   C3C 1315  15.500  12.000  26.280
   55BOLB   C4C 1316  15.630  11.850  25.880
   55BOLB   C1D 1317  15.580  11.120  26.790
   55BOLB   C2D 1318  15.430  11.110  26.460
   55BOLB   C3D 1319  15.370  11.050  26.080
   55BOLB   C4D 1320  15.070  11.130  25.780
   56BOLB   NC1 1321   5.060  25.410  17.980
   56BOLB   PO1 1322   4.560  25.310  17.930
   56BOLB   GL1 1323   4.380  24.900  17.820
   56BOLB   GL2 1324   4.350  24.700  18.040
   56BOLB   C1A 1325   4.320  24.600  17.520
   56BOLB   C2A 1326   4.160  24.150  17.470
   56BOLB   C3A 1327   3.980  23.830  17.700
   56BOLB   C4A 1328   3.930  23.350  17.560
   56BOLB   C1B 1329   4.600  24.320  17.890
   56BOLB   C2B 1330   4.730  24.210  17.530
   56BOLB   C3B 1331   5.040  24.310  17.200
   56BOLB   C4B 1332   5.330  24.470  16.910
   56BOLB   NC2 1333   3.760  24.510  15.210
   56BOLB   PO2 1334   4.020  24.420  15.640
   56BOLB   GL3 1335   4.330  24.050  15.680
   56BOLB   GL4 1336   4.580  24.130  15.410
   56BOLB   C1C 1337   4.350  23.690  16.070
   56BOLB   C2C 1338   4.220  23.360  16.380
   56BOLB   C3C 1339   4.130  23.310  16.800
   56BOLB   C4C 1340   4.120  23.220  17.250
   56BOLB   C1D 1341   4.750  23.730  15.380
   56BOLB   C2D 1342   4.950  23.400  15.540
   56BOLB   C3D 1343   5.040  23.040  15.900
   56BOLB   C4D 1344   5.130  22.500  15.890
   57BOLB   NC1 1345   6.610  19.880  25.640
   57BOLB   PO1 1346   6.860  19.500  25.630
   57BOLB   GL1 1347   7.360  19.260  25.660
   57BOLB   GL2 1348   7.210  18.970  25.410
   57BOLB   C1A 1349   7.860  19.200  25.660
   57BOLB   C2A 1350   8.230  19.120  25.540
   57BOLB   C3A 1351   8.460  18.860  25.310
   57BOLB   C4A 1352   8.900  18.980  25.240
   57BOLB   C1B 1353   7.590  18.850  25.540
   57BOLB   C2B 1354   8.000  18.690  25.350
   57BOLB   C3B 1355   8.010  18.660  24.970
   57BOLB   C4B 1356   8.350  18.650  24.700
   57BOLB   NC2 1357   8.980  19.260  26.930
   57BOLB   PO2 1358   8.900  18.880  26.910
   57BOLB   GL3 1359   9.260  18.790  26.680
   57BOLB   GL4 1360   9.380  19.160  26.510
   57BOLB   C1C 1361   9.420  18.740  26.200
   57BOLB   C2C 1362   9.600  18.640  25.740
   57BOLB   C3C 1363   9.500  18.680  25.260
   57BOLB   C4C 1364   9.230  18.830  24.980
   57BOLB   C1D 1365   9.330  19.460  26.170
   57BOLB   C2D 1366   9.170  19.740  25.850
   57BOLB   C3D 1367   8.920  20.100  25.890
   57BOLB   C4D 1368   9.210  20.450  25.830
   58BOLB   NC1 1369   3.660  10.580  19.210
   58BOLB   PO1 1370   4.100  10.630  19.070
   58BOLB   GL1 1371   4.260  10.760  18.700
   58BOLB   GL2 1372   4.260  10.460  18.460
   58BOLB   C1A 1373   4.630  10.910  18.400
   58BOLB   C2A 1374   4.810  11.250  18.240
   58BOLB   C3A 1375   4.990  11.450  17.990
   58BOLB   C4A 1376   4.960  11.890  17.910
   58BOLB   C1B 1377   4.670  10.440  18.480
   58BOLB   C2B 1378   5.020  10.620  18.230
   58BOLB   C3B 1379   5.260  10.970  18.050
   58BOLB   C4B 1380   5.450  11.420  18.080
   58BOLB   NC2 1381   3.830  11.010  18.840
   58BOLB   PO2 1382   3.600  11.150  19.250
   58BOLB   GL3 1383   3.870  11.460  19.210
   58BOLB   GL4 1384   3.870  11.630  19.400
   58BOLB   C1C 1385   4.090  11.730  18.910
   58BOLB   C2C 1386   4.560  11.830  18.710
   58BOLB   C3C 1387   4.790  12.180  18.490
   58BOLB   C4C 1388   5.050  12.180  18.170
   58BOLB   C1D 1389   4.080  12.030  19.310
   58BOLB   C2D 1390   4.470  11.990  19.180
   58BOLB   C3D 1391   4.820  12.220  19.040
   58BOLB   C4D 1392   4.910  12.690  19.110
   59BOLB   NC1 1393  24.200   9.490   6.250
   59BOLB   PO1 1394  24.040   9.100   6.500
   59BOLB   GL1 1395  23.580   9.110   6.670
   59BOLB   GL2 1396  23.310   8.890   6.550
   59BOLB   C1A 1397  23.210   9.200   7.000
   59BOLB   C2A 1398  22.770   9.390   7.240
   59BOLB   C3A 1399  22.440   9.570   7.400
   59BOLB   C4A 1400  22.090   9.690   7.200
   59BOLB   C1B 1401  22.940   8.970   6.570
   59BOLB   C2B 1402  22.600   9.230   6.780
   59BOLB   C3B 1403  22.540   9.730   6.930
   59BOLB   C4B 1404  22.470  10.190   6.980
   59BOLB   NC2 1405  20.430  11.960   7.190
   59BOLB   PO2 1406  20.080  11.640   7.290
   59BOLB   GL3 1407  20.350  11.280   7.180
   59BOLB   GL4 1408  20.380  11.100   6.890
   59BOLB   C1C 1409  20.750  10.900   7.310
   59BOLB   C2C 1410  21.110  10.560   7.420
   59BOLB   C3C 1411  21.420  10.230   7.300
   59BOLB   C4C 1412  21.730   9.910   7.380
   59BOLB   C1D 1413  20.800  11.030   6.770
   59BOLB   C2D 1414  21.030  10.670   6.490
   59BOLB   C3D 1415  21.430  10.690   6.290
   59BOLB   C4D 1416  21.810  10.560   6.360
   60BOLB   NC1 1417  13.760  10.110   8.290
   60BOLB   PO1 1418  13.360  10.120   8.100
   60BOLB   GL1 1419  13.250   9.970   7.680
   60BOLB   GL2 1420  12.980   9.860   7.860
   60BOLB   C1A 1421  13.290   9.730   7.440
   60BOLB   C2A 1422  13.170   9.420   7.190
   60BOLB   C3A 1423  12.900   9.120   7.130
   60BOLB   C4A 1424  12.680   8.790   6.930
   60BOLB   C1B 1425  12.570   9.700   7.970
   60BOLB   C2B 1426  12.180   9.470   7.950
   60BOLB   C3B 1427  11.960   9.270   8.200
   60BOLB   C4B 1428  11.790   8.930   8.580
   60BOLB   NC2 1429  12.680   6.890   5.920
   60BOLB   PO2 1430  12.550   6.490   6.220
   60BOLB   GL3 1431  12.900   6.780   6.430
   60BOLB   GL4 1432  13.220   6.710   6.410
   60BOLB   C1C 1433  13.050   7.170   6.550
   60BOLB   C2C 1434  13.020   7.540   6.520
   60BOLB   C3C 1435  13.010   7.990   6.590
   60BOLB   C4C 1436  12.740   8.500   6.550
   60BOLB   C1D 1437  13.590   6.860   6.580
   60BOLB   C2D 1438  13.760   7.190   6.710
   60BOLB   C3D 1439  14.060   7.480   6.790
   60BOLB   C4D 1440  14.330   7.540   7.110
   61BOLB   NC1 1441  15.630   5.980  20.930
   61BOLB   PO1 1442  15.950   6.040  21.290
   61BOLB   GL1 1443  15.700   6.430  21.160
   61BOLB   GL2 1444  15.940   6.670  21.230
   61BOLB   C1A 1445  15.380   6.580  21.320
   61BOLB   C2A 1446  15.210   6.740  21.680
   61BOLB   C3A 1447  15.010   7.130  21.790
   61BOLB   C4A 1448  15.370   7.390  21.890
   61BOLB   C1B 1449  16.240   6.860  20.930
   61BOLB   C2B 1450  16.290   7.110  20.580
   61BOLB   C3B 1451  16.240   7.240  20.170
   61BOLB   C4B 1452  16.450   7.150  19.830
   61BOLB   NC2 1453  17.810   7.250  21.780
   61BOLB   PO2 1454  17.500   7.650  21.790
   61BOLB   GL3 1455  17.180   7.970  21.700
   61BOLB   GL4 1456  17.040   8.250  21.570
   61BOLB   C1C 1457  16.720   7.960  21.730
   61BOLB   C2C 1458  16.570   7.920  22.160
   61BOLB   C3C 1459  16.230   7.570  22.130
   61BOLB   C4C 1460  15.820   7.480  21.980
   61BOLB   C1D 1461  17.180   8.490  21.290
   61BOLB   C2D 1462  17.390   8.870  21.100
   61BOLB   C3D 1463  17.310   9.170  20.830
   61BOLB   C4D 1464  17.590   9.400  20.660
   62BOLB   NC1 1465  24.550  21.800  20.200
   62BOLB   PO1 1466  24.530  21.440  19.780
   62BOLB   GL1 1467  24.560  21.210  19.380
   62BOLB   GL2 1468  24.620  21.390  19.080
   62BOLB   C1A 1469  24.340  20.950  19.140
   62BOLB   C2A 1470  24.020  20.660  19.300
   62BOLB   C3A 1471  23.920  20.280  19.080
   62BOLB   C4A 1472  23.950  20.110  18.640
   62BOLB   C1B 1473  24.180  21.430  19.020
   62BOLB   C2B 1474  23.880  21.760  18.910
   62BOLB   C3B 1475  23.610  22.020  19.150
   62BOLB   C4B 1476  23.260  21.760  19.280
   62BOLB   NC2 1477  26.490  19.920  18.450
   62BOLB   PO2 1478  26.300  19.640  18.060
   62BOLB   GL3 1479  25.890  19.880  17.990
   62BOLB   GL4 1480  25.860  19.880  17.590
   62BOLB   C1C 1481  25.510  20.050  18.150
   62BOLB   C2C 1482  25.150  20.270  18.320
   62BOLB   C3C 1483  24.670  20.350  18.340
   62BOLB   C4C 1484  24.230  20.170  18.350
   62BOLB   C1D 1485  25.500  20.050  17.610
   62BOLB   C2D 1486  25.270  20.100  17.330
   62BOLB   C3D 1487  24.780  20.030  17.120
   62BOLB   C4D 1488  24.540  19.730  17.190
   63BOLB   NC1 1489  10.460   8.450  24.160
   63BOLB   PO1 1490  10.750   8.660  24.400
   63BOLB   GL1 1491  10.980   8.860  24.200
   63BOLB   GL2 1492  10.910   9.210  24.150
   63BOLB   C1A 1493  11.410   8.770  23.970
   63BOLB   C2A 1494  11.820   8.640  23.800
   63BOLB   C3A 1495  11.950   8.630  23.400
   63BOLB   C4A 1496  12.130   8.460  23.170
   63BOLB   C1B 1497  10.980   8.950  23.730
   63BOLB   C2B 1498  10.910   9.100  23.280
   63BOLB   C3B 1499  11.210   8.880  22.960
   63BOLB   C4B 1500  11.660   8.810  23.030
   63BOLB   NC2 1501  13.430   7.960  25.100
   63BOLB   PO2 1502  13.660   7.590  24.880
   63BOLB   GL3 1503  13.480   7.820  24.480
   63BOLB   GL4 1504  13.620   8.210  24.430
   63BOLB   C1C 1505  13.460   7.850  24.040
   63BOLB   C2C 1506  13.240   8.000  23.600
   63BOLB   C3C 1507  12.920   8.300  23.400
   63BOLB   C4C 1508  12.550   8.460  23.150
   63BOLB   C1D 1509  13.980   8.050  24.210
   63BOLB   C2D 1510  14.330   7.720  24.150
   63BOLB   C3D 1511  14.660   7.530  24.030
   63BOLB   C4D 1512  14.980   7.680  24.340
   64BOLB   NC1 1513  19.210  13.290  18.130
   64BOLB   PO1 1514  19.470  13.020  17.780
   64BOLB   GL1 1515  19.400  12.610  17.950
   64BOLB   GL2 1516  19.170  12.270  17.810
   64BOLB   C1A 1517  19.520  12.310  18.380
   64BOLB   C2A 1518  19.760  12.160  18.740
   64BOLB   C3A 1519  19.630  11.850  19.040
   64BOLB   C4A 1520  19.700  11.320  19.080
   64BOLB   C1B 1521  19.190  11.990  18.130
   64BOLB   C2B 1522  19.550  11.790  18.270
   64BOLB   C3B 1523  19.780  11.440  18.310
   64BOLB   C4B 1524  20.070  11.060  18.540
   64BOLB   NC2 1525  20.560   9.330  20.190
   64BOLB   PO2 1526  20.710   9.660  19.960
   64BOLB   GL3 1527  20.550   9.840  19.570
   64BOLB   GL4 1528  20.710   9.960  19.330
   64BOLB   C1C 1529  20.260  10.030  19.500
   64BOLB   C2C 1530  20.180  10.270  19.130
   64BOLB   C3C 1531  20.190  10.690  18.990
   64BOLB   C4C 1532  19.970  11.000  19.140
   64BOLB   C1D 1533  20.620  10.420  19.290
   64BOLB   C2D 1534  20.810  10.840  19.300
   64BOLB   C3D 1535  21.110  11.080  19.530
   64BOLB   C4D 1536  21.120  11.290  19.830
   65BOLB   NC1 1537  28.170  19.930  14.200
   65BOLB   PO1 1538  27.830  19.750  14.470
   65BOLB   GL1 1539  27.480  19.740  14.520
   65BOLB   GL2 1540  27.380  19.640  14.830
   65BOLB   C1A 1541  27.070  19.680  14.270
   65BOLB   C2A 1542  26.870  19.350  14.130
   65BOLB   C3A 1543  26.530  19.140  13.950
   65BOLB   C4A 1544  26.160  19.110  13.570
   65BOLB   C1B 1545  26.950  19.860  14.740
   65BOLB   C2B 1546  26.900  20.080  14.400
   65BOLB   C3B 1547  26.900  20.130  14.040
   65BOLB   C4B 1548  26.960  20.330  13.660
   65BOLB   NC2 1549  27.520  19.780  11.790
   65BOLB   PO2 1550  27.500  20.150  12.100
   65BOLB   GL3 1551  27.110  20.280  11.960
   65BOLB   GL4 1552  26.950  20.580  12.090
   65BOLB   C1C 1553  26.880  20.220  12.460
   65BOLB   C2C 1554  26.780  19.900  12.870
   65BOLB   C3C 1555  26.430  19.620  12.990
   65BOLB   C4C 1556  26.320  19.330  13.170
   65BOLB   C1D 1557  26.410  20.710  11.970
   65BOLB   C2D 1558  26.050  20.550  11.730
   65BOLB   C3D 1559  25.760  20.730  11.310
   65BOLB   C4D 1560  25.610  20.960  10.930
   66BOLB   NC1 1561  11.530  18.740  27.700
   66BOLB   PO1 1562  11.580  19.130  27.470
   66BOLB   GL1 1563  11.880  18.960  27.250
   66BOLB   GL2 1564  11.770  18.620  27.290
   66BOLB   C1A 1565  12.290  19.060  26.970
   66BOLB   C2A 1566  12.450  18.850  26.550
   66BOLB   C3A 1567  12.550  18.490  26.350
   66BOLB   C4A 1568  12.840  18.060  26.480
   66BOLB   C1B 1569  12.010  18.570  26.940
   66BOLB   C2B 1570  12.070  18.450  26.580
   66BOLB   C3B 1571  12.050  18.680  26.160
   66BOLB   C4B 1572  11.840  18.930  25.890
   66BOLB   NC2 1573  14.510  17.340  28.320
   66BOLB   PO2 1574  14.470  17.730  28.060
   66BOLB   GL3 1575  14.250  17.350  27.770
   66BOLB   GL4 1576  14.390  17.000  27.650
   66BOLB   C1C 1577  13.890  17.510  27.510
   66BOLB   C2C 1578  13.780  17.870  27.290
   66BOLB   C3C 1579  13.540  17.920  27.040
   66BOLB   C4C 1580  13.110  17.870  26.830
   66BOLB   C1D 1581  14.700  17.260  27.390
   66BOLB   C2D 1582  15.040  17.560  27.310
   66BOLB   C3D 1583  15.120  17.900  27.060
   66BOLB   C4D 1584  15.040  17.970  26.640
   67BOLB   NC1 1585  23.350  26.430  17.710
   67BOLB   PO1 1586  23.010  26.370  17.440
   67BOLB   GL1 1587  22.870  26.140  17.000
   67BOLB   GL2 1588  23.130  26.110  16.760
   67BOLB   C1A 1589  22.730  25.800  16.750
   67BOLB   C2A 1590  22.740  25.340  16.620
   67BOLB   C3A 1591  22.800  24.880  16.550
   67BOLB   C4A 1592  22.900  24.490  16.750
   67BOLB   C1B 1593  22.800  26.140  16.420
   67BOLB   C2B 1594  22.540  25.870  16.110
   67BOLB   C3B 1595  22.590  25.600  15.830
   67BOLB   C4B 1596  22.680  25.260  15.570
   67BOLB   NC2 1597  25.140  23.880  16.400
   67BOLB   PO2 1598  25.120  24.100  16.780
   67BOLB   GL3 1599  24.720  24.110  16.490
   67BOLB   GL4 1600  24.790  24.150  16.130
   67BOLB   C1C 1601  24.380  23.960  16.550
   67BOLB   C2C 1602  23.970  24.060  16.690
   67BOLB   C3C 1603  23.590  24.010  16.590
   67BOLB   C4C 1604  23.160  24.200  16.590
   67BOLB   C1D 1605  24.460  24.050  15.710
   67BOLB   C2D 1606  24.130  23.670  15.580
   67BOLB   C3D 1607  23.680  23.630  15.520
   67BOLB   C4D 1608  23.330  23.380  15.580
   68BOLB   NC1 1609   9.770  14.250  26.440
   68BOLB   PO1 1610   9.580  13.820  26.400
   68BOLB   GL1 1611   9.960  13.810  26.050
   68BOLB   GL2 1612  10.040  13.590  25.900
   68BOLB   C1A 1613  10.200  14.060  25.870
   68BOLB   C2A 1614  10.580  14.220  25.710
   68BOLB   C3A 1615  10.850  14.290  25.320
   68BOLB   C4A 1616  11.130  14.550  25.410
   68BOLB   C1B 1617  10.470  13.680  25.630
   68BOLB   C2B 1618  10.720  13.710  25.340
   68BOLB   C3B 1619  10.990  13.920  24.960
   68BOLB   C4B 1620  11.270  13.710  24.720
   68BOLB   NC2 1621  10.200  14.770  27.000
   68BOLB   PO2 1622  10.170  15.160  27.290
   68BOLB   GL3 1623  10.300  15.350  26.830
   68BOLB   GL4 1624  10.380  15.050  26.530
   68BOLB   C1C 1625  10.610  15.500  26.430
   68BOLB   C2C 1626  10.920  15.510  26.120
   68BOLB   C3C 1627  11.070  15.350  25.860
   68BOLB   C4C 1628  11.170  14.920  25.700
   68BOLB   C1D 1629  10.420  15.050  26.080
   68BOLB   C2D 1630  10.350  15.090  25.670
   68BOLB   C3D 1631  10.060  15.040  25.360
   68BOLB   C4D 1632  10.000  15.170  24.900
   69BOLB   NC1 1633  22.030   6.490  10.700
   69BOLB   PO1 1634  22.450   6.560  10.740
   69BOLB   GL1 1635  22.080   6.960  10.900
   69BOLB   GL2 1636  21.830   7.110  10.640
   69BOLB   C1A 1637  22.020   7.360  11.220
   69BOLB   C2A 1638  22.120   7.710  11.390
   69BOLB   C3A 1639  22.030   8.150  11.480
   69BOLB   C4A 1640  22.270   8.400  11.570
   69BOLB   C1B 1641  21.920   7.420  10.570
   69BOLB   C2B 1642  21.620   7.850  10.530
   69BOLB   C3B 1643  21.270   8.140  10.460
   69BOLB   C4B 1644  21.130   8.460  10.790
   69BOLB   NC2 1645  24.000   7.560  13.280
   69BOLB   PO2 1646  23.840   7.240  13.020
   69BOLB   GL3 1647  23.470   7.640  12.960
   69BOLB   GL4 1648  23.480   7.840  13.090
   69BOLB   C1C 1649  23.070   7.780  12.830
   69BOLB   C2C 1650  22.890   8.040  12.460
   69BOLB   C3C 1651  22.690   8.210  12.140
   69BOLB   C4C 1652  22.630   8.390  11.760
   69BOLB   C1D 1653  23.410   8.180  12.770
   69BOLB   C2D 1654  23.090   8.460  12.510
   69BOLB   C3D 1655  22.630   8.490  12.560
   69BOLB   C4D 1656  22.360   8.870  12.410
   70BOLB   NC1 1657  23.520  16.060  21.770
   70BOLB   PO1 1658  23.610  15.670  21.550
   70BOLB   GL1 1659  23.420  15.960  21.280
   70BOLB   GL2 1660  23.190  16.220  21.360
   70BOLB   C1A 1661  23.500  16.270  20.930
   70BOLB   C2A 1662  23.370  16.290  20.450
   70BOLB   C3A 1663  23.190  16.470  20.000
   70BOLB   C4A 1664  23.010  16.340  19.640
   70BOLB   C1B 1665  23.020  16.280  20.940
   70BOLB   C2B 1666  22.860  16.040  20.560
   70BOLB   C3B 1667  23.030  15.950  20.150
   70BOLB   C4B 1668  22.890  15.550  20.030
   70BOLB   NC2 1669  21.370  17.710  17.760
   70BOLB   PO2 1670  21.810  17.640  17.680
   70BOLB   GL3 1671  21.900  17.390  18.100
   70BOLB   GL4 1672  21.880  17.000  18.160
   70BOLB   C1C 1673  22.070  17.230  18.610
   70BOLB   C2C 1674  22.230  17.130  18.990
   70BOLB   C3C 1675  22.550  16.820  19.210
   70BOLB   C4C 1676  22.740  16.430  19.390
   70BOLB   C1D 1677  21.590  17.210  18.450
   70BOLB   C2D 1678  21.390  17.260  18.760
   70BOLB   C3D 1679  21.640  17.260  19.150
   70BOLB   C4D 1680  21.820  17.120  19.540
   71BOLB   NC1 1681  17.640   7.900  23.200
   71BOLB   PO1 1682  17.880   8.330  23.120
   71BOLB   GL1 1683  17.410   8.450  23.030
   71BOLB   GL2 1684  17.260   8.160  22.850
   71BOLB   C1A 1685  17.160   8.670  23.220
   71BOLB   C2A 1686  16.800   8.840  23.370
   71BOLB   C3A 1687  16.420   9.070  23.580
   71BOLB   C4A 1688  16.090   8.930  23.250
   71BOLB   C1B 1689  16.920   8.580  22.810
   71BOLB   C2B 1690  16.970   8.890  22.570
   71BOLB   C3B 1691  16.980   9.180  22.280
   71BOLB   C4B 1692  17.110   9.550  22.080
   71BOLB   NC2 1693  15.640   6.910  23.260
   71BOLB   PO2 1694  16.030   6.680  23.070
   71BOLB   GL3 1695  15.920   7.060  22.890
   71BOLB   GL4 1696  15.580   7.190  22.810
   71BOLB   C1C 1697  15.950   7.440  22.910
   71BOLB   C2C 1698  15.720   7.770  22.870
   71BOLB   C3C 1699  15.620   8.140  23.180
   71BOLB   C4C 1700  15.770   8.590  23.200
   71BOLB   C1D 1701  15.130   7.240  22.740
   71BOLB   C2D 1702  14.800   7.540  22.890
   71BOLB   C3D 1703  14.530   7.850  23.200
   71BOLB   C4D 1704  14.140   7.810  23.170
   72BOLB   NC1 1705  15.730  21.760  25.780
   72BOLB   PO1 1706  16.030  21.790  25.630
   72BOLB   GL1 1707  16.120  21.490  25.470
   72BOLB   GL2 1708  16.230  21.150  25.330
   72BOLB   C1A 1709  15.770  21.140  25.600
   72BOLB   C2A 1710  15.350  20.980  25.490
   72BOLB   C3A 1711  14.930  20.800  25.370
   72BOLB   C4A 1712  14.940  20.470  25.150
   72BOLB   C1B 1713  15.880  20.940  25.090
   72BOLB   C2B 1714  15.660  20.660  24.800
   72BOLB   C3B 1715  15.690  20.590  24.370
   72BOLB   C4B 1716  15.790  20.740  24.010
   72BOLB   NC2 1717  16.150  20.860  26.290
   72BOLB   PO2 1718  16.490  20.730  25.880
   72BOLB   GL3 1719  16.360  20.480  25.550
   72BOLB   GL4 1720  16.320  20.670  25.300
   72BOLB   C1C 1721  16.140  20.150  25.440
   72BOLB   C2C 1722  15.850  20.020  25.230
   72BOLB   C3C 1723  15.720  20.190  24.940
   72BOLB   C4C 1724  15.300  20.290  24.860
   72BOLB   C1D 1725  16.090  20.500  25.100
   72BOLB   C2D 1726  15.700  20.520  25.320
   72BOLB   C3D 1727  15.340  20.470  25.550
   72BOLB   C4D 1728  14.820  20.120  25.490
   73BOLB   NC1 1729   5.980  14.220  23.800
   73BOLB   PO1 1730   6.200  13.840  24.100
   73BOLB   GL1 1731   6.270  13.860  23.640
   73BOLB   GL2 1732   5.980  13.820  23.380
   73BOLB   C1A 1733   6.610  14.130  23.410
   73BOLB   C2A 1734   6.930  14.280  23.140
   73BOLB   C3A 1735   7.110  14.540  22.950
   73BOLB   C4A 1736   7.170  14.870  23.090
   73BOLB   C1B 1737   6.170  13.700  22.990
   73BOLB   C2B 1738   6.560  13.750  23.000
   73BOLB   C3B 1739   6.890  13.900  22.780
   73BOLB   C4B 1740   6.880  14.270  22.630
   73BOLB   NC2 1741   5.840  15.490  24.540
   73BOLB   PO2 1742   5.610  15.380  24.110
   73BOLB   GL3 1743   5.750  15.700  24.020
   73BOLB   GL4 1744   5.840  15.810  23.680
   73BOLB   C1C 1745   6.180  15.790  24.030
   73BOLB   C2C 1746   6.510  15.490  23.820
   73BOLB   C3C 1747   6.830  15.340  23.680
   73BOLB   C4C 1748   7.100  15.140  23.450
   73BOLB   C1D 1749   6.130  15.630  23.530
   73BOLB   C2D 1750   6.410  15.380  23.360
   73BOLB   C3D 1751   6.680  15.060  23.170
   73BOLB   C4D 1752   6.570  14.620  23.160
   74BOLB   NC1 1753  11.140   5.400  21.850
   74BOLB   PO1 1754  11.510   5.490  21.750
   74BOLB   GL1 1755  11.670   5.920  21.680
   74BOLB   GL2 1756  11.820   6.200  21.650
   74BOLB   C1A 1757  11.410   6.220  21.480
   74BOLB   C2A 1758  11.080   6.450  21.240
   74BOLB   C3A 1759  11.230   6.690  20.900
   74BOLB   C4A 1760  11.600   6.860  20.770
   74BOLB   C1B 1761  11.820   6.570  21.570
   74BOLB   C2B 1762  12.100   6.890  21.400
   74BOLB   C3B 1763  12.360   7.150  21.210
   74BOLB   C4B 1764  12.590   7.460  21.070
   74BOLB   NC2 1765  13.520   5.200  21.320
   74BOLB   PO2 1766  13.460   5.320  21.790
   74BOLB   GL3 1767  13.260   5.620  21.560
   74BOLB   GL4 1768  13.240   5.650  21.190
   74BOLB   C1C 1769  12.920   5.970  21.430
   74BOLB   C2C 1770  12.590   6.220  21.130
   74BOLB   C3C 1771  12.470   6.640  20.980
   74BOLB   C4C 1772  11.980   6.760  20.880
   74BOLB   C1D 1773  13.140   6.040  21.000
   74BOLB   C2D 1774  13.270   6.350  20.770
   74BOLB   C3D 1775  13.510   6.680  20.510
   74BOLB   C4D 1776  13.620   7.060  20.370
   75BOLB   NC1 1777  11.970  21.730  27.050
   75BOLB   PO1 1778  12.290  22.020  26.810
   75BOLB   GL1 1779  12.480  21.850  26.380
   75BOLB   GL2 1780  12.670  21.680  26.400
   75BOLB   C1A 1781  12.480  21.830  25.980
   75BOLB   C2A 1782  12.380  21.810  25.520
   75BOLB   C3A 1783  12.550  21.700  25.150
   75BOLB   C4A 1784  12.720  22.010  24.860
   75BOLB   C1B 1785  12.730  21.330  26.150
   75BOLB   C2B 1786  12.660  20.880  26.080
   75BOLB   C3B 1787  12.570  20.560  25.980
   75BOLB   C4B 1788  12.630  20.230  25.590
   75BOLB   NC2 1789  13.920  23.620  26.000
   75BOLB   PO2 1790  14.150  23.440  25.580
   75BOLB   GL3 1791  13.840  23.280  25.290
   75BOLB   GL4 1792  13.490  23.330  25.340
   75BOLB   C1C 1793  13.710  23.090  24.850
   75BOLB   C2C 1794  13.480  22.770  24.700
   75BOLB   C3C 1795  13.280  22.480  24.550
   75BOLB   C4C 1796  13.090  22.140  24.610
   75BOLB   C1D 1797  13.150  23.060  25.020
   75BOLB   C2D 1798  12.990  22.980  24.680
   75BOLB   C3D 1799  13.200  22.920  24.290
   75BOLB   C4D 1800  13.360  23.120  23.890
   76BOLB   NC1 1801  20.840  24.240  13.430
   76BOLB   PO1 1802  20.630  24.620  13.370
   76BOLB   GL1 1803  20.850  25.000  13.190
   76BOLB   GL2 1804  21.120  25.010  13.170
   76BOLB   C1A 1805  20.920  25.410  13.290
   76BOLB   C2A 1806  20.990  25.820  13.130
   76BOLB   C3A 1807  20.990  26.210  13.380
   76BOLB   C4A 1808  21.320  26.310  13.520
   76BOLB   C1B 1809  21.400  25.380  13.250
   76BOLB   C2B 1810  21.810  25.520  13.340
   76BOLB   C3B 1811  22.250  25.670  13.540
   76BOLB   C4B 1812  22.300  26.040  13.850
   76BOLB   NC2 1813  23.570  27.800  13.810
   76BOLB   PO2 1814  23.160  27.570  13.760
   76BOLB   GL3 1815  22.870  27.180  13.890
   76BOLB   GL4 1816  22.800  27.250  13.510
   76BOLB   C1C 1817  22.620  26.790  13.880
   76BOLB   C2C 1818  22.340  26.560  13.680
   76BOLB   C3C 1819  22.160  26.320  13.480
   76BOLB   C4C 1820  21.780  26.310  13.280
   76BOLB   C1D 1821  22.350  26.990  13.350
   76BOLB   C2D 1822  22.370  26.710  13.190
   76BOLB   C3D 1823  22.060  26.570  12.990
   76BOLB   C4D 1824  21.730  26.320  12.710
   77BOLB   NC1 1825   9.910  13.470  26.590
   77BOLB   PO1 1826  10.190  13.180  26.620
   77BOLB   GL1 1827  10.200  13.190  26.210
   77BOLB   GL2 1828  10.440  13.420  26.230
   77BOLB   C1A 1829  10.470  13.110  25.820
   77BOLB   C2A 1830  10.920  13.220  25.630
   77BOLB   C3A 1831  11.090  13.350  25.170
   77BOLB   C4A 1832  11.490  13.380  25.060
   77BOLB   C1B 1833  10.560  13.790  26.060
   77BOLB   C2B 1834  10.920  13.820  25.810
   77BOLB   C3B 1835  11.240  13.610  25.580
   77BOLB   C4B 1836  11.440  13.280  25.730
   77BOLB   NC2 1837  11.840  12.110  27.240
   77BOLB   PO2 1838  11.340  12.010  27.050
   77BOLB   GL3 1839  11.600  12.230  26.760
   77BOLB   GL4 1840  11.830  11.930  26.790
   77BOLB   C1C 1841  11.980  12.360  26.510
   77BOLB   C2C 1842  12.010  12.640  26.240
   77BOLB   C3C 1843  11.820  12.920  25.780
   77BOLB   C4C 1844  11.850  13.180  25.360
   77BOLB   C1D 1845  11.640  12.070  26.290
   77BOLB   C2D 1846  11.600  11.970  25.790
   77BOLB   C3D 1847  11.900  11.930  25.460
   77BOLB   C4D 1848  12.100  11.510  25.550
   78BOLB   NC1 1849  10.680  21.920  26.940
   78BOLB   PO1 1850  10.620  21.600  26.690
   78BOLB   GL1 1851  10.500  21.770  26.350
   78BOLB   GL2 1852  10.210  21.770  26.220
   78BOLB   C1A 1853  10.730  21.870  26.060
   78BOLB   C2A 1854  10.850  21.780  25.640
   78BOLB   C3A 1855  11.140  21.610  25.470
   78BOLB   C4A 1856  11.500  21.450  25.470
   78BOLB   C1B 1857  10.280  21.570  25.770
   78BOLB   C2B 1858  10.420  21.500  25.410
   78BOLB   C3B 1859  10.460  21.350  25.030
   78BOLB   C4B 1860  10.930  21.190  25.030
   78BOLB   NC2 1861  12.620  22.470  26.850
   78BOLB   PO2 1862  13.050  22.640  26.770
   78BOLB   GL3 1863  12.710  22.740  26.450
   78BOLB   GL4 1864  12.940  22.860  26.160
   78BOLB   C1C 1865  12.430  22.450  26.290
   78BOLB   C2C 1866  12.100  22.130  26.000
   78BOLB   C3C 1867  11.980  21.710  25.960
   78BOLB   C4C 1868  11.840  21.670  25.630
   78BOLB   C1D 1869  12.670  22.790  25.820
   78BOLB   C2D 1870  12.280  22.560  25.740
   78BOLB   C3D 1871  12.040  22.300  25.430
   78BOLB   C4D 1872  11.950  21.900  25.180
   79BOLB   NC1 1873  20.950  16.670  18.410
   79BOLB   PO1 1874  20.770  16.490  18.780
   79BOLB   GL1 1875  21.200  16.340  18.830
   79BOLB   GL2 1876  21.140  16.300  19.130
   79BOLB   C1A 1877  21.610  16.230  18.930
   79BOLB   C2A 1878  21.950  16.280  19.170
   79BOLB   C3A 1879  22.270  16.320  19.400
   79BOLB   C4A 1880  22.460  16.300  19.860
   79BOLB   C1B 1881  20.960  16.020  19.390
   79BOLB   C2B 1882  21.140  15.720  19.590
   79BOLB   C3B 1883  21.460  15.430  19.340
   79BOLB   C4B 1884  21.890  15.330  19.560
   79BOLB   NC2 1885  23.640  16.780  22.170
   79BOLB   PO2 1886  23.490  16.530  21.770
   79BOLB   GL3 1887  23.490  16.790  21.440
   79BOLB   GL4 1888  23.200  16.920  21.450
   79BOLB   C1C 1889  23.520  16.920  20.970
   79BOLB   C2C 1890  23.200  16.700  20.790
   79BOLB   C3C 1891  22.910  16.650  20.420
   79BOLB   C4C 1892  22.710  16.340  20.130
   79BOLB   C1D 1893  22.860  16.760  21.300
   79BOLB   C2D 1894  22.680  16.670  20.930
   79BOLB   C3D 1895  22.380  16.620  20.640
   79BOLB   C4D 1896  22.210  16.530  20.310
   80BOLB   NC1 1897   6.890   5.730  16.120
   80BOLB   PO1 1898   7.210   5.610  15.750
   80BOLB   GL1 1899   7.280   5.940  15.900
   80BOLB   GL2 1900   7.450   6.060  15.610
   80BOLB   C1A 1901   7.400   6.320  16.020
   80BOLB   C2A 1902   7.320   6.790  16.100
   80BOLB   C3A 1903   7.180   7.100  16.420
   80BOLB   C4A 1904   7.240   7.380  16.840
   80BOLB   C1B 1905   7.790   6.270  15.530
   80BOLB   C2B 1906   8.170   6.450  15.680
   80BOLB   C3B 1907   8.620   6.350  15.800
   80BOLB   C4B 1908   9.030   6.450  15.680
   80BOLB   NC2 1909   6.140   6.910  19.150
   80BOLB   PO2 1910   6.240   7.290  19.100
   80BOLB   GL3 1911   6.370   7.310  18.710
   80BOLB   GL4 1912   6.290   7.730  18.610
   80BOLB   C1C 1913   6.650   7.400  18.270
   80BOLB   C2C 1914   6.800   7.250  17.890
   80BOLB   C3C 1915   7.010   7.340  17.570
   80BOLB   C4C 1916   7.170   7.590  17.210
   80BOLB   C1D 1917   6.420   8.170  18.440
   80BOLB   C2D 1918   6.390   8.640  18.570
   80BOLB   C3D 1919   6.780   8.820  18.700
   80BOLB   C4D 1920   7.160   8.870  18.510
   81BOLB   NC1 1921  19.670  13.090  24.520
   81BOLB   PO1 1922  19.380  13.390  24.350
   81BOLB   GL1 1923  19.190  13.510  24.020
   81BOLB   GL2 1924  19.260  13.810  23.740
   81BOLB   C1A 1925  18.970  13.360  23.600
   81BOLB   C2A 1926  18.560  13.490  23.430
   81BOLB   C3A 1927  18.320  13.520  23.160
   81BOLB   C4A 1928  17.900  13.370  23.090
   81BOLB   C1B 1929  18.890  13.910  23.480
   81BOLB   C2B 1930  18.470  14.040  23.250
   81BOLB   C3B 1931  18.240  13.960  22.950
   81BOLB   C4B 1932  17.980  13.960  22.620
   81BOLB   NC2 1933  19.170  11.690  22.960
   81BOLB   PO2 1934  19.100  11.770  23.420
   81BOLB   GL3 1935  18.620  11.840  23.450
   81BOLB   GL4 1936  18.500  11.900  23.080
   81BOLB   C1C 1937  18.340  12.090  23.480
   81BOLB   C2C 1938  17.930  12.320  23.420
   81BOLB   C3C 1939  17.610  12.590  23.160
   81BOLB   C4C 1940  17.570  13.090  23.180
   81BOLB   C1D 1941  18.400  12.130  22.770
   81BOLB   C2D 1942  18.110  12.120  22.370
   81BOLB   C3D 1943  17.960  12.230  21.920
   81BOLB   C4D 1944  18.170  12.390  21.450
   82BOLB   NC1 1945   1.560  21.770  15.330
   82BOLB   PO1 1946   2.070  21.860  15.440
   82BOLB   GL1 1947   2.370  21.670  15.590
   82BOLB   GL2 1948   2.200  21.450  15.740
   82BOLB   C1A 1949   2.750  21.390  15.290
   82BOLB   C2A 1950   2.800  20.890  15.200
   82BOLB   C3A 1951   3.010  20.590  14.870
   82BOLB   C4A 1952   3.130  20.180  14.860
   82BOLB   C1B 1953   2.530  21.390  16.020
   82BOLB   C2B 1954   2.940  21.390  16.090
   82BOLB   C3B 1955   3.300  21.280  16.070
   82BOLB   C4B 1956   3.610  21.570  16.210
   82BOLB   NC2 1957   1.120  20.000  13.580
   82BOLB   PO2 1958   1.430  20.330  13.810
   82BOLB   GL3 1959   1.900  20.110  13.790
   82BOLB   GL4 1960   2.120  20.270  13.560
   82BOLB   C1C 1961   2.400  20.020  13.850
   82BOLB   C2C 1962   2.590  19.620  14.060
   82BOLB   C3C 1963   2.950  19.500  14.390
   82BOLB   C4C 1964   3.070  19.820  14.650
   82BOLB   C1D 1965   2.350  20.470  14.010
   82BOLB   C2D 1966   2.610  20.760  14.230
   82BOLB   C3D 1967   2.980  20.960  14.340
   82BOLB   C4D 1968   3.180  21.300  14.130
   83BOLB   NC1 1969   3.190   9.230  14.050
   83BOLB   PO1 1970   2.990   9.470  14.490
   83BOLB   GL1 1971   3.300   9.610  14.400
   83BOLB   GL2 1972   3.250   9.850  14.060
   83BOLB   C1A 1973   3.750   9.560  14.410
   83BOLB   C2A 1974   4.040   9.640  14.090
   83BOLB   C3A 1975   4.540   9.890  14.030
   83BOLB   C4A 1976   4.970   9.730  13.930
   83BOLB   C1B 1977   3.650  10.020  14.060
   83BOLB   C2B 1978   4.080  10.200  14.040
   83BOLB   C3B 1979   4.460  10.470  14.250
   83BOLB   C4B 1980   4.520  10.640  14.680
   83BOLB   NC2 1981   5.200   7.220  14.850
   83BOLB   PO2 1982   5.090   7.480  14.570
   83BOLB   GL3 1983   5.150   7.740  14.180
   83BOLB   GL4 1984   5.080   7.730  13.820
   83BOLB   C1C 1985   5.270   8.200  14.100
   83BOLB   C2C 1986   5.040   8.560  13.820
   83BOLB   C3C 1987   5.110   8.980  13.780
   83BOLB   C4C 1988   5.160   9.390  13.700
   83BOLB   C1D 1989   5.370   8.070  13.560
   83BOLB   C2D 1990   5.430   8.460  13.510
   83BOLB   C3D 1991   5.580   8.790  13.730
   83BOLB   C4D 1992   6.030   8.790  13.850
   84BOLB   NC1 1993  25.720  10.210   8.940
   84BOLB   PO1 1994  25.500  10.060   9.330
   84BOLB   GL1 1995  24.990  10.170   9.480
   84BOLB   GL2 1996  25.170  10.210   9.820
   84BOLB   C1A 1997  24.610  10.520   9.470
   84BOLB   C2A 1998  24.350  10.930   9.410
   84BOLB   C3A 1999  24.360  11.290   9.590
   84BOLB   C4A 2000  24.300  11.310   9.990
   84BOLB   C1B 2001  25.160  10.620   9.840
   84BOLB   C2B 2002  24.770  10.940   9.770
   84BOLB   C3B 2003  24.830  11.410   9.740
   84BOLB   C4B 2004  24.620  11.850   9.610
   84BOLB   NC2 2005  25.680  10.150   9.730
   84BOLB   PO2 2006  25.790   9.700   9.990
   84BOLB   GL3 2007  25.540   9.920  10.170
   84BOLB   GL4 2008  25.430   9.860  10.410
   84BOLB   C1C 2009  25.490  10.390  10.290
   84BOLB   C2C 2010  25.300  10.780  10.310
   84BOLB   C3C 2011  25.130  11.110  10.090
   84BOLB   C4C 2012  24.750  11.290  10.240
   84BOLB   C1D 2013  25.030   9.980  10.280
   84BOLB   C2D 2014  24.840  10.280  10.190
   84BOLB   C3D 2015  24.670  10.650  10.160
   84BOLB   C4D 2016  24.240  10.770  10.030
   85BOLB   NC1 2017  16.540  10.740  27.000
   85BOLB   PO1 2018  16.740  10.740  26.600
   85BOLB   GL1 2019  16.790  10.800  26.070
   85BOLB   GL2 2020  16.880  11.100  25.960
   85BOLB   C1A 2021  16.770  10.720  25.650
   85BOLB   C2A 2022  16.700  10.800  25.160
   85BOLB   C3A 2023  16.670  11.160  24.870
   85BOLB   C4A 2024  16.330  11.120  24.600
   85BOLB   C1B 2025  16.810  11.250  25.530
   85BOLB   C2B 2026  16.510  11.270  25.370
   85BOLB   C3B 2027  16.420  11.610  24.940
   85BOLB   C4B 2028  16.260  12.000  24.830
   85BOLB   NC2 2029  17.130   9.950  26.270
   85BOLB   PO2 2030  16.730   9.860  26.000
   85BOLB   GL3 2031  16.390   9.930  25.780
   85BOLB   GL4 2032  16.160   9.600  25.680
   85BOLB   C1C 2033  16.030  10.070  25.680
   85BOLB   C2C 2034  15.850  10.390  25.320
   85BOLB   C3C 2035  15.860  10.530  24.900
   85BOLB   C4C 2036  15.970  10.880  24.650
   85BOLB   C1D 2037  16.030   9.730  25.290
   85BOLB   C2D 2038  15.730   9.740  24.900
   85BOLB   C3D 2039  15.720  10.000  24.620
   85BOLB   C4D 2040  15.420  10.120  24.450
   86BOLB   NC1 2041  18.790  12.790   5.410
   86BOLB   PO1 2042  19.120  12.700   5.670
   86BOLB   GL1 2043  19.450  12.560   5.340
   86BOLB   GL2 2044  19.140  12.620   5.120
   86BOLB   C1A 2045  19.430  12.240   5.050
   86BOLB   C2A 2046  19.290  12.410   4.690
   86BOLB   C3A 2047  19.010  12.500   4.360
   86BOLB   C4A 2048  19.040  12.440   3.980
   86BOLB   C1B 2049  18.880  12.600   4.860
   86BOLB   C2B 2050  18.820  12.130   4.540
   86BOLB   C3B 2051  18.620  11.690   4.260
   86BOLB   C4B 2052  18.330  11.410   4.150
   86BOLB   NC2 2053  20.970  11.380   2.380
   86BOLB   PO2 2054  20.740  11.770   2.400
   86BOLB   GL3 2055  20.310  11.860   2.560
   86BOLB   GL4 2056  20.240  11.580   2.590
   86BOLB   C1C 2057  20.060  12.200   2.820
   86BOLB   C2C 2058  19.880  12.420   3.110
   86BOLB   C3C 2059  19.520  12.410   3.320
   86BOLB   C4C 2060  19.110  12.390   3.540
   86BOLB   C1D 2061  20.110  11.710   3.020
   86BOLB   C2D 2062  20.050  11.670   3.460
   86BOLB   C3D 2063  20.120  11.900   3.870
   86BOLB   C4D 2064  19.810  12.110   4.160
   87BOLB   NC1 2065   3.460  23.940  19.260
   87BOLB   PO1 2066   3.720  24.240  19.110
   87BOLB   GL1 2067   3.780  23.930  18.850
   87BOLB   GL2 2068   3.890  23.650  18.990
   87BOLB   C1A 2069   4.030  23.780  18.520
   87BOLB   C2A 2070   4.310  23.460  18.680
   87BOLB   C3A 2071   4.390  23.140  18.380
   87BOLB   C4A 2072   4.600  22.800  18.380
   87BOLB   C1B 2073   3.810  23.320  18.620
   87BOLB   C2B 2074   3.830  23.060  18.430
   87BOLB   C3B 2075   4.070  22.940  18.060
   87BOLB   C4B 2076   4.400  22.740  17.860
   87BOLB   NC2 2077   2.570  22.130  19.530
   87BOLB   PO2 2078   2.800  22.500  19.190
   87BOLB   GL3 2079   3.040  22.540  18.870
   87BOLB   GL4 2080   3.240  22.830  18.820
   87BOLB   C1C 2081   3.400  22.400  18.610
   87BOLB   C2C 2082   3.670  22.580  18.260
   87BOLB   C3C 2083   3.950  22.450  17.970
   87BOLB   C4C 2084   4.430  22.440  18.250
   87BOLB   C1D 2085   3.680  22.810  18.810
   87BOLB   C2D 2086   3.790  22.460  18.880
   87BOLB   C3D 2087   4.030  22.180  19.000
   87BOLB   C4D 2088   4.420  22.040  19.270
   88BOLB   NC1 2089  19.510  10.030   9.310
   88BOLB   PO1 2090  19.080  10.040   9.130
   88BOLB   GL1 2091  19.270   9.690   8.920
   88BOLB   GL2 2092  19.480   9.500   9.320
   88BOLB   C1A 2093  19.290   9.350   8.740
   88BOLB   C2A 2094  19.170   9.020   8.540
   88BOLB   C3A 2095  19.310   8.630   8.330
   88BOLB   C4A 2096  19.570   8.360   8.040
   88BOLB   C1B 2097  19.500   9.220   9.170
   88BOLB   C2B 2098  19.630   8.930   8.820
   88BOLB   C3B 2099  20.050   8.760   8.710
   88BOLB   C4B 2100  20.140   8.670   8.430
   88BOLB   NC2 2101  21.160   6.380   8.250
   88BOLB   PO2 2102  21.020   6.730   8.070
   88BOLB   GL3 2103  20.730   6.930   8.250
   88BOLB   GL4 2104  20.470   6.810   8.320
   88BOLB   C1C 2105  20.530   7.270   8.080
   88BOLB   C2C 2106  20.250   7.610   8.080
   88BOLB   C3C 2107  19.790   7.760   8.060
   88BOLB   C4C 2108  19.490   8.000   7.930
   88BOLB   C1D 2109  20.100   7.020   8.070
   88BOLB   C2D 2110  19.810   7.260   7.850
   88BOLB   C3D 2111  19.550   7.590   7.590
   88BOLB   C4D 2112  19.140   7.720   7.480
   89BOLB   NC1 2113   5.830   6.890  15.260
   89BOLB   PO1 2114   5.700   7.160  14.970
   89BOLB   GL1 2115   6.190   7.140  14.940
   89BOLB   GL2 2116   6.430   6.850  15.050
   89BOLB   C1A 2117   6.410   7.660  14.950
   89BOLB   C2A 2118   6.830   7.760  15.370
   89BOLB   C3A 2119   6.760   7.590  15.760
   89BOLB   C4A 2120   6.910   7.650  16.150
   89BOLB   C1B 2121   6.710   7.200  15.000
   89BOLB   C2B 2122   7.100   7.430  14.840
   89BOLB   C3B 2123   7.410   7.650  14.680
   89BOLB   C4B 2124   7.660   7.980  14.480
   89BOLB   NC2 2125   6.770   5.310  15.560
   89BOLB   PO2 2126   6.710   5.730  15.630
   89BOLB   GL3 2127   6.830   6.100  15.650
   89BOLB   GL4 2128   7.030   6.180  15.390
   89BOLB   C1C 2129   6.930   6.500  15.970
   89BOLB   C2C 2130   6.860   6.700  16.280
   89BOLB   C3C 2131   6.710   7.050  16.470
   89BOLB   C4C 2132   6.810   7.490  16.520
   89BOLB   C1D 2133   7.260   6.520  15.560
   89BOLB   C2D 2134   7.230   6.930  15.620
   89BOLB   C3D 2135   7.120   7.360  15.530
   89BOLB   C4D 2136   7.360   7.630  15.190
   90BOLB   NC1 2137   9.180   6.470  21.700
   90BOLB   PO1 2138   9.380   6.210  21.300
   90BOLB   GL1 2139   9.580   6.690  21.280
   90BOLB   GL2 2140   9.820   6.790  21.570
   90BOLB   C1A 2141   9.360   7.150  21.060
   90BOLB   C2A 2142   9.570   7.390  20.850
   90BOLB   C3A 2143   9.940   7.340  20.470
   90BOLB   C4A 2144  10.390   7.200  20.490
   90BOLB   C1B 2145   9.790   7.160  21.360
   90BOLB   C2B 2146  10.040   7.560  21.270
   90BOLB   C3B 2147  10.050   7.750  20.860
   90BOLB   C4B 2148   9.750   7.970  20.510
   90BOLB   NC2 2149  10.370   6.490  22.410
   90BOLB   PO2 2150  10.600   6.360  22.130
   90BOLB   GL3 2151  10.500   6.680  21.920
   90BOLB   GL4 2152  10.470   6.920  22.200
   90BOLB   C1C 2153  10.400   6.740  21.520
   90BOLB   C2C 2154  10.140   6.610  21.150
   90BOLB   C3C 2155  10.210   6.590  20.760
   90BOLB   C4C 2156  10.360   6.810  20.480
   90BOLB   C1D 2157  10.780   7.130  22.370
   90BOLB   C2D 2158  10.960   7.590  22.400
   90BOLB   C3D 2159  11.290   7.730  22.320
   90BOLB   C4D 2160  11.560   7.530  22.000
   91BOLB   NC1 2161  11.790   8.220  24.950
   91BOLB   PO1 2162  11.840   8.110  24.540
   91BOLB   GL1 2163  12.160   8.240  24.300
   91BOLB   GL2 2164  12.230   7.960  24.070
   91BOLB   C1A 2165  12.240   8.700  24.190
   91BOLB   C2A 2166  12.170   9.110  24.180
   91BOLB   C3A 2167  11.810   9.250  24.090
   91BOLB   C4A 2168  11.430   9.310  23.900
   91BOLB   C1B 2169  12.640   8.160  24.090
   91BOLB   C2B 2170  13.050   8.280  23.930
   91BOLB   C3B 2171  13.380   8.390  23.950
   91BOLB   C4B 2172  13.500   8.780  23.690
   91BOLB   NC2 2173  10.070   9.140  24.760
   91BOLB   PO2 2174  10.320   9.430  24.940
   91BOLB   GL3 2175  10.280   9.640  24.550
   91BOLB   GL4 2176  10.470   9.580  24.250
   91BOLB   C1C 2177  10.450  10.100  24.420
   91BOLB   C2C 2178  10.880  10.170  24.460
   91BOLB   C3C 2179  11.220   9.970  24.280
   91BOLB   C4C 2180  11.220   9.570  24.060
   91BOLB   C1D 2181  10.710   9.830  24.050
   91BOLB   C2D 2182  10.970   9.970  23.780
   91BOLB   C3D 2183  10.940  10.300  23.580
   91BOLB   C4D 2184  11.110  10.700  23.520
   92BOLB   NC1 2185  12.870  10.340   7.890
   92BOLB   PO1 2186  13.040  10.640   7.560
   92BOLB   GL1 2187  13.160  10.250   7.290
   92BOLB   GL2 2188  12.850  10.200   7.320
   92BOLB   C1A 2189  13.090   9.900   7.040
   92BOLB   C2A 2190  12.810   9.590   6.920
   92BOLB   C3A 2191  12.750   9.320   6.660
   92BOLB   C4A 2192  12.420   9.040   6.460
   92BOLB   C1B 2193  12.690   9.880   7.410
   92BOLB   C2B 2194  12.750   9.560   7.480
   92BOLB   C3B 2195  13.020   9.400   7.700
   92BOLB   C4B 2196  13.040   8.950   7.810
   92BOLB   NC2 2197  11.360   7.300   6.730
   92BOLB   PO2 2198  10.900   7.390   6.620
   92BOLB   GL3 2199  11.020   7.790   6.780
   92BOLB   GL4 2200  10.880   7.900   7.080
   92BOLB   C1C 2201  11.090   8.280   6.720
   92BOLB   C2C 2202  11.360   8.640   6.490
   92BOLB   C3C 2203  11.540   9.020   6.330
   92BOLB   C4C 2204  11.960   8.900   6.260
   92BOLB   C1D 2205  10.790   8.030   7.630
   92BOLB   C2D 2206  10.600   7.840   7.870
   92BOLB   C3D 2207  10.190   7.840   8.150
   92BOLB   C4D 2208   9.940   8.050   8.450
   93BOLB   NC1 2209  18.220  15.260  19.200
   93BOLB   PO1 2210  18.440  15.050  19.520
   93BOLB   GL1 2211  18.760  14.950  19.840
   93BOLB   GL2 2212  19.060  14.610  19.740
   93BOLB   C1A 2213  19.040  14.810  20.170
   93BOLB   C2A 2214  19.370  14.650  20.410
   93BOLB   C3A 2215  19.820  14.590  20.610
   93BOLB   C4A 2216  19.880  14.440  21.050
   93BOLB   C1B 2217  19.230  14.230  20.070
   93BOLB   C2B 2218  19.030  14.030  20.430
   93BOLB   C3B 2219  19.110  13.910  20.940
   93BOLB   C4B 2220  18.870  14.080  21.240
   93BOLB   NC2 2221  21.590  13.660  22.750
   93BOLB   PO2 2222  21.550  13.910  22.350
   93BOLB   GL3 2223  21.440  13.840  22.020
   93BOLB   GL4 2224  21.340  13.620  21.960
   93BOLB   C1C 2225  21.000  13.930  21.980
   93BOLB   C2C 2226  20.540  13.910  21.910
   93BOLB   C3C 2227  20.310  14.140  21.630
   93BOLB   C4C 2228  19.990  14.280  21.410
   93BOLB   C1D 2229  21.330  13.760  21.490
   93BOLB   C2D 2230  21.350  14.120  21.140
   93BOLB   C3D 2231  21.240  14.490  21.160
   93BOLB   C4D 2232  20.920  14.650  20.880
   94BOLB   NC1 2233  19.720  16.880  18.820
   94BOLB   PO1 2234  20.150  16.610  18.870
   94BOLB   GL1 2235  20.450  16.810  19.130
   94BOLB   GL2 2236  20.580  16.540  19.260
   94BOLB   C1A 2237  20.570  16.920  19.570
   94BOLB   C2A 2238  20.780  17.160  19.880
   94BOLB   C3A 2239  21.110  17.170  20.210
   94BOLB   C4A 2240  21.440  17.000  20.450
   94BOLB   C1B 2241  20.850  16.460  19.570
   94BOLB   C2B 2242  21.170  16.300  19.740
   94BOLB   C3B 2243  21.420  16.080  19.910
   94BOLB   C4B 2244  21.700  15.710  19.910
   94BOLB   NC2 2245  23.120  18.530  21.870
   94BOLB   PO2 2246  23.390  18.140  21.910
   94BOLB   GL3 2247  22.990  18.000  21.730
   94BOLB   GL4 2248  22.890  17.820  21.400
   94BOLB   C1C 2249  22.510  17.880  21.750
   94BOLB   C2C 2250  22.230  17.710  21.370
   94BOLB   C3C 2251  21.940  17.480  21.170
   94BOLB   C4C 2252  21.710  17.100  20.930
   94BOLB   C1D 2253  22.930  18.110  21.020
   94BOLB   C2D 2254  23.030  18.160  20.610
   94BOLB   C3D 2255  23.170  18.360  20.220
   94BOLB   C4D 2256  23.540  18.510  19.990
   95BOLB   NC1 2257  16.680   7.710  23.570
   95BOLB   PO1 2258  16.700   7.370  23.250
   95BOLB   GL1 2259  16.460   7.650  22.970
   95BOLB   GL2 2260  16.280   7.730  23.230
   95BOLB   C1A 2261  16.290   7.780  22.570
   95BOLB   C2A 2262  15.860   7.910  22.360
   95BOLB   C3A 2263  15.530   8.110  22.480
   95BOLB   C4A 2264  15.470   8.440  22.750
   95BOLB   C1B 2265  16.110   8.130  23.080
   95BOLB   C2B 2266  15.980   8.360  22.690
   95BOLB   C3B 2267  15.840   8.790  22.640
   95BOLB   C4B 2268  16.180   9.080  22.760
   95BOLB   NC2 2269  14.110   7.360  24.990
   95BOLB   PO2 2270  14.410   7.640  24.840
   95BOLB   GL3 2271  14.610   7.930  24.540
   95BOLB   GL4 2272  14.280   8.020  24.580
   95BOLB   C1C 2273  14.850   8.260  24.330
   95BOLB   C2C 2274  14.930   8.470  23.950
   95BOLB   C3C 2275  15.020   8.440  23.540
   95BOLB   C4C 2276  15.260   8.560  23.140
   95BOLB   C1D 2277  14.410   8.260  24.150
   95BOLB   C2D 2278  14.440   8.580  23.900
   95BOLB   C3D 2279  14.560   8.690  23.550
   95BOLB   C4D 2280  14.870   8.830  23.300
   96BOLB   NC1 2281   8.890  13.830  26.240
   96BOLB   PO1 2282   8.820  14.170  26.050
   96BOLB   GL1 2283   9.150  13.970  25.750
   96BOLB   GL2 2284   9.440  13.920  25.970
   96BOLB   C1A 2285   9.240  13.980  25.360
   96BOLB   C2A 2286   9.380  13.700  25.190
   96BOLB   C3A 2287   9.710  13.350  25.170
   96BOLB   C4A 2288  10.030  13.040  24.980
   96BOLB   C1B 2289   9.740  14.210  25.740
   96BOLB   C2B 2290   9.990  14.390  25.430
   96BOLB   C3B 2291  10.340  14.600  25.330
   96BOLB   C4B 2292  10.700  14.740  25.480
   96BOLB   NC2 2293  10.860  11.980  26.960
   96BOLB   PO2 2294  10.780  11.920  26.530
   96BOLB   GL3 2295  11.100  12.070  26.220
   96BOLB   GL4 2296  11.240  11.750  26.020
   96BOLB   C1C 2297  11.060  12.340  25.860
   96BOLB   C2C 2298  10.810  12.750  25.800
   96BOLB   C3C 2299  10.840  12.860  25.350
   96BOLB   C4C 2300  10.530  13.020  25.070
   96BOLB   C1D 2301  11.230  11.710  25.620
   96BOLB   C2D 2302  11.250  12.070  25.400
   96BOLB   C3D 2303  11.200  12.530  25.390
   96BOLB   C4D 2304  11.390  12.980  25.370
   97BOLB   NC1 2305  13.180  13.440   5.120
   97BOLB   PO1 2306  12.940  13.320   5.400
   97BOLB   GL1 2307  12.710  13.440   5.030
   97BOLB   GL2 2308  12.460  13.730   4.980
   97BOLB   C1A 2309  12.600  13.330   4.600
   97BOLB   C2A 2310  12.380  13.240   4.270
   97BOLB   C3A 2311  12.280  13.040   3.810
   97BOLB   C4A 2312  12.410  12.770   3.490
   97BOLB   C1B 2313  12.170  13.390   4.860
   97BOLB   C2B 2314  12.010  13.050   4.660
   97BOLB   C3B 2315  11.740  12.750   4.550
   97BOLB   C4B 2316  11.690  12.440   4.240
   97BOLB   NC2 2317  11.200  11.360   1.730
   97BOLB   PO2 2318  11.570  11.150   1.900
   97BOLB   GL3 2319  11.870  11.320   2.160
   97BOLB   GL4 2320  12.010  11.060   2.400
   97BOLB   C1C 2321  12.080  11.640   2.460
   97BOLB   C2C 2322  12.410  11.900   2.420
   97BOLB   C3C 2323  12.670  12.220   2.740
   97BOLB   C4C 2324  12.550  12.410   3.180
   97BOLB   C1D 2325  12.180  11.250   2.790
   97BOLB   C2D 2326  12.240  11.360   3.160
   97BOLB   C3D 2327  12.130  11.270   3.540
   97BOLB   C4D 2328  12.080  10.950   3.840
   98BOLB   NC1 2329   1.160  16.860  12.260
   98BOLB   PO1 2330   1.600  16.860  12.340
   98BOLB   GL1 2331   1.860  16.870  12.770
   98BOLB   GL2 2332   1.700  17.160  12.900
   98BOLB   C1A 2333   1.980  16.800  13.200
   98BOLB   C2A 2334   2.220  16.820  13.550
   98BOLB   C3A 2335   2.570  16.830  13.730
   98BOLB   C4A 2336   2.910  16.500  13.790
   98BOLB   C1B 2337   2.050  17.260  13.350
   98BOLB   C2B 2338   2.440  17.370  13.550
   98BOLB   C3B 2339   2.700  17.460  13.930
   98BOLB   C4B 2340   2.960  17.730  13.950
   98BOLB   NC2 2341   1.620  16.010  12.110
   98BOLB   PO2 2342   1.550  15.710  12.380
   98BOLB   GL3 2343   1.880  15.790  12.670
   98BOLB   GL4 2344   2.070  16.070  12.810
   98BOLB   C1C 2345   2.250  15.580  12.910
   98BOLB   C2C 2346   2.650  15.570  13.080
   98BOLB   C3C 2347   3.010  15.770  13.340
   98BOLB   C4C 2348   3.110  16.040  13.710
   98BOLB   C1D 2349   2.510  16.100  12.710
   98BOLB   C2D 2350   2.780  16.430  12.800
   98BOLB   C3D 2351   3.170  16.630  12.960
   98BOLB   C4D 2352   3.680  16.610  13.010
   99BOLB   NC1 2353   5.130  23.720  23.100
   99BOLB   PO1 2354   5.250  23.540  22.590
   99BOLB   GL1 2355   5.570  23.500  22.770
   99BOLB   GL2 2356   5.660  23.180  22.800
   99BOLB   C1A 2357   5.950  23.790  22.790
   99BOLB   C2A 2358   6.290  23.990  22.570
   99BOLB   C3A 2359   6.560  24.160  22.130
   99BOLB   C4A 2360   6.760  24.500  21.840
   99BOLB   C1B 2361   6.070  23.440  22.500
   99BOLB   C2B 2362   6.450  23.670  22.270
   99BOLB   C3B 2363   6.880  23.780  22.110
   99BOLB   C4B 2364   7.150  24.090  21.930
   99BOLB   NC2 2365   7.870  26.420  22.220
   99BOLB   PO2 2366   8.260  26.370  22.350
   99BOLB   GL3 2367   8.180  26.070  21.970
   99BOLB   GL4 2368   8.000  26.150  21.690
   99BOLB   C1C 2369   8.100  25.630  21.860
   99BOLB   C2C 2370   7.810  25.240  21.770
   99BOLB   C3C 2371   7.370  25.170  21.770
   99BOLB   C4C 2372   7.190  24.760  21.790
   99BOLB   C1D 2373   8.030  25.880  21.460
   99BOLB   C2D 2374   7.860  25.770  21.060
   99BOLB   C3D 2375   7.850  25.540  20.740
   99BOLB   C4D 2376   8.290  25.380  20.650
  100BOLB   NC1 2377  18.330   9.640  23.170
  100BOLB   PO1 2378  18.630   9.970  23.030
  100BOLB   GL1 2379  18.180  10.000  22.810
  100BOLB   GL2 2380  18.210  10.310  22.820
  100BOLB   C1A 2381  17.830  10.010  22.540
  100BOLB   C2A 2382  17.370   9.880  22.420
  100BOLB   C3A 2383  17.060   9.640  22.640
  100BOLB   C4A 2384  16.630   9.590  22.840
  100BOLB   C1B 2385  17.770  10.460  22.760
  100BOLB   C2B 2386  17.430  10.730  22.600
  100BOLB   C3B 2387  17.310  11.060  22.450
  100BOLB   C4B 2388  17.440  11.470  22.600
  100BOLB   NC2 2389  17.680   8.670  24.450
  100BOLB   PO2 2390  17.780   9.100  24.270
  100BOLB   GL3 2391  17.450   9.420  24.100
  100BOLB   GL4 2392  17.340   9.230  23.910
  100BOLB   C1C 2393  17.290   9.830  24.050
  100BOLB   C2C 2394  16.900  10.100  23.870
  100BOLB   C3C 2395  16.630  10.030  23.540
  100BOLB   C4C 2396  16.340   9.820  23.200
  100BOLB   C1D 2397  17.320   8.790  23.700
  100BOLB   C2D 2398  17.060   8.480  23.660
  100BOLB   C3D 2399  16.760   8.350  23.520
  100BOLB   C4D 2400  16.340   8.490  23.370
  101BOLB   NC1 2401   9.230  16.410   2.490
  101BOLB   PO1 2402   9.640  16.220   2.360
  101BOLB   GL1 2403   9.730  16.370   2.840
  101BOLB   GL2 2404  10.120  16.500   2.750
  101BOLB   C1A 2405   9.820  16.280   3.260
  101BOLB   C2A 2406  10.090  16.220   3.610
  101BOLB   C3A 2407  10.330  15.990   3.730
  101BOLB   C4A 2408  10.320  15.530   3.810
  101BOLB   C1B 2409  10.170  16.640   3.160
  101BOLB   C2B 2410  10.160  16.960   3.420
  101BOLB   C3B 2411  10.510  17.160   3.650
  101BOLB   C4B 2412  10.780  17.440   3.420
  101BOLB   NC2 2413  10.450  14.360   1.340
  101BOLB   PO2 2414  10.650  14.750   1.490
  101BOLB   GL3 2415  10.540  14.880   1.860
  101BOLB   GL4 2416  10.800  15.100   1.920
  101BOLB   C1C 2417  10.490  14.950   2.320
  101BOLB   C2C 2418  10.240  14.950   2.720
  101BOLB   C3C 2419   9.980  14.970   3.160
  101BOLB   C4C 2420  10.090  15.180   3.500
  101BOLB   C1D 2421  10.940  15.170   2.330
  101BOLB   C2D 2422  11.000  15.400   2.670
  101BOLB   C3D 2423  11.080  15.500   3.160
  101BOLB   C4D 2424  11.240  15.520   3.600
  102BOLB   NC1 2425  22.080  23.500  12.480
  102BOLB   PO1 2426  22.030  23.420  12.080
  102BOLB   GL1 2427  22.300  23.710  12.020
  102BOLB   GL2 2428  22.630  23.670  11.900
  102BOLB   C1A 2429  22.480  24.080  12.030
  102BOLB   C2A 2430  22.710  24.410  12.160
  102BOLB   C3A 2431  22.750  24.760  11.980
  102BOLB   C4A 2432  22.690  25.160  11.960
  102BOLB   C1B 2433  22.850  23.970  11.650
  102BOLB   C2B 2434  22.710  24.280  11.620
  102BOLB   C3B 2435  22.290  24.450  11.530
  102BOLB   C4B 2436  22.460  24.890  11.480
  102BOLB   NC2 2437  23.860  27.030  11.590
  102BOLB   PO2 2438  23.410  27.150  11.570
  102BOLB   GL3 2439  23.310  26.790  11.740
  102BOLB   GL4 2440  23.590  26.560  11.770
  102BOLB   C1C 2441  22.900  26.620  11.890
  102BOLB   C2C 2442  22.490  26.340  11.820
  102BOLB   C3C 2443  22.450  25.940  11.960
  102BOLB   C4C 2444  22.660  25.510  12.130
  102BOLB   C1D 2445  23.260  26.290  11.720
  102BOLB   C2D 2446  22.930  26.040  11.570
  102BOLB   C3D 2447  22.780  25.740  11.370
  102BOLB   C4D 2448  22.720  25.620  10.940
  103BOLB   NC1 2449   7.650  24.390  24.250
  103BOLB   PO1 2450   7.740  24.690  23.960
  103BOLB   GL1 2451   8.000  24.310  23.740
  103BOLB   GL2 2452   7.800  24.050  23.790
  103BOLB   C1A 2453   8.350  24.200  23.600
  103BOLB   C2A 2454   8.420  23.920  23.310
  103BOLB   C3A 2455   8.330  23.590  23.010
  103BOLB   C4A 2456   8.220  23.370  22.690
  103BOLB   C1B 2457   8.120  23.760  23.680
  103BOLB   C2B 2458   8.540  23.690  23.760
  103BOLB   C3B 2459   8.810  23.450  23.880
  103BOLB   C4B 2460   9.100  23.190  23.860
  103BOLB   NC2 2461   6.300  24.320  23.740
  103BOLB   PO2 2462   6.560  24.020  23.770
  103BOLB   GL3 2463   6.880  23.850  23.520
  103BOLB   GL4 2464   7.230  23.940  23.570
  103BOLB   C1C 2465   7.140  23.440  23.380
  103BOLB   C2C 2466   7.420  23.250  23.200
  103BOLB   C3C 2467   7.570  23.110  22.890
  103BOLB   C4C 2468   7.860  23.070  22.660
  103BOLB   C1D 2469   7.140  24.160  23.160
  103BOLB   C2D 2470   7.240  24.050  22.730
  103BOLB   C3D 2471   7.350  23.950  22.350
  103BOLB   C4D 2472   7.670  23.800  22.010
  104BOLB   NC1 2473  16.080  18.630  27.680
  104BOLB   PO1 2474  15.850  18.800  27.290
  104BOLB   GL1 2475  15.730  18.720  26.910
  104BOLB   GL2 2476  15.890  18.810  26.690
  104BOLB   C1A 2477  15.390  18.710  26.630
  104BOLB   C2A 2478  15.210  18.540  26.330
  104BOLB   C3A 2479  14.870  18.310  26.040
  104BOLB   C4A 2480  14.500  18.370  26.030
  104BOLB   C1B 2481  15.920  18.560  26.250
  104BOLB   C2B 2482  15.730  18.730  25.820
  104BOLB   C3B 2483  15.810  18.860  25.360
  104BOLB   C4B 2484  15.530  18.720  25.050
  104BOLB   NC2 2485  13.740  20.510  27.570
  104BOLB   PO2 2486  14.030  20.130  27.490
  104BOLB   GL3 2487  13.880  19.790  27.110
  104BOLB   GL4 2488  13.720  19.430  27.210
  104BOLB   C1C 2489  13.850  19.600  26.690
  104BOLB   C2C 2490  13.880  19.350  26.390
  104BOLB   C3C 2491  13.830  18.970  26.220
  104BOLB   C4C 2492  14.220  18.690  26.130
  104BOLB   C1D 2493  13.900  19.130  26.980
  104BOLB   C2D 2494  14.190  18.850  26.660
  104BOLB   C3D 2495  14.400  18.500  26.590
  104BOLB   C4D 2496  14.780  18.370  26.550
  105BOLB   NC1 2497   2.750  17.600  20.370
  105BOLB   PO1 2498   2.780  17.300  20.740
  105BOLB   GL1 2499   3.170  17.290  20.750
  105BOLB   GL2 2500   3.210  17.590  20.610
  105BOLB   C1A 2501   3.530  17.150  20.450
  105BOLB   C2A 2502   3.980  17.020  20.470
  105BOLB   C3A 2503   4.440  17.140  20.470
  105BOLB   C4A 2504   4.730  17.300  20.590
  105BOLB   C1B 2505   3.620  17.610  20.350
  105BOLB   C2B 2506   3.600  17.760  20.010
  105BOLB   C3B 2507   3.300  17.720  19.690
  105BOLB   C4B 2508   3.240  17.790  19.260
  105BOLB   NC2 2509   4.300  16.300  23.010
  105BOLB   PO2 2510   4.400  16.470  22.710
  105BOLB   GL3 2511   4.740  16.430  22.310
  105BOLB   GL4 2512   5.030  16.240  22.430
  105BOLB   C1C 2513   4.810  16.720  22.020
  105BOLB   C2C 2514   4.850  16.920  21.650
  105BOLB   C3C 2515   4.920  17.210  21.340
  105BOLB   C4C 2516   4.840  17.410  20.950
  105BOLB   C1D 2517   5.300  16.610  22.290
  105BOLB   C2D 2518   5.490  16.910  22.080
  105BOLB   C3D 2519   5.890  16.990  22.010
  105BOLB   C4D 2520   6.290  16.920  22.240
  106BOLB   NC1 2521   4.580  23.780  21.920
  106BOLB   PO1 2522   4.650  23.420  21.940
  106BOLB   GL1 2523   4.860  23.050  21.880
  106BOLB   GL2 2524   5.140  23.040  21.850
  106BOLB   C1A 2525   5.130  22.850  21.450
  106BOLB   C2A 2526   5.080  22.620  21.150
  106BOLB   C3A 2527   4.950  22.280  20.850
  106BOLB   C4A 2528   4.990  21.980  20.460
  106BOLB   C1B 2529   5.550  23.100  21.790
  106BOLB   C2B 2530   5.880  22.940  21.650
  106BOLB   C3B 2531   6.170  22.720  21.270
  106BOLB   C4B 2532   6.580  22.550  21.130
  106BOLB   NC2 2533   2.890  23.050  20.050
  106BOLB   PO2 2534   3.240  22.740  19.850
  106BOLB   GL3 2535   3.650  22.700  19.710
  106BOLB   GL4 2536   3.560  22.590  19.440
  106BOLB   C1C 2537   4.110  22.500  19.690
  106BOLB   C2C 2538   4.550  22.280  19.800
  106BOLB   C3C 2539   4.880  22.090  19.890
  106BOLB   C4C 2540   5.100  21.910  20.090
  106BOLB   C1D 2541   3.430  22.200  19.170
  106BOLB   C2D 2542   3.540  21.970  18.870
  106BOLB   C3D 2543   3.560  21.900  18.420
  106BOLB   C4D 2544   3.730  21.430  18.270
  107BOLB   NC1 2545   8.690   7.720  23.060
  107BOLB   PO1 2546   8.890   8.120  22.770
  107BOLB   GL1 2547   9.080   8.400  22.480
  107BOLB   GL2 2548   9.050   8.180  22.180
  107BOLB   C1A 2549   9.240   8.810  22.120
  107BOLB   C2A 2550   9.240   9.010  21.730
  107BOLB   C3A 2551   9.170   9.050  21.290
  107BOLB   C4A 2552   9.330   8.810  20.940
  107BOLB   C1B 2553   8.830   8.520  22.020
  107BOLB   C2B 2554   8.880   8.530  21.540
  107BOLB   C3B 2555   8.770   8.840  21.160
  107BOLB   C4B 2556   8.710   9.160  20.980
  107BOLB   NC2 2557   8.940   6.030  20.490
  107BOLB   PO2 2558   8.700   6.410  20.380
  107BOLB   GL3 2559   8.700   6.840  20.550
  107BOLB   GL4 2560   8.950   6.890  20.320
  107BOLB   C1C 2561   8.970   7.220  20.750
  107BOLB   C2C 2562   9.150   7.690  20.900
  107BOLB   C3C 2563   9.330   8.030  20.770
  107BOLB   C4C 2564   9.490   8.380  20.790
  107BOLB   C1D 2565   8.750   7.090  19.890
  107BOLB   C2D 2566   8.500   7.370  19.780
  107BOLB   C3D 2567   8.570   7.790  20.010
  107BOLB   C4D 2568   8.410   8.110  20.140
  108BOLB   NC1 2569  11.610  15.060  28.050
  108BOLB   PO1 2570  12.030  14.890  27.880
  108BOLB   GL1 2571  12.100  14.650  27.570
  108BOLB   GL2 2572  11.810  14.530  27.560
  108BOLB   C1A 2573  12.160  14.460  27.150
  108BOLB   C2A 2574  11.950  14.140  26.790
  108BOLB   C3A 2575  11.900  13.820  26.440
  108BOLB   C4A 2576  12.140  13.750  26.100
  108BOLB   C1B 2577  11.610  14.390  27.210
  108BOLB   C2B 2578  11.370  14.200  26.830
  108BOLB   C3B 2579  11.070  13.970  26.770
  108BOLB   C4B 2580  10.900  13.900  26.350
  108BOLB   NC2 2581  13.870  13.070  27.960
  108BOLB   PO2 2582  13.610  12.830  27.630
  108BOLB   GL3 2583  13.370  12.770  27.310
  108BOLB   GL4 2584  13.320  12.530  27.120
  108BOLB   C1C 2585  13.050  13.020  27.100
  108BOLB   C2C 2586  13.020  13.080  26.680
  108BOLB   C3C 2587  12.740  13.270  26.460
  108BOLB   C4C 2588  12.610  13.570  26.170
  108BOLB   C1D 2589  13.010  12.600  26.740
  108BOLB   C2D 2590  13.100  12.770  26.330
  108BOLB   C3D 2591  13.350  13.190  26.290
  108BOLB   C4D 2592  13.270  13.610  26.250
  109BOLB   NC1 2593  18.130   8.680  22.870
  109BOLB   PO1 2594  18.130   8.760  22.350
  109BOLB   GL1 2595  17.780   8.600  22.130
  109BOLB   GL2 2596  17.810   8.630  21.770
  109BOLB   C1A 2597  17.400   8.480  22.370
  109BOLB   C2A 2598  16.950   8.420  22.290
  109BOLB   C3A 2599  16.640   8.410  21.880
  109BOLB   C4A 2600  16.240   8.230  21.760
  109BOLB   C1B 2601  17.370   8.560  21.890
  109BOLB   C2B 2602  17.060   8.730  21.970
  109BOLB   C3B 2603  16.690   8.870  22.020
  109BOLB   C4B 2604  16.410   8.780  22.440
  109BOLB   NC2 2605  17.000   6.960  21.030
  109BOLB   PO2 2606  17.290   7.270  20.820
  109BOLB   GL3 2607  17.180   7.650  20.780
  109BOLB   GL4 2608  17.090   7.850  20.460
  109BOLB   C1C 2609  16.980   8.170  20.790
  109BOLB   C2C 2610  16.620   8.270  20.660
  109BOLB   C3C 2611  16.350   8.100  20.940
  109BOLB   C4C 2612  16.150   8.180  21.320
  109BOLB   C1D 2613  16.940   8.310  20.290
  109BOLB   C2D 2614  16.930   8.840  20.190
  109BOLB   C3D 2615  16.930   9.260  20.120
  109BOLB   C4D 2616  17.290   9.460  20.050
  110BOLB   NC1 2617   1.580  11.630  13.700
  110BOLB   PO1 2618   1.910  11.840  14.020
  110BOLB   GL1 2619   2.240  11.610  14.220
  110BOLB   GL2 2620   2.480  11.590  13.940
  110BOLB   C1A 2621   2.640  11.490  14.390
  110BOLB   C2A 2622   2.940  11.310  14.040
  110BOLB   C3A 2623   3.270  11.190  14.100
  110BOLB   C4A 2624   3.540  10.910  13.890
  110BOLB   C1B 2625   2.570  11.950  14.160
  110BOLB   C2B 2626   2.850  12.250  14.440
  110BOLB   C3B 2627   3.100  12.620  14.480
  110BOLB   C4B 2628   3.150  13.040  14.570
  110BOLB   NC2 2629   3.350   9.000  13.050
  110BOLB   PO2 2630   3.680   8.930  12.740
  110BOLB   GL3 2631   3.920   9.240  12.760
  110BOLB   GL4 2632   4.190   9.110  12.980
  110BOLB   C1C 2633   4.000   9.710  13.100
  110BOLB   C2C 2634   3.690  10.090  13.070
  110BOLB   C3C 2635   3.470  10.500  13.200
  110BOLB   C4C 2636   3.510  10.870  13.480
  110BOLB   C1D 2637   4.490   9.530  13.190
  110BOLB   C2D 2638   4.750   9.710  12.950
  110BOLB   C3D 2639   5.120   9.620  12.710
  110BOLB   C4D 2640   5.160   9.570  12.220
  111BOLB   NC1 2641  14.800  25.340  14.930
  111BOLB   PO1 2642  14.510  25.580  14.840
  111BOLB   GL1 2643  14.460  25.910  15.100
  111BOLB   GL2 2644  14.750  26.020  15.060
  111BOLB   C1A 2645  14.210  26.310  15.350
  111BOLB   C2A 2646  14.150  26.700  15.520
  111BOLB   C3A 2647  14.110  26.830  15.940
  111BOLB   C4A 2648  14.190  27.100  16.370
  111BOLB   C1B 2649  14.580  26.450  15.000
  111BOLB   C2B 2650  14.290  26.640  14.970
  111BOLB   C3B 2651  14.170  27.010  15.080
  111BOLB   C4B 2652  14.290  27.380  15.340
  111BOLB   NC2 2653  13.210  29.210  17.620
  111BOLB   PO2 2654  13.290  28.790  17.290
  111BOLB   GL3 2655  13.280  28.540  17.140
  111BOLB   GL4 2656  12.980  28.440  17.140
  111BOLB   C1C 2657  13.510  28.340  16.770
  111BOLB   C2C 2658  13.610  28.070  16.460
  111BOLB   C3C 2659  13.920  27.860  16.370
  111BOLB   C4C 2660  14.110  27.500  16.540
  111BOLB   C1D 2661  13.050  28.100  16.880
  111BOLB   C2D 2662  13.350  27.790  16.780
  111BOLB   C3D 2663  13.760  27.770  17.110
  111BOLB   C4D 2664  13.740  27.880  17.580
  112BOLB   NC1 2665   6.130   5.870  17.280
  112BOLB   PO1 2666   6.090   6.300  17.450
  112BOLB   GL1 2667   6.240   6.650  17.410
  112BOLB   GL2 2668   6.290   6.690  17.120
  112BOLB   C1A 2669   6.570   6.890  17.580
  112BOLB   C2A 2670   7.020   6.740  17.730
  112BOLB   C3A 2671   7.240   6.500  17.960
  112BOLB   C4A 2672   7.640   6.520  18.200
  112BOLB   C1B 2673   6.660   7.110  17.120
  112BOLB   C2B 2674   6.670   7.590  17.060
  112BOLB   C3B 2675   6.780   7.900  16.840
  112BOLB   C4B 2676   7.090   8.020  16.440
  112BOLB   NC2 2677   9.100   5.640  19.370
  112BOLB   PO2 2678   8.980   5.690  18.990
  112BOLB   GL3 2679   8.760   6.060  19.200
  112BOLB   GL4 2680   8.710   6.190  19.520
  112BOLB   C1C 2681   8.920   6.400  18.970
  112BOLB   C2C 2682   8.720   6.480  18.580
  112BOLB   C3C 2683   8.480   6.640  18.180
  112BOLB   C4C 2684   8.100   6.510  18.110
  112BOLB   C1D 2685   8.620   6.630  19.330
  112BOLB   C2D 2686   8.430   7.100  19.390
  112BOLB   C3D 2687   8.430   7.590  19.280
  112BOLB   C4D 2688   8.320   7.950  18.950
  113BOLB   NC1 2689  12.750  13.770  27.560
  113BOLB   PO1 2690  12.880  14.150  27.790
  113BOLB   GL1 2691  12.930  14.300  27.340
  113BOLB   GL2 2692  13.150  14.110  27.410
  113BOLB   C1A 2693  12.970  14.270  26.940
  113BOLB   C2A 2694  12.570  14.360  26.710
  113BOLB   C3A 2695  12.450  14.550  26.390
  113BOLB   C4A 2696  12.030  14.360  26.350
  113BOLB   C1B 2697  13.480  14.360  27.240
  113BOLB   C2B 2698  13.480  14.550  26.890
  113BOLB   C3B 2699  13.220  14.580  26.590
  113BOLB   C4B 2700  12.940  14.630  26.220
  113BOLB   NC2 2701  10.420  15.410  27.600
  113BOLB   PO2 2702  10.710  15.440  27.270
  113BOLB   GL3 2703  11.000  15.290  27.040
  113BOLB   GL4 2704  11.270  15.520  26.970
  113BOLB   C1C 2705  10.960  15.120  26.650
  113BOLB   C2C 2706  11.220  14.990  26.290
  113BOLB   C3C 2707  11.640  14.900  26.040
  113BOLB   C4C 2708  11.970  14.610  25.970
  113BOLB   C1D 2709  11.500  15.910  26.890
  113BOLB   C2D 2710  11.710  15.960  26.470
  113BOLB   C3D 2711  11.830  16.000  26.160
  113BOLB   C4D 2712  12.000  15.820  25.790
  114BOLB   NC1 2713   4.590   8.600  19.070
  114BOLB   PO1 2714   5.010   8.800  18.940
  114BOLB   GL1 2715   5.040   9.180  18.650
  114BOLB   GL2 2716   4.770   9.440  18.440
  114BOLB   C1A 2717   5.330   9.410  18.440
  114BOLB   C2A 2718   5.740   9.540  18.260
  114BOLB   C3A 2719   6.120   9.420  18.150
  114BOLB   C4A 2720   6.270   9.160  17.790
  114BOLB   C1B 2721   5.110   9.630  18.100
  114BOLB   C2B 2722   5.500   9.770  17.890
  114BOLB   C3B 2723   5.960   9.660  17.570
  114BOLB   C4B 2724   5.980   9.460  17.120
  114BOLB   NC2 2725   5.010   7.720  16.590
  114BOLB   PO2 2726   4.890   7.850  16.950
  114BOLB   GL3 2727   5.080   8.270  17.290
  114BOLB   GL4 2728   5.140   8.570  17.280
  114BOLB   C1C 2729   5.360   8.290  17.640
  114BOLB   C2C 2730   5.760   8.120  17.720
  114BOLB   C3C 2731   6.130   8.300  17.540
  114BOLB   C4C 2732   6.270   8.760  17.690
  114BOLB   C1D 2733   5.400   8.960  17.280
  114BOLB   C2D 2734   5.500   9.440  17.180
  114BOLB   C3D 2735   5.500   9.720  17.440
  114BOLB   C4D 2736   5.530  10.180  17.460
  115BOLB   NC1 2737  22.860  21.830   9.350
  115BOLB   PO1 2738  22.770  21.570   9.040
  115BOLB   GL1 2739  23.040  21.740   8.680
  115BOLB   GL2 2740  23.370  21.620   8.680
  115BOLB   C1A 2741  23.330  22.120   8.530
  115BOLB   C2A 2742  23.600  22.380   8.380
  115BOLB   C3A 2743  23.700  22.560   7.930
  115BOLB   C4A 2744  23.490  22.750   7.580
  115BOLB   C1B 2745  23.670  21.760   8.420
  115BOLB   C2B 2746  24.040  21.600   8.290
  115BOLB   C3B 2747  24.450  21.460   8.400
  115BOLB   C4B 2748  24.860  21.650   8.520
  115BOLB   NC2 2749  24.560  23.660   5.090
  115BOLB   PO2 2750  24.200  23.490   5.360
  115BOLB   GL3 2751  24.140  23.430   5.840
  115BOLB   GL4 2752  24.280  23.570   6.060
  115BOLB   C1C 2753  23.760  23.280   6.080
  115BOLB   C2C 2754  23.640  23.060   6.370
  115BOLB   C3C 2755  23.410  23.190   6.840
  115BOLB   C4C 2756  23.450  23.110   7.260
  115BOLB   C1D 2757  24.310  23.700   6.400
  115BOLB   C2D 2758  24.410  23.600   6.840
  115BOLB   C3D 2759  24.360  23.410   7.190
  115BOLB   C4D 2760  24.250  23.200   7.610
  116BOLB   NC1 2761  16.580  14.170  28.530
  116BOLB   PO1 2762  16.650  14.300  28.000
  116BOLB   GL1 2763  16.450  14.510  27.600
  116BOLB   GL2 2764  16.630  14.770  27.370
  116BOLB   C1A 2765  16.230  14.710  27.130
  116BOLB   C2A 2766  16.160  14.610  26.650
  116BOLB   C3A 2767  15.810  14.690  26.400
  116BOLB   C4A 2768  15.420  14.690  26.480
  116BOLB   C1B 2769  16.620  14.450  27.020
  116BOLB   C2B 2770  16.220  14.190  26.880
  116BOLB   C3B 2771  16.040  14.170  26.420
  116BOLB   C4B 2772  15.620  14.190  26.230
  116BOLB   NC2 2773  15.740  13.830  27.760
  116BOLB   PO2 2774  15.710  13.400  27.930
  116BOLB   GL3 2775  15.400  13.520  27.610
  116BOLB   GL4 2776  15.560  13.520  27.410
  116BOLB   C1C 2777  15.110  13.800  27.430
  116BOLB   C2C 2778  14.950  13.980  27.150
  116BOLB   C3C 2779  15.030  14.160  26.770
  116BOLB   C4C 2780  15.130  14.350  26.430
  116BOLB   C1D 2781  15.890  13.340  27.120
  116BOLB   C2D 2782  15.880  13.110  26.740
  116BOLB   C3D 2783  15.960  13.180  26.290
  116BOLB   C4D 2784  16.000  13.290  25.880
  117BOLB   NC1 2785  13.060  17.710   4.490
  117BOLB   PO1 2786  12.910  17.780   4.850
  117BOLB   GL1 2787  12.540  17.600   4.770
  117BOLB   GL2 2788  12.290  17.390   4.720
  117BOLB   C1A 2789  12.250  17.830   4.410
  117BOLB   C2A 2790  12.030  18.150   4.240
  117BOLB   C3A 2791  11.650  18.080   4.050
  117BOLB   C4A 2792  11.330  18.330   3.970
  117BOLB   C1B 2793  12.180  17.210   4.360
  117BOLB   C2B 2794  12.240  16.870   4.060
  117BOLB   C3B 2795  12.360  16.680   3.660
  117BOLB   C4B 2796  12.390  16.670   3.300
  117BOLB   NC2 2797   9.670  19.280   2.610
  117BOLB   PO2 2798   9.370  18.910   2.780
  117BOLB   GL3 2799   9.600  18.930   3.130
  117BOLB   GL4 2800   9.350  18.930   3.480
  117BOLB   C1C 2801  10.050  18.860   3.350
  117BOLB   C2C 2802  10.500  18.760   3.550
  117BOLB   C3C 2803  10.550  18.400   3.630
  117BOLB   C4C 2804  10.850  18.270   3.920
  117BOLB   C1D 2805   9.610  18.580   3.520
  117BOLB   C2D 2806  10.010  18.280   3.530
  117BOLB   C3D 2807  10.220  18.060   3.850
  117BOLB   C4D 2808  10.420  17.960   4.190
  118BOLB   NC1 2809  17.480  16.590   4.330
  118BOLB   PO1 2810  17.890  16.270   4.530
  118BOLB   GL1 2811  17.790  16.400   4.040
  118BOLB   GL2 2812  17.490  16.570   3.830
  118BOLB   C1A 2813  17.950  16.260   3.630
  118BOLB   C2A 2814  18.080  16.190   3.270
  118BOLB   C3A 2815  18.290  16.040   2.860
  118BOLB   C4A 2816  18.680  15.890   2.700
  118BOLB   C1B 2817  17.620  16.550   3.320
  118BOLB   C2B 2818  17.750  16.700   3.000
  118BOLB   C3B 2819  17.980  16.740   2.630
  118BOLB   C4B 2820  18.020  17.190   2.580
  118BOLB   NC2 2821  19.870  15.100   0.390
  118BOLB   PO2 2822  19.870  15.310   0.730
  118BOLB   GL3 2823  19.790  15.260   1.140
  118BOLB   GL4 2824  19.980  14.960   1.260
  118BOLB   C1C 2825  19.660  15.490   1.420
  118BOLB   C2C 2826  19.520  15.450   1.840
  118BOLB   C3C 2827  19.070  15.590   1.940
  118BOLB   C4C 2828  18.900  15.590   2.360
  118BOLB   C1D 2829  19.680  14.990   1.660
  118BOLB   C2D 2830  19.330  14.940   1.880
  118BOLB   C3D 2831  19.260  14.740   2.240
  118BOLB   C4D 2832  19.420  14.450   2.330
  119BOLB   NC1 2833  23.460  15.250  12.030
  119BOLB   PO1 2834  23.840  15.290  11.900
  119BOLB   GL1 2835  24.310  15.190  11.910
  119BOLB   GL2 2836  24.500  15.280  11.570
  119BOLB   C1A 2837  24.750  15.360  12.040
  119BOLB   C2A 2838  25.010  15.530  12.350
  119BOLB   C3A 2839  25.270  15.490  12.680
  119BOLB   C4A 2840  25.520  15.350  12.970
  119BOLB   C1B 2841  24.880  15.180  11.640
  119BOLB   C2B 2842  25.050  14.950  11.950
  119BOLB   C3B 2843  25.410  14.660  12.070
  119BOLB   C4B 2844  25.880  14.660  12.230
  119BOLB   NC2 2845  28.340  15.340  13.010
  119BOLB   PO2 2846  28.110  15.790  13.100
  119BOLB   GL3 2847  27.700  15.680  13.410
  119BOLB   GL4 2848  27.620  16.030  13.330
  119BOLB   C1C 2849  27.230  15.630  13.390
  119BOLB   C2C 2850  26.800  15.700  13.340
  119BOLB   C3C 2851  26.400  15.470  13.180
  119BOLB   C4C 2852  26.000  15.350  13.090
  119BOLB   C1D 2853  27.260  16.330  13.140
  119BOLB   C2D 2854  26.760  16.450  12.990
  119BOLB   C3D 2855  26.350  16.580  12.730
  119BOLB   C4D 2856  26.100  16.580  12.410
  120BOLB   NC1 2857  21.720  17.230   1.130
  120BOLB   PO1 2858  21.540  16.990   0.950
  120BOLB   GL1 2859  21.330  17.010   1.360
  120BOLB   GL2 2860  21.380  17.210   1.470
  120BOLB   C1A 2861  21.090  16.820   1.670
  120BOLB   C2A 2862  20.730  16.830   1.950
  120BOLB   C3A 2863  20.660  16.810   2.360
  120BOLB   C4A 2864  20.840  16.710   2.690
  120BOLB   C1B 2865  21.060  17.290   1.820
  120BOLB   C2B 2866  20.760  17.260   2.170
  120BOLB   C3B 2867  20.770  17.260   2.690
  120BOLB   C4B 2868  20.390  17.330   3.110
  120BOLB   NC2 2869  20.650  16.340   5.280
  120BOLB   PO2 2870  20.430  16.470   4.940
  120BOLB   GL3 2871  20.640  16.580   4.650
  120BOLB   GL4 2872  20.840  16.810   4.710
  120BOLB   C1C 2873  20.820  16.720   4.210
  120BOLB   C2C 2874  20.960  16.740   3.880
  120BOLB   C3C 2875  21.060  16.860   3.460
  120BOLB   C4C 2876  21.000  16.850   3.070
  120BOLB   C1D 2877  21.060  17.090   4.430
  120BOLB   C2D 2878  21.190  17.120   4.020
  120BOLB   C3D 2879  21.270  17.330   3.650
  120BOLB   C4D 2880  21.160  17.740   3.460
  121BOLB   NC1 2881   9.800  21.360  10.420
  121BOLB   PO1 2882  10.120  21.620  10.230
  121BOLB   GL1 2883   9.740  21.610  10.020
  121BOLB   GL2 2884   9.710  21.630   9.690
  121BOLB   C1A 2885   9.530  22.010  10.010
  121BOLB   C2A 2886   9.230  22.290   9.810
  121BOLB   C3A 2887   9.020  22.640   9.500
  121BOLB   C4A 2888   8.650  22.840   9.270
  121BOLB   C1B 2889   9.400  21.970   9.510
  121BOLB   C2B 2890   9.310  22.310   9.260
  121BOLB   C3B 2891   9.540  22.440   8.930
  121BOLB   C4B 2892   9.720  22.850   8.800
  121BOLB   NC2 2893   7.250  24.560  10.380
  121BOLB   PO2 2894   6.980  24.770  10.050
  121BOLB   GL3 2895   7.300  24.380   9.910
  121BOLB   GL4 2896   7.110  24.270   9.540
  121BOLB   C1C 2897   7.610  24.170   9.710
  121BOLB   C2C 2898   8.040  23.810   9.610
  121BOLB   C3C 2899   8.160  23.380   9.540
  121BOLB   C4C 2900   8.320  23.010   9.480
  121BOLB   C1D 2901   7.380  23.910   9.420
  121BOLB   C2D 2902   7.710  23.660   9.240
  121BOLB   C3D 2903   7.950  23.270   9.060
  121BOLB   C4D 2904   7.990  23.100   8.700
  122BOLB   NC1 2905  17.130   9.610  12.980
  122BOLB   PO1 2906  16.990   9.320  13.160
  122BOLB   GL1 2907  17.010   8.870  13.040
  122BOLB   GL2 2908  16.960   8.730  13.390
  122BOLB   C1A 2909  17.330   8.490  13.150
  122BOLB   C2A 2910  17.360   8.050  12.970
  122BOLB   C3A 2911  17.450   7.590  13.170
  122BOLB   C4A 2912  17.480   7.160  13.050
  122BOLB   C1B 2913  16.880   8.370  13.410
  122BOLB   C2B 2914  17.020   7.890  13.420
  122BOLB   C3B 2915  17.000   7.430  13.260
  122BOLB   C4B 2916  17.040   7.000  13.390
  122BOLB   NC2 2917  18.840   5.130  12.730
  122BOLB   PO2 2918  18.590   5.190  12.540
  122BOLB   GL3 2919  18.300   5.410  12.450
  122BOLB   GL4 2920  17.960   5.400  12.520
  122BOLB   C1C 2921  18.210   5.790  12.180
  122BOLB   C2C 2922  18.180   6.300  12.340
  122BOLB   C3C 2923  18.060   6.630  12.650
  122BOLB   C4C 2924  17.600   6.810  12.760
  122BOLB   C1D 2925  17.590   5.680  12.650
  122BOLB   C2D 2926  17.150   5.550  12.790
  122BOLB   C3D 2927  16.710   5.390  12.700
  122BOLB   C4D 2928  16.250   5.280  13.000
  123BOLB   NC1 2929  12.690   5.390   9.030
  123BOLB   PO1 2930  12.810   5.670   8.630
  123BOLB   GL1 2931  12.670   5.950   8.950
  123BOLB   GL2 2932  12.780   5.860   9.230
  123BOLB   C1A 2933  12.430   6.220   9.220
  123BOLB   C2A 2934  12.090   6.500   9.450
  123BOLB   C3A 2935  12.000   7.020   9.550
  123BOLB   C4A 2936  12.300   7.350   9.810
  123BOLB   C1B 2937  12.770   6.170   9.590
  123BOLB   C2B 2938  13.130   6.300   9.850
  123BOLB   C3B 2939  13.090   6.700   9.860
  123BOLB   C4B 2940  13.400   7.010   9.870
  123BOLB   NC2 2941  12.980   9.070  11.480
  123BOLB   PO2 2942  12.660   9.130  11.110
  123BOLB   GL3 2943  12.630   8.760  11.230
  123BOLB   GL4 2944  12.960   8.470  11.370
  123BOLB   C1C 2945  12.510   8.390  11.130
  123BOLB   C2C 2946  12.310   8.080  10.710
  123BOLB   C3C 2947  12.330   7.750  10.420
  123BOLB   C4C 2948  12.430   7.620  10.010
  123BOLB   C1D 2949  12.950   8.020  11.450
  123BOLB   C2D 2950  12.960   7.750  11.550
  123BOLB   C3D 2951  12.610   7.480  11.540
  123BOLB   C4D 2952  12.230   7.210  11.520
  124BOLB   NC1 2953  19.100   9.300  13.370
  124BOLB   PO1 2954  18.800   9.400  13.010
  124BOLB   GL1 2955  19.030   8.960  12.840
  124BOLB   GL2 2956  19.020   8.690  13.140
  124BOLB   C1A 2957  19.440   8.700  12.590
  124BOLB   C2A 2958  19.680   8.390  12.530
  124BOLB   C3A 2959  19.940   7.950  12.700
  124BOLB   C4A 2960  19.920   7.790  13.070
  124BOLB   C1B 2961  19.210   8.260  13.220
  124BOLB   C2B 2962  19.410   7.830  13.250
  124BOLB   C3B 2963  19.850   7.820  13.560
  124BOLB   C4B 2964  20.230   7.870  13.470
  124BOLB   NC2 2965  21.230   5.840  13.880
  124BOLB   PO2 2966  20.760   5.680  13.770
  124BOLB   GL3 2967  20.790   6.120  13.570
  124BOLB   GL4 2968  20.510   6.270  13.850
  124BOLB   C1C 2969  20.620   6.270  13.200
  124BOLB   C2C 2970  20.460   6.660  13.190
  124BOLB   C3C 2971  20.350   7.080  13.290
  124BOLB   C4C 2972  19.980   7.380  13.330
  124BOLB   C1D 2973  20.660   6.690  13.790
  124BOLB   C2D 2974  20.500   7.120  13.770
  124BOLB   C3D 2975  20.320   7.470  13.730
  124BOLB   C4D 2976  20.240   7.760  14.060
  125BOLB   NC1 2977   4.200  11.450  21.070
  125BOLB   PO1 2978   3.920  11.630  20.730
  125BOLB   GL1 2979   4.370  11.600  20.590
  125BOLB   GL2 2980   4.490  11.600  20.340
  125BOLB   C1A 2981   4.840  11.690  20.670
  125BOLB   C2A 2982   5.290  11.910  20.790
  125BOLB   C3A 2983   5.540  12.220  20.540
  125BOLB   C4A 2984   5.510  12.590  20.350
  125BOLB   C1B 2985   4.420  11.980  20.110
  125BOLB   C2B 2986   4.570  12.410  20.060
  125BOLB   C3B 2987   4.690  12.840  19.950
  125BOLB   C4B 2988   4.700  13.270  19.840
  125BOLB   NC2 2989   3.210  13.080  20.830
  125BOLB   PO2 2990   3.220  12.730  20.490
  125BOLB   GL3 2991   3.650  12.470  20.200
  125BOLB   GL4 2992   3.700  12.570  19.900
  125BOLB   C1C 2993   4.090  12.470  20.250
  125BOLB   C2C 2994   4.470  12.780  20.480
  125BOLB   C3C 2995   4.930  13.010  20.360
  125BOLB   C4C 2996   5.310  12.880  20.330
  125BOLB   C1D 2997   3.930  12.610  19.440
  125BOLB   C2D 2998   4.290  12.450  19.110
  125BOLB   C3D 2999   4.570  12.640  18.780
  125BOLB   C4D 3000   4.750  13.020  18.630
  126BOLB   NC1 3001  18.180   5.180  15.450
  126BOLB   PO1 3002  18.250   5.390  15.820
  126BOLB   GL1 3003  18.110   5.740  15.600
  126BOLB   GL2 3004  17.910   5.930  15.740
  126BOLB   C1A 3005  18.240   6.160  15.290
  126BOLB   C2A 3006  18.420   6.500  15.010
  126BOLB   C3A 3007  18.230   6.790  14.700
  126BOLB   C4A 3008  17.790   6.920  14.600
  126BOLB   C1B 3009  17.850   6.300  15.970
  126BOLB   C2B 3010  17.670   6.700  15.930
  126BOLB   C3B 3011  17.790   7.000  15.550
  126BOLB   C4B 3012  17.940   7.130  15.130
  126BOLB   NC2 3013  16.440   5.850  16.420
  126BOLB   PO2 3014  16.770   5.630  16.390
  126BOLB   GL3 3015  16.940   5.940  16.110
  126BOLB   GL4 3016  16.700   6.180  16.200
  126BOLB   C1C 3017  16.920   5.960  15.610
  126BOLB   C2C 3018  17.080   6.160  15.240
  126BOLB   C3C 3019  17.220   6.360  14.920
  126BOLB   C4C 3020  17.350   6.720  14.700
  126BOLB   C1D 3021  16.820   6.510  15.910
  126BOLB   C2D 3022  16.860   6.500  15.490
  126BOLB   C3D 3023  16.970   6.840  15.170
  126BOLB   C4D 3024  17.040   7.180  14.960
  127BOLB   NC1 3025  14.620   5.140   8.550
  127BOLB   PO1 3026  14.220   5.290   8.720
  127BOLB   GL1 3027  14.600   5.600   8.740
  127BOLB   GL2 3028  14.680   5.750   8.510
  127BOLB   C1A 3029  14.580   6.000   8.900
  127BOLB   C2A 3030  14.560   6.370   9.130
  127BOLB   C3A 3031  14.400   6.730   9.490
  127BOLB   C4A 3032  14.260   7.060   9.740
  127BOLB   C1B 3033  14.980   6.130   8.540
  127BOLB   C2B 3034  14.970   6.560   8.750
  127BOLB   C3B 3035  14.620   6.800   8.910
  127BOLB   C4B 3036  14.150   6.710   9.050
  127BOLB   NC2 3037  13.240   9.610  10.360
  127BOLB   PO2 3038  13.610   9.310  10.180
  127BOLB   GL3 3039  13.660   8.980  10.280
  127BOLB   GL4 3040  13.810   8.950  10.610
  127BOLB   C1C 3041  13.720   8.540  10.200
  127BOLB   C2C 3042  13.730   8.060  10.100
  127BOLB   C3C 3043  13.680   7.660   9.940
  127BOLB   C4C 3044  13.840   7.240   9.820
  127BOLB   C1D 3045  13.750   8.510  10.700
  127BOLB   C2D 3046  13.640   8.130  10.780
  127BOLB   C3D 3047  13.280   7.870  10.860
  127BOLB   C4D 3048  13.430   7.570  11.220
  128BOLB   NC1 3049  20.070  19.370   5.350
  128BOLB   PO1 3050  19.830  19.540   5.050
  128BOLB   GL1 3051  20.020  19.520   4.730
  128BOLB   GL2 3052  19.950  19.800   4.590
  128BOLB   C1A 3053  19.920  19.520   4.180
  128BOLB   C2A 3054  19.890  19.750   3.860
  128BOLB   C3A 3055  19.770  19.620   3.430
  128BOLB   C4A 3056  19.520  19.640   3.090
  128BOLB   C1B 3057  20.090  19.970   4.260
  128BOLB   C2B 3058  20.480  20.010   4.070
  128BOLB   C3B 3059  20.920  20.040   3.950
  128BOLB   C4B 3060  20.930  20.340   3.700
  128BOLB   NC2 3061  19.690  21.600   1.860
  128BOLB   PO2 3062  19.810  21.290   1.420
  128BOLB   GL3 3063  19.660  21.040   1.880
  128BOLB   GL4 3064  19.700  21.180   2.140
  128BOLB   C1C 3065  19.600  20.610   1.920
  128BOLB   C2C 3066  19.790  20.160   1.970
  128BOLB   C3C 3067  19.800  19.830   2.430
  128BOLB   C4C 3068  19.690  19.540   2.700
  128BOLB   C1D 3069  19.420  21.090   2.430
  128BOLB   C2D 3070  19.170  20.920   2.800
  128BOLB   C3D 3071  19.280  20.480   2.930
  128BOLB   C4D 3072  19.270  20.230   3.250
  129BOLB   NC1 3073  23.900  16.260   9.580
  129BOLB   PO1 3074  23.810  15.840   9.620
  129BOLB   GL1 3075  24.280  15.760   9.590
  129BOLB   GL2 3076  24.280  15.750   9.350
  129BOLB   C1A 3077  24.590  15.520   9.720
  129BOLB   C2A 3078  24.910  15.170   9.640
  129BOLB   C3A 3079  25.150  15.120   9.340
  129BOLB   C4A 3080  25.400  15.200   9.070
  129BOLB   C1B 3081  24.720  15.830   9.390
  129BOLB   C2B 3082  25.090  16.170   9.420
  129BOLB   C3B 3083  25.370  16.560   9.330
  129BOLB   C4B 3084  25.410  16.900   9.060
  129BOLB   NC2 3085  27.490  15.620   8.140
  129BOLB   PO2 3086  27.550  15.040   8.130
  129BOLB   GL3 3087  27.150  15.230   8.120
  129BOLB   GL4 3088  27.020  15.210   7.870
  129BOLB   C1C 3089  26.810  14.940   8.240
  129BOLB   C2C 3090  26.530  14.670   8.520
  129BOLB   C3C 3091  26.180  14.770   8.750
  129BOLB   C4C 3092  25.760  15.010   8.710
  129BOLB   C1D 3093  26.700  15.370   8.030
  129BOLB   C2D 3094  26.480  15.290   8.400
  129BOLB   C3D 3095  26.100  15.370   8.590
  129BOLB   C4D 3096  25.790  15.480   8.900
  130BOLB   NC1 3097   9.350  19.130   8.220
  130BOLB   PO1 3098   9.380  18.700   8.070
  130BOLB   GL1 3099   9.380  19.100   7.740
  130BOLB   GL2 3100   9.340  18.980   7.550
  130BOLB   C1A 3101   8.980  19.420   7.620
  130BOLB   C2A 3102   8.730  19.650   7.880
  130BOLB   C3A 3103   8.390  19.860   7.880
  130BOLB   C4A 3104   8.080  20.210   7.890
  130BOLB   C1B 3105   8.990  18.900   7.270
  130BOLB   C2B 3106   8.640  18.820   7.200
  130BOLB   C3B 3107   8.190  18.820   7.270
  130BOLB   C4B 3108   7.920  19.030   7.410
  130BOLB   NC2 3109   6.610  21.370   6.380
  130BOLB   PO2 3110   6.630  21.350   6.680
  130BOLB   GL3 3111   7.010  21.080   6.790
  130BOLB   GL4 3112   6.890  20.880   7.050
  130BOLB   C1C 3113   7.390  20.890   7.050
  130BOLB   C2C 3114   7.800  20.850   6.950
  130BOLB   C3C 3115   8.050  20.650   7.270
  130BOLB   C4C 3116   7.900  20.490   7.780
  130BOLB   C1D 3117   7.150  20.480   7.170
  130BOLB   C2D 3118   7.260  20.120   7.320
  130BOLB   C3D 3119   7.550  19.770   7.120
  130BOLB   C4D 3120   7.900  19.500   7.110
  131BOLB   NC1 3121  17.000  11.710   5.410
  131BOLB   PO1 3122  16.680  11.980   5.180
  131BOLB   GL1 3123  16.760  11.710   4.830
  131BOLB   GL2 3124  16.860  11.520   5.000
  131BOLB   C1A 3125  16.600  11.440   4.540
  131BOLB   C2A 3126  16.630  11.030   4.320
  131BOLB   C3A 3127  16.790  10.620   4.210
  131BOLB   C4A 3128  16.930  10.260   4.100
  131BOLB   C1B 3129  16.870  11.110   4.790
  131BOLB   C2B 3130  16.910  10.680   4.670
  131BOLB   C3B 3131  17.330  10.380   4.530
  131BOLB   C4B 3132  17.250   9.870   4.340
  131BOLB   NC2 3133  17.470   9.210   2.370
  131BOLB   PO2 3134  17.840   9.000   2.540
  131BOLB   GL3 3135  17.720   9.090   2.870
  131BOLB   GL4 3136  17.750   8.920   3.150
  131BOLB   C1C 3137  17.530   9.360   3.280
  131BOLB   C2C 3138  17.230   9.700   3.400
  131BOLB   C3C 3139  16.910   9.780   3.570
  131BOLB   C4C 3140  16.990   9.850   3.910
  131BOLB   C1D 3141  18.010   9.240   3.370
  131BOLB   C2D 3142  18.380   9.220   3.560
  131BOLB   C3D 3143  18.800   9.040   3.690
  131BOLB   C4D 3144  19.260   9.240   3.840
  132BOLB   NC1 3145  19.300  19.160  19.050
  132BOLB   PO1 3146  19.710  19.270  19.330
  132BOLB   GL1 3147  20.090  19.420  19.460
  132BOLB   GL2 3148  20.270  19.740  19.400
  132BOLB   C1A 3149  20.410  19.430  19.720
  132BOLB   C2A 3150  20.610  19.470  20.110
  132BOLB   C3A 3151  20.750  19.860  20.220
  132BOLB   C4A 3152  20.890  20.050  20.530
  132BOLB   C1B 3153  20.170  20.140  19.490
  132BOLB   C2B 3154  20.310  20.480  19.490
  132BOLB   C3B 3155  20.730  20.720  19.770
  132BOLB   C4B 3156  20.890  20.960  20.110
  132BOLB   NC2 3157  22.880  20.060  21.790
  132BOLB   PO2 3158  22.510  20.000  22.120
  132BOLB   GL3 3159  22.330  19.880  21.740
  132BOLB   GL4 3160  22.080  20.020  21.760
  132BOLB   C1C 3161  22.120  19.710  21.350
  132BOLB   C2C 3162  21.760  19.630  21.310
  132BOLB   C3C 3163  21.480  19.860  21.140
  132BOLB   C4C 3164  21.130  20.010  20.900
  132BOLB   C1D 3165  21.710  19.990  21.630
  132BOLB   C2D 3166  21.220  20.120  21.490
  132BOLB   C3D 3167  20.730  20.160  21.440
  132BOLB   C4D 3168  20.200  20.140  21.300
  133BOLB   NC1 3169  20.040   9.960  12.270
  133BOLB   PO1 3170  19.780   9.700  12.520
  133BOLB   GL1 3171  20.100   9.350  12.500
  133BOLB   GL2 3172  19.990   9.310  12.790
  133BOLB   C1A 3173  20.430   8.930  12.330
  133BOLB   C2A 3174  20.790   8.830  12.180
  133BOLB   C3A 3175  21.240   8.860  12.250
  133BOLB   C4A 3176  21.590   8.520  12.530
  133BOLB   C1B 3177  19.850   8.880  12.940
  133BOLB   C2B 3178  19.540   8.770  13.180
  133BOLB   C3B 3179  19.400   8.660  13.500
  133BOLB   C4B 3180  19.680   8.290  13.500
  133BOLB   NC2 3181  22.870   7.220  14.740
  133BOLB   PO2 3182  22.690   7.200  14.320
  133BOLB   GL3 3183  22.490   7.420  13.940
  133BOLB   GL4 3184  22.330   7.640  14.140
  133BOLB   C1C 3185  22.330   7.660  13.630
  133BOLB   C2C 3186  22.110   7.720  13.190
  133BOLB   C3C 3187  21.940   7.850  12.780
  133BOLB   C4C 3188  21.750   8.140  12.610
  133BOLB   C1D 3189  22.140   7.970  13.920
  133BOLB   C2D 3190  21.980   8.220  13.620
  133BOLB   C3D 3191  21.650   8.560  13.700
  133BOLB   C4D 3192  21.630   8.910  13.900
  134BOLB   NC1 3193  17.040   4.830  14.150
  134BOLB   PO1 3194  16.810   5.070  13.900
  134BOLB   GL1 3195  16.680   5.330  13.860
  134BOLB   GL2 3196  16.380   5.450  14.080
  134BOLB   C1A 3197  16.680   5.790  13.650
  134BOLB   C2A 3198  16.530   6.110  13.380
  134BOLB   C3A 3199  16.410   6.440  13.300
  134BOLB   C4A 3200  16.200   6.800  13.430
  134BOLB   C1B 3201  16.400   5.940  14.070
  134BOLB   C2B 3202  16.370   6.280  13.830
  134BOLB   C3B 3203  16.050   6.420  13.690
  134BOLB   C4B 3204  15.840   6.780  13.810
  134BOLB   NC2 3205  15.820   9.040  13.080
  134BOLB   PO2 3206  16.100   9.110  13.450
  134BOLB   GL3 3207  16.000   8.720  13.410
  134BOLB   GL4 3208  15.800   8.730  13.750
  134BOLB   C1C 3209  15.810   8.390  13.340
  134BOLB   C2C 3210  15.880   7.950  13.160
  134BOLB   C3C 3211  15.690   7.610  13.350
  134BOLB   C4C 3212  15.830   7.220  13.460
  134BOLB   C1D 3213  16.020   8.410  13.790
  134BOLB   C2D 3214  15.980   7.960  13.700
  134BOLB   C3D 3215  16.260   7.550  13.580
  134BOLB   C4D 3216  16.540   7.590  13.230
  135BOLB   NC1 3217  12.210  15.640   5.280
  135BOLB   PO1 3218  12.120  16.030   5.070
  135BOLB   GL1 3219  11.840  15.950   4.740
  135BOLB   GL2 3220  11.780  15.610   4.750
  135BOLB   C1A 3221  11.510  15.950   4.480
  135BOLB   C2A 3222  11.290  15.850   4.060
  135BOLB   C3A 3223  10.860  15.670   3.880
  135BOLB   C4A 3224  10.690  15.290   3.680
  135BOLB   C1B 3225  11.610  15.360   4.450
  135BOLB   C2B 3226  11.290  15.290   4.120
  135BOLB   C3B 3227  11.280  15.060   3.800
  135BOLB   C4B 3228  11.070  14.930   3.500
  135BOLB   NC2 3229  10.080  14.760   1.620
  135BOLB   PO2 3230  10.200  14.350   1.770
  135BOLB   GL3 3231  10.140  14.530   2.080
  135BOLB   GL4 3232  10.060  14.800   2.220
  135BOLB   C1C 3233  10.380  14.480   2.460
  135BOLB   C2C 3234  10.370  14.470   2.940
  135BOLB   C3C 3235  10.430  14.780   3.240
  135BOLB   C4C 3236  10.540  15.010   3.550
  135BOLB   C1D 3237   9.880  14.630   2.560
  135BOLB   C2D 3238   9.640  14.550   2.940
  135BOLB   C3D 3239   9.370  14.410   3.220
  135BOLB   C4D 3240   9.040  14.400   3.420
  136BOLB   NC1 3241  16.220  16.120   0.290
  136BOLB   PO1 3242  16.080  16.450  31.350
  136BOLB   GL1 3243  15.790  16.430   0.440
  136BOLB   GL2 3244  15.470  16.250   0.570
  136BOLB   C1A 3245  15.940  16.440   0.800
  136BOLB   C2A 3246  16.270  16.590   1.050
  136BOLB   C3A 3247  16.610  16.720   1.410
  136BOLB   C4A 3248  16.980  16.760   1.470
  136BOLB   C1B 3249  15.390  15.880   0.830
  136BOLB   C2B 3250  15.280  15.810   1.200
  136BOLB   C3B 3251  15.050  15.800   1.540
  136BOLB   C4B 3252  14.930  15.620   2.010
  136BOLB   NC2 3253  18.540  16.610   0.230
  136BOLB   PO2 3254  18.740  16.920   0.310
  136BOLB   GL3 3255  18.570  17.120   0.640
  136BOLB   GL4 3256  18.470  16.820   0.720
  136BOLB   C1C 3257  18.340  17.200   0.990
  136BOLB   C2C 3258  18.040  17.400   1.110
  136BOLB   C3C 3259  17.700  17.170   1.300
  136BOLB   C4C 3260  17.340  16.930   1.370
  136BOLB   C1D 3261  18.060  16.810   1.160
  136BOLB   C2D 3262  18.110  16.970   1.520
  136BOLB   C3D 3263  17.700  17.130   1.850
  136BOLB   C4D 3264  17.360  17.340   2.100
  137BOLB   NC1 3265  21.370  22.830  15.720
  137BOLB   PO1 3266  21.330  22.450  16.040
  137BOLB   GL1 3267  21.620  22.450  16.360
  137BOLB   GL2 3268  21.930  22.320  16.340
  137BOLB   C1A 3269  21.740  22.700  16.790
  137BOLB   C2A 3270  22.010  22.600  17.210
  137BOLB   C3A 3271  22.360  22.460  17.470
  137BOLB   C4A 3272  22.820  22.380  17.590
  137BOLB   C1B 3273  22.320  22.330  16.370
  137BOLB   C2B 3274  22.670  22.680  16.570
  137BOLB   C3B 3275  23.050  22.890  16.810
  137BOLB   C4B 3276  23.460  23.200  16.910
  137BOLB   NC2 3277  24.770  23.160  18.810
  137BOLB   PO2 3278  24.670  23.590  18.440
  137BOLB   GL3 3279  24.260  23.570  18.460
  137BOLB   GL4 3280  23.960  23.710  18.470
  137BOLB   C1C 3281  24.000  23.160  18.450
  137BOLB   C2C 3282  23.720  22.960  18.160
  137BOLB   C3C 3283  23.470  22.740  17.720
  137BOLB   C4C 3284  23.280  22.430  17.560
  137BOLB   C1D 3285  23.590  23.470  18.240
  137BOLB   C2D 3286  23.400  23.320  17.930
  137BOLB   C3D 3287  23.040  23.300  17.610
  137BOLB   C4D 3288  22.680  22.910  17.580
  138BOLB   NC1 3289  18.170  13.370  18.290
  138BOLB   PO1 3290  18.350  12.900  18.360
  138BOLB   GL1 3291  18.480  12.550  18.530
  138BOLB   GL2 3292  18.240  12.450  18.840
  138BOLB   C1A 3293  18.700  12.400  18.890
  138BOLB   C2A 3294  18.950  12.180  19.180
  138BOLB   C3A 3295  19.260  12.060  19.520
  138BOLB   C4A 3296  19.540  12.080  19.890
  138BOLB   C1B 3297  18.350  12.190  19.140
  138BOLB   C2B 3298  18.440  11.770  19.260
  138BOLB   C3B 3299  18.720  11.360  19.300
  138BOLB   C4B 3300  19.060  11.200  19.600
  138BOLB   NC2 3301  21.210  11.560  21.350
  138BOLB   PO2 3302  21.240  11.140  21.080
  138BOLB   GL3 3303  20.850  11.400  21.070
  138BOLB   GL4 3304  20.680  11.500  21.410
  138BOLB   C1C 3305  20.840  11.690  20.720
  138BOLB   C2C 3306  20.640  11.730  20.270
  138BOLB   C3C 3307  20.210  11.800  20.140
  138BOLB   C4C 3308  19.880  11.880  19.960
  138BOLB   C1D 3309  20.540  11.760  21.130
  138BOLB   C2D 3310  20.400  11.970  20.790
  138BOLB   C3D 3311  20.250  12.210  20.440
  138BOLB   C4D 3312  19.920  12.300  20.230
  139BOLB   NC1 3313  14.600   5.000  11.470
  139BOLB   PO1 3314  14.930   4.990  11.360
  139BOLB   GL1 3315  14.880   5.500  11.440
  139BOLB   GL2 3316  14.580   5.400  11.170
  139BOLB   C1A 3317  14.920   5.970  11.340
  139BOLB   C2A 3318  15.060   6.310  11.040
  139BOLB   C3A 3319  15.130   6.750  11.040
  139BOLB   C4A 3320  15.100   6.970  11.370
  139BOLB   C1B 3321  14.460   5.830  11.200
  139BOLB   C2B 3322  14.490   6.210  11.040
  139BOLB   C3B 3323  14.500   6.510  10.830
  139BOLB   C4B 3324  14.780   6.630  10.530
  139BOLB   NC2 3325  15.190   9.370  12.270
  139BOLB   PO2 3326  15.130   9.030  12.010
  139BOLB   GL3 3327  14.870   8.700  12.060
  139BOLB   GL4 3328  14.540   8.720  11.920
  139BOLB   C1C 3329  14.790   8.270  11.920
  139BOLB   C2C 3330  14.610   7.840  11.800
  139BOLB   C3C 3331  14.760   7.480  11.940
  139BOLB   C4C 3332  15.060   7.190  11.830
  139BOLB   C1D 3333  14.290   8.360  11.900
  139BOLB   C2D 3334  14.000   8.030  11.830
  139BOLB   C3D 3335  14.100   7.660  11.830
  139BOLB   C4D 3336  14.300   7.410  11.660
  140BOLB   NC1 3337  16.760  21.230   6.800
  140BOLB   PO1 3338  17.060  21.050   6.380
  140BOLB   GL1 3339  17.200  21.310   5.940
  140BOLB   GL2 3340  16.930  21.510   5.970
  140BOLB   C1A 3341  17.280  21.490   5.570
  140BOLB   C2A 3342  17.020  21.720   5.230
  140BOLB   C3A 3343  16.710  21.870   4.900
  140BOLB   C4A 3344  16.530  22.120   4.680
  140BOLB   C1B 3345  16.750  21.900   5.700
  140BOLB   C2B 3346  16.730  22.090   5.390
  140BOLB   C3B 3347  16.790  22.490   5.270
  140BOLB   C4B 3348  16.940  23.010   5.320
  140BOLB   NC2 3349  16.110  23.680   2.850
  140BOLB   PO2 3350  15.890  23.420   2.690
  140BOLB   GL3 3351  16.110  23.160   2.950
  140BOLB   GL4 3352  16.340  23.300   3.120
  140BOLB   C1C 3353  16.210  22.860   3.230
  140BOLB   C2C 3354  16.360  22.580   3.540
  140BOLB   C3C 3355  16.440  22.540   3.900
  140BOLB   C4C 3356  16.340  22.360   4.280
  140BOLB   C1D 3357  16.190  23.260   3.500
  140BOLB   C2D 3358  16.070  22.900   3.790
  140BOLB   C3D 3359  16.330  22.880   4.170
  140BOLB   C4D 3360  16.620  23.130   4.380
  141BOLB   NC1 3361  11.820  11.990   6.810
  141BOLB   PO1 3362  11.860  11.720   7.100
  141BOLB   GL1 3363  11.790  11.370   6.790
  141BOLB   GL2 3364  11.950  11.570   6.550
  141BOLB   C1A 3365  11.440  11.150   6.520
  141BOLB   C2A 3366  11.210  10.810   6.540
  141BOLB   C3A 3367  11.000  10.730   6.230
  141BOLB   C4A 3368  10.690  10.690   5.850
  141BOLB   C1B 3369  11.820  11.250   6.150
  141BOLB   C2B 3370  11.500  11.020   5.990
  141BOLB   C3B 3371  11.150  10.930   5.740
  141BOLB   C4B 3372  10.780  11.020   5.470
  141BOLB   NC2 3373   9.840   9.660   3.490
  141BOLB   PO2 3374   9.840   9.530   3.880
  141BOLB   GL3 3375  10.170   9.720   4.130
  141BOLB   GL4 3376  10.350   9.890   4.050
  141BOLB   C1C 3377  10.210  10.000   4.550
  141BOLB   C2C 3378  10.120  10.130   4.920
  141BOLB   C3C 3379  10.430  10.180   5.200
  141BOLB   C4C 3380  10.460  10.410   5.590
  141BOLB   C1D 3381  10.700   9.730   4.360
  141BOLB   C2D 3382  11.120   9.820   4.570
  141BOLB   C3D 3383  11.390  10.140   4.680
  141BOLB   C4D 3384  11.730  10.390   4.930
  142BOLB   NC1 3385  21.610  12.640   9.140
  142BOLB   PO1 3386  21.720  12.350   8.850
  142BOLB   GL1 3387  22.020  12.060   8.800
  142BOLB   GL2 3388  22.200  11.980   8.420
  142BOLB   C1A 3389  22.220  11.630   8.720
  142BOLB   C2A 3390  22.560  11.380   8.950
  142BOLB   C3A 3391  23.000  11.270   9.010
  142BOLB   C4A 3392  23.390  11.080   8.890
  142BOLB   C1B 3393  22.560  11.800   8.390
  142BOLB   C2B 3394  22.690  11.270   8.490
  142BOLB   C3B 3395  23.100  11.060   8.460
  142BOLB   C4B 3396  23.470  11.090   8.260
  142BOLB   NC2 3397  24.830  10.030   7.350
  142BOLB   PO2 3398  25.230  10.270   7.590
  142BOLB   GL3 3399  24.750  10.490   7.640
  142BOLB   GL4 3400  24.530  10.860   7.620
  142BOLB   C1C 3401  24.350  10.440   7.850
  142BOLB   C2C 3402  24.030  10.780   7.970
  142BOLB   C3C 3403  23.990  10.960   8.410
  142BOLB   C4C 3404  23.690  10.860   8.730
  142BOLB   C1D 3405  24.170  11.040   7.560
  142BOLB   C2D 3406  23.890  11.250   7.380
  142BOLB   C3D 3407  23.460  11.290   7.260
  142BOLB   C4D 3408  23.170  11.410   6.940
  143BOLB   NC1 3409  26.160  21.470   5.770
  143BOLB   PO1 3410  25.740  21.460   5.760
  143BOLB   GL1 3411  25.350  21.420   5.570
  143BOLB   GL2 3412  25.100  21.630   5.650
  143BOLB   C1A 3413  25.030  21.080   5.390
  143BOLB   C2A 3414  24.660  20.840   5.580
  143BOLB   C3A 3415  24.680  20.690   6.000
  143BOLB   C4A 3416  24.790  20.380   6.250
  143BOLB   C1B 3417  24.830  21.780   6.010
  143BOLB   C2B 3418  24.380  21.750   6.240
  143BOLB   C3B 3419  24.240  21.420   6.440
  143BOLB   C4B 3420  24.490  21.020   6.610
  143BOLB   NC2 3421  26.570  19.600   6.240
  143BOLB   PO2 3422  26.860  19.980   6.510
  143BOLB   GL3 3423  26.570  19.890   6.640
  143BOLB   GL4 3424  26.590  19.570   6.790
  143BOLB   C1C 3425  26.160  19.930   6.720
  143BOLB   C2C 3426  25.670  20.060   6.720
  143BOLB   C3C 3427  25.440  20.070   6.420
  143BOLB   C4C 3428  25.020  20.090   6.290
  143BOLB   C1D 3429  26.240  19.440   7.000
  143BOLB   C2D 3430  26.150  19.050   6.940
  143BOLB   C3D 3431  25.750  18.950   7.090
  143BOLB   C4D 3432  25.700  18.880   7.470
  144BOLB   NC1 3433   9.860  11.790   9.600
  144BOLB   PO1 3434   9.640  12.090   9.920
  144BOLB   GL1 3435   9.350  11.990   9.790
  144BOLB   GL2 3436   9.150  11.950  10.110
  144BOLB   C1A 3437   8.970  11.760   9.590
  144BOLB   C2A 3438   8.740  11.500   9.330
  144BOLB   C3A 3439   8.300  11.320   9.350
  144BOLB   C4A 3440   8.040  11.000   9.090
  144BOLB   C1B 3441   8.870  11.600  10.060
  144BOLB   C2B 3442   8.490  11.410  10.040
  144BOLB   C3B 3443   8.220  11.230   9.790
  144BOLB   C4B 3444   7.890  11.140   9.530
  144BOLB   NC2 3445   6.890   9.320   7.820
  144BOLB   PO2 3446   7.260   9.230   8.070
  144BOLB   GL3 3447   7.400   9.330   8.500
  144BOLB   GL4 3448   7.790   9.370   8.350
  144BOLB   C1C 3449   7.590   9.610   8.890
  144BOLB   C2C 3450   7.790   9.870   9.070
  144BOLB   C3C 3451   7.690  10.310   9.100
  144BOLB   C4C 3452   7.670  10.680   9.140
  144BOLB   C1D 3453   8.070   9.600   8.570
  144BOLB   C2D 3454   8.460   9.730   8.340
  144BOLB   C3D 3455   8.790   9.440   8.220
  144BOLB   C4D 3456   8.830   9.100   8.110
  145BOLB   NC1 3457  18.980   6.370   4.750
  145BOLB   PO1 3458  19.170   6.330   5.170
  145BOLB   GL1 3459  19.320   6.820   5.180
  145BOLB   GL2 3460  19.030   6.820   5.270
  145BOLB   C1A 3461  19.140   7.310   5.250
  145BOLB   C2A 3462  19.200   7.630   5.490
  145BOLB   C3A 3463  18.980   7.980   5.640
  145BOLB   C4A 3464  18.610   8.280   5.870
  145BOLB   C1B 3465  18.820   7.080   5.600
  145BOLB   C2B 3466  18.910   7.420   5.840
  145BOLB   C3B 3467  19.120   7.520   6.250
  145BOLB   C4B 3468  19.220   7.570   6.720
  145BOLB   NC2 3469  18.030   6.810   4.310
  145BOLB   PO2 3470  17.680   6.620   4.500
  145BOLB   GL3 3471  17.710   7.120   4.610
  145BOLB   GL4 3472  18.000   7.310   4.500
  145BOLB   C1C 3473  17.870   7.490   4.970
  145BOLB   C2C 3474  17.810   7.890   5.110
  145BOLB   C3C 3475  17.850   8.190   5.520
  145BOLB   C4C 3476  18.130   8.450   5.670
  145BOLB   C1D 3477  18.080   7.770   4.560
  145BOLB   C2D 3478  17.930   8.240   4.500
  145BOLB   C3D 3479  17.680   8.590   4.720
  145BOLB   C4D 3480  17.410   9.000   4.810
  146BOLB   NC1 3481  10.260  11.140  10.200
  146BOLB   PO1 3482  10.010  11.280   9.860
  146BOLB   GL1 3483   9.700  11.040   9.920
  146BOLB   GL2 3484   9.830  10.890  10.150
  146BOLB   C1A 3485   9.410  10.630   9.780
  146BOLB   C2A 3486   9.160  10.390   9.550
  146BOLB   C3A 3487   8.820  10.130   9.870
  146BOLB   C4A 3488   8.510  10.130  10.100
  146BOLB   C1B 3489   9.540  10.590  10.240
  146BOLB   C2B 3490   9.150  10.390  10.130
  146BOLB   C3B 3491   9.010  10.140  10.320
  146BOLB   C4B 3492   8.780   9.750  10.300
  146BOLB   NC2 3493   6.090   9.520  10.350
  146BOLB   PO2 3494   6.460   9.420  10.070
  146BOLB   GL3 3495   6.730   9.630   9.830
  146BOLB   GL4 3496   6.740   9.810   9.540
  146BOLB   C1C 3497   7.180   9.730   9.810
  146BOLB   C2C 3498   7.340  10.080  10.040
  146BOLB   C3C 3499   7.790  10.240  10.050
  146BOLB   C4C 3500   8.070  10.200  10.180
  146BOLB   C1D 3501   7.030  10.060   9.420
  146BOLB   C2D 3502   7.410  10.360   9.560
  146BOLB   C3D 3503   7.460  10.660   9.790
  146BOLB   C4D 3504   7.830  10.850   9.960
  147BOLB   NC1 3505   9.450  13.500   8.520
  147BOLB   PO1 3506   9.640  13.330   8.090
  147BOLB   GL1 3507   9.410  12.940   7.930
  147BOLB   GL2 3508   9.430  12.720   8.060
  147BOLB   C1A 3509   9.130  12.640   7.590
  147BOLB   C2A 3510   8.990  12.280   7.500
  147BOLB   C3A 3511   8.990  11.920   7.310
  147BOLB   C4A 3512   9.110  11.610   6.990
  147BOLB   C1B 3513   9.300  12.350   8.030
  147BOLB   C2B 3514   9.080  12.060   7.910
  147BOLB   C3B 3515   8.780  11.730   7.880
  147BOLB   C4B 3516   8.360  11.500   7.870
  147BOLB   NC2 3517   8.270  10.650   4.610
  147BOLB   PO2 3518   8.480  10.640   5.060
  147BOLB   GL3 3519   8.480  10.890   5.350
  147BOLB   GL4 3520   8.330  10.710   5.620
  147BOLB   C1C 3521   8.870  11.020   5.530
  147BOLB   C2C 3522   8.950  11.150   6.030
  147BOLB   C3C 3523   9.280  11.260   6.190
  147BOLB   C4C 3524   9.310  11.360   6.650
  147BOLB   C1D 3525   8.520  11.000   5.890
  147BOLB   C2D 3526   8.420  11.380   6.180
  147BOLB   C3D 3527   8.590  11.850   6.320
  147BOLB   C4D 3528   9.040  11.760   6.030
  148BOLB   NC1 3529   9.100  25.950   9.270
  148BOLB   PO1 3530   8.830  25.590   9.150
  148BOLB   GL1 3531   8.880  25.160   9.080
  148BOLB   GL2 3532   9.230  25.110   9.340
  148BOLB   C1A 3533   8.810  24.760   9.320
  148BOLB   C2A 3534   9.080  24.470   9.640
  148BOLB   C3A 3535   9.330  24.370   9.950
  148BOLB   C4A 3536   9.670  24.400  10.220
  148BOLB   C1B 3537   9.590  24.870   9.410
  148BOLB   C2B 3538   9.870  24.570   9.230
  148BOLB   C3B 3539  10.120  24.180   9.040
  148BOLB   C4B 3540  10.500  23.990   9.000
  148BOLB   NC2 3541   8.590  25.680  10.040
  148BOLB   PO2 3542   8.690  25.770  10.370
  148BOLB   GL3 3543   9.000  25.760  10.610
  148BOLB   GL4 3544   8.700  25.990  10.810
  148BOLB   C1C 3545   9.200  25.600  10.830
  148BOLB   C2C 3546   9.530  25.300  10.960
  148BOLB   C3C 3547   9.670  25.040  10.770
  148BOLB   C4C 3548   9.560  24.700  10.570
  148BOLB   C1D 3549   8.810  25.710  11.130
  148BOLB   C2D 3550   8.700  25.400  11.380
  148BOLB   C3D 3551   8.650  25.110  11.830
  148BOLB   C4D 3552   8.840  24.720  11.790
  149BOLB   NC1 3553  26.190  15.130   5.970
  149BOLB   PO1 3554  26.060  15.510   5.720
  149BOLB   GL1 3555  25.700  15.750   5.710
  149BOLB   GL2 3556  25.560  15.760   5.350
  149BOLB   C1A 3557  25.280  15.920   5.790
  149BOLB   C2A 3558  24.860  15.820   5.740
  149BOLB   C3A 3559  24.440  15.920   5.870
  149BOLB   C4A 3560  24.080  16.000   5.740
  149BOLB   C1B 3561  25.190  15.860   5.320
  149BOLB   C2B 3562  24.650  15.840   5.270
  149BOLB   C3B 3563  24.350  15.560   5.450
  149BOLB   C4B 3564  24.330  15.100   5.560
  149BOLB   NC2 3565  25.070  16.150   3.950
  149BOLB   PO2 3566  25.290  15.910   4.310
  149BOLB   GL3 3567  25.040  15.560   4.530
  149BOLB   GL4 3568  25.110  15.730   4.810
  149BOLB   C1C 3569  24.620  15.720   4.670
  149BOLB   C2C 3570  24.230  15.950   4.860
  149BOLB   C3C 3571  23.940  15.710   5.100
  149BOLB   C4C 3572  23.800  15.790   5.480
  149BOLB   C1D 3573  24.880  15.460   5.080
  149BOLB   C2D 3574  24.850  15.400   5.510
  149BOLB   C3D 3575  24.700  15.330   5.930
  149BOLB   C4D 3576  24.830  15.210   6.380
  150BOLB   NC1 3577  17.570  22.120   7.080
  150BOLB   PO1 3578  17.300  22.500   7.200
  150BOLB   GL1 3579  17.070  22.710   6.910
  150BOLB   GL2 3580  16.850  22.800   7.060
  150BOLB   C1A 3581  17.300  22.960   6.600
  150BOLB   C2A 3582  17.390  23.270   6.390
  150BOLB   C3A 3583  17.580  23.630   6.150
  150BOLB   C4A 3584  17.680  23.880   5.850
  150BOLB   C1B 3585  16.840  23.150   6.760
  150BOLB   C2B 3586  16.720  23.380   6.390
  150BOLB   C3B 3587  16.910  23.640   6.170
  150BOLB   C4B 3588  17.240  24.100   5.990
  150BOLB   NC2 3589  18.400  25.360   4.550
  150BOLB   PO2 3590  18.840  25.290   4.540
  150BOLB   GL3 3591  18.740  25.310   4.920
  150BOLB   GL4 3592  19.120  25.460   5.060
  150BOLB   C1C 3593  18.620  24.940   5.190
  150BOLB   C2C 3594  18.550  24.740   5.590
  150BOLB   C3C 3595  18.150  24.620   5.650
  150BOLB   C4C 3596  17.980  24.310   5.970
  150BOLB   C1D 3597  19.340  25.410   5.440
  150BOLB   C2D 3598  19.400  25.080   5.720
  150BOLB   C3D 3599  19.680  24.820   5.990
  150BOLB   C4D 3600  19.940  24.820   6.340
  151BOLB   NC1 3601  21.700  11.440  11.450
  151BOLB   PO1 3602  21.580  11.520  11.870
  151BOLB   GL1 3603  21.920  11.180  11.950
  151BOLB   GL2 3604  22.020  11.080  11.600
  151BOLB   C1A 3605  22.220  10.800  12.050
  151BOLB   C2A 3606  22.450  10.470  12.150
  151BOLB   C3A 3607  22.790  10.210  12.170
  151BOLB   C4A 3608  23.200  10.140  12.220
  151BOLB   C1B 3609  22.370  10.930  11.430
  151BOLB   C2B 3610  22.650  10.570  11.400
  151BOLB   C3B 3611  22.700  10.120  11.330
  151BOLB   C4B 3612  22.740   9.730  11.160
  151BOLB   NC2 3613  24.690   8.540  12.560
  151BOLB   PO2 3614  24.350   8.260  12.700
  151BOLB   GL3 3615  24.050   8.520  12.830
  151BOLB   GL4 3616  23.830   8.260  13.080
  151BOLB   C1C 3617  24.050   8.890  12.630
  151BOLB   C2C 3618  23.810   9.240  12.670
  151BOLB   C3C 3619  23.520   9.570  12.530
  151BOLB   C4C 3620  23.320   9.770  12.260
  151BOLB   C1D 3621  23.420   8.540  13.120
  151BOLB   C2D 3622  23.030   8.720  13.280
  151BOLB   C3D 3623  22.760   9.030  13.440
  151BOLB   C4D 3624  22.520   9.290  13.350
  152BOLB   NC1 3625  20.310   8.100   3.250
  152BOLB   PO1 3626  20.190   8.250   3.550
  152BOLB   GL1 3627  19.930   8.160   3.880
  152BOLB   GL2 3628  20.040   8.290   4.080
  152BOLB   C1A 3629  19.520   8.110   4.040
  152BOLB   C2A 3630  19.140   8.300   3.850
  152BOLB   C3A 3631  18.810   8.580   3.880
  152BOLB   C4A 3632  18.420   8.830   4.040
  152BOLB   C1B 3633  19.740   8.590   4.200
  152BOLB   C2B 3634  19.490   8.920   4.460
  152BOLB   C3B 3635  19.160   9.110   4.620
  152BOLB   C4B 3636  18.960   9.580   4.700
  152BOLB   NC2 3637  19.430   9.640   2.660
  152BOLB   PO2 3638  19.040   9.400   2.650
  152BOLB   GL3 3639  18.670   9.520   2.750
  152BOLB   GL4 3640  18.620   9.720   2.530
  152BOLB   C1C 3641  18.380   9.740   3.100
  152BOLB   C2C 3642  18.320   9.740   3.640
  152BOLB   C3C 3643  18.200   9.520   3.940
  152BOLB   C4C 3644  18.210   9.140   4.110
  152BOLB   C1D 3645  18.670  10.090   2.760
  152BOLB   C2D 3646  18.350  10.280   3.030
  152BOLB   C3D 3647  18.120  10.110   3.440
  152BOLB   C4D 3648  17.980  10.000   3.910
  153BOLB   NC1 3649  21.160  16.980   5.650
  153BOLB   PO1 3650  21.270  17.370   5.600
  153BOLB   GL1 3651  21.500  17.680   5.410
  153BOLB   GL2 3652  21.230  17.730   5.230
  153BOLB   C1A 3653  21.720  18.050   5.110
  153BOLB   C2A 3654  21.830  18.120   4.790
  153BOLB   C3A 3655  21.970  18.050   4.400
  153BOLB   C4A 3656  22.270  18.030   4.300
  153BOLB   C1B 3657  21.570  17.610   4.930
  153BOLB   C2B 3658  21.790  17.550   4.520
  153BOLB   C3B 3659  22.130  17.480   4.200
  153BOLB   C4B 3660  22.070  17.150   3.900
  153BOLB   NC2 3661  23.360  19.560   2.390
  153BOLB   PO2 3662  23.620  19.460   2.690
  153BOLB   GL3 3663  23.450  19.070   2.910
  153BOLB   GL4 3664  23.420  19.000   3.240
  153BOLB   C1C 3665  23.170  18.770   2.830
  153BOLB   C2C 3666  22.930  18.420   3.130
  153BOLB   C3C 3667  22.610  18.290   3.420
  153BOLB   C4C 3668  22.530  18.270   3.920
  153BOLB   C1D 3669  23.300  18.800   3.660
  153BOLB   C2D 3670  22.880  18.730   3.730
  153BOLB   C3D 3671  22.450  18.780   3.920
  153BOLB   C4D 3672  22.130  18.610   4.080
  154BOLB   NC1 3673  15.570  21.870   7.270
  154BOLB   PO1 3674  15.710  21.410   6.900
  154BOLB   GL1 3675  15.680  21.630   6.530
  154BOLB   GL2 3676  15.940  21.570   6.400
  154BOLB   C1A 3677  15.460  21.960   6.190
  154BOLB   C2A 3678  15.330  22.360   5.970
  154BOLB   C3A 3679  15.360  22.790   5.770
  154BOLB   C4A 3680  15.340  23.020   5.480
  154BOLB   C1B 3681  16.000  21.930   6.180
  154BOLB   C2B 3682  15.800  22.380   6.150
  154BOLB   C3B 3683  15.760  22.550   5.820
  154BOLB   C4B 3684  15.840  22.580   5.380
  154BOLB   NC2 3685  14.800  23.720   3.180
  154BOLB   PO2 3686  14.950  24.070   3.520
  154BOLB   GL3 3687  15.030  23.750   3.850
  154BOLB   GL4 3688  15.000  23.360   3.750
  154BOLB   C1C 3689  15.030  23.520   4.280
  154BOLB   C2C 3690  15.010  23.490   4.710
  154BOLB   C3C 3691  15.100  23.630   4.970
  154BOLB   C4C 3692  15.190  23.490   5.370
  154BOLB   C1D 3693  15.080  23.100   4.020
  154BOLB   C2D 3694  15.240  23.060   4.460
  154BOLB   C3D 3695  15.160  23.070   4.960
  154BOLB   C4D 3696  15.040  22.630   5.160
  155BOLB   NC1 3697  21.090  18.670   5.420
  155BOLB   PO1 3698  21.210  18.480   5.800
  155BOLB   GL1 3699  21.560  18.480   5.530
  155BOLB   GL2 3700  21.800  18.720   5.590
  155BOLB   C1A 3701  21.680  18.570   5.070
  155BOLB   C2A 3702  21.830  18.970   4.860
  155BOLB   C3A 3703  22.070  19.420   4.750
  155BOLB   C4A 3704  22.500  19.560   4.590
  155BOLB   C1B 3705  21.910  18.920   5.340
  155BOLB   C2B 3706  22.230  19.210   5.270
  155BOLB   C3B 3707  22.630  19.250   4.940
  155BOLB   C4B 3708  22.820  19.130   4.610
  155BOLB   NC2 3709  24.420  21.110   2.940
  155BOLB   PO2 3710  23.910  21.090   3.050
  155BOLB   GL3 3711  23.630  20.870   3.440
  155BOLB   GL4 3712  23.370  21.080   3.470
  155BOLB   C1C 3713  23.410  20.610   3.780
  155BOLB   C2C 3714  23.240  20.320   4.090
  155BOLB   C3C 3715  22.950  20.310   4.430
  155BOLB   C4C 3716  22.700  19.970   4.670
  155BOLB   C1D 3717  23.080  21.000   3.850
  155BOLB   C2D 3718  22.880  20.770   4.140
  155BOLB   C3D 3719  22.540  20.600   4.370
  155BOLB   C4D 3720  22.200  20.350   4.210
  156BOLB   NC1 3721  16.830  10.870   5.710
  156BOLB   PO1 3722  17.210  10.820   5.720
  156BOLB   GL1 3723  17.380  10.420   5.560
  156BOLB   GL2 3724  17.060  10.100   5.640
  156BOLB   C1A 3725  17.640  10.140   5.440
  156BOLB   C2A 3726  17.610   9.700   5.200
  156BOLB   C3A 3727  17.700   9.210   5.120
  156BOLB   C4A 3728  18.000   8.960   4.890
  156BOLB   C1B 3729  17.040   9.780   5.300
  156BOLB   C2B 3730  17.130   9.480   5.080
  156BOLB   C3B 3731  17.060   9.100   5.210
  156BOLB   C4B 3732  17.340   8.750   5.390
  156BOLB   NC2 3733  18.030   7.200   2.790
  156BOLB   PO2 3734  17.860   7.240   3.220
  156BOLB   GL3 3735  17.720   7.630   3.500
  156BOLB   GL4 3736  17.620   7.640   3.830
  156BOLB   C1C 3737  18.040   7.970   3.580
  156BOLB   C2C 3738  18.270   8.330   3.850
  156BOLB   C3C 3739  18.320   8.390   4.240
  156BOLB   C4C 3740  18.280   8.730   4.600
  156BOLB   C1D 3741  17.460   8.030   3.650
  156BOLB   C2D 3742  17.230   8.340   3.810
  156BOLB   C3D 3743  16.830   8.440   3.890
  156BOLB   C4D 3744  16.820   8.440   4.360
  157BOLB   NC1 3745   9.710  18.990   8.810
  157BOLB   PO1 3746   9.190  18.950   8.660
  157BOLB   GL1 3747   8.900  19.350   8.550
  157BOLB   GL2 3748   9.010  19.490   8.350
  157BOLB   C1A 3749   8.440  19.440   8.600
  157BOLB   C2A 3750   7.940  19.480   8.680
  157BOLB   C3A 3751   7.610  19.460   8.950
  157BOLB   C4A 3752   7.220  19.570   9.050
  157BOLB   C1B 3753   8.910  19.840   8.340
  157BOLB   C2B 3754   8.490  19.990   8.460
  157BOLB   C3B 3755   8.080  20.390   8.490
  157BOLB   C4B 3756   7.700  20.570   8.380
  157BOLB   NC2 3757   5.570  21.790   8.290
  157BOLB   PO2 3758   5.600  21.260   8.190
  157BOLB   GL3 3759   6.030  21.190   8.480
  157BOLB   GL4 3760   6.180  21.360   8.720
  157BOLB   C1C 3761   6.290  20.830   8.650
  157BOLB   C2C 3762   6.340  20.430   8.670
  157BOLB   C3C 3763   6.720  20.140   8.670
  157BOLB   C4C 3764   6.880  19.800   8.790
  157BOLB   C1D 3765   6.600  21.310   8.970
  157BOLB   C2D 3766   6.930  21.300   8.960
  157BOLB   C3D 3767   7.370  21.390   8.870
  157BOLB   C4D 3768   7.450  21.900   8.850
  158BOLB   NC1 3769  11.140   7.670  23.670
  158BOLB   PO1 3770  10.840   7.600  23.470
  158BOLB   GL1 3771  10.920   8.020  23.350
  158BOLB   GL2 3772  11.290   8.000  23.330
  158BOLB   C1A 3773  11.160   8.350  23.050
  158BOLB   C2A 3774  11.660   8.270  23.010
  158BOLB   C3A 3775  12.140   8.320  22.730
  158BOLB   C4A 3776  12.440   8.010  22.750
  158BOLB   C1B 3777  11.410   8.510  23.470
  158BOLB   C2B 3778  11.400   8.960  23.450
  158BOLB   C3B 3779  11.550   9.290  23.390
  158BOLB   C4B 3780  11.780   9.600  23.190
  158BOLB   NC2 3781  12.950   6.740  24.760
  158BOLB   PO2 3782  12.950   7.040  24.460
  158BOLB   GL3 3783  13.120   7.250  24.160
  158BOLB   GL4 3784  13.070   7.520  24.290
  158BOLB   C1C 3785  13.340   7.220  23.790
  158BOLB   C2C 3786  13.240   7.410  23.390
  158BOLB   C3C 3787  12.910   7.650  23.380
  158BOLB   C4C 3788  12.660   7.690  22.960
  158BOLB   C1D 3789  12.950   7.740  23.920
  158BOLB   C2D 3790  12.640   7.940  23.680
  158BOLB   C3D 3791  12.510   7.980  23.310
  158BOLB   C4D 3792  12.100   7.970  23.170
  159BOLB   NC1 3793  18.020   9.070  10.170
  159BOLB   PO1 3794  17.770   9.250   9.760
  159BOLB   GL1 3795  17.770   8.880   9.550
  159BOLB   GL2 3796  17.550   8.630   9.780
  159BOLB   C1A 3797  17.700   8.600   9.260
  159BOLB   C2A 3798  17.810   8.330   8.920
  159BOLB   C3A 3799  18.090   7.950   8.710
  159BOLB   C4A 3800  18.180   7.820   8.280
  159BOLB   C1B 3801  17.750   8.230   9.790
  159BOLB   C2B 3802  18.040   7.900   9.610
  159BOLB   C3B 3803  18.010   7.420   9.760
  159BOLB   C4B 3804  18.150   7.000   9.580
  159BOLB   NC2 3805  18.310   5.520   7.200
  159BOLB   PO2 3806  18.060   5.850   7.030
  159BOLB   GL3 3807  18.200   6.180   7.330
  159BOLB   GL4 3808  18.080   6.150   7.640
  159BOLB   C1C 3809  18.370   6.570   7.400
  159BOLB   C2C 3810  18.540   7.040   7.320
  159BOLB   C3C 3811  18.310   7.420   7.510
  159BOLB   C4C 3812  18.210   7.740   7.780
  159BOLB   C1D 3813  18.030   6.570   7.770
  159BOLB   C2D 3814  18.020   7.040   7.640
  159BOLB   C3D 3815  17.890   7.300   7.750
  159BOLB   C4D 3816  17.870   7.360   8.150
  160BOLB   NC1 3817  21.840  22.760   8.870
  160BOLB   PO1 3818  22.100  22.420   8.610
  160BOLB   GL1 3819  22.390  22.760   8.480
  160BOLB   GL2 3820  22.250  22.970   8.600
  160BOLB   C1A 3821  22.740  22.840   8.300
  160BOLB   C2A 3822  23.020  23.290   8.190
  160BOLB   C3A 3823  23.570  23.330   8.270
  160BOLB   C4A 3824  24.000  23.260   8.410
  160BOLB   C1B 3825  22.210  23.370   8.510
  160BOLB   C2B 3826  22.260  23.820   8.220
  160BOLB   C3B 3827  22.520  24.090   7.940
  160BOLB   C4B 3828  23.040  24.110   8.130
  160BOLB   NC2 3829  25.970  23.980   6.620
  160BOLB   PO2 3830  25.610  23.700   6.550
  160BOLB   GL3 3831  25.170  23.640   6.820
  160BOLB   GL4 3832  25.060  23.280   6.900
  160BOLB   C1C 3833  24.870  23.650   7.160
  160BOLB   C2C 3834  24.690  23.530   7.580
  160BOLB   C3C 3835  24.530  23.490   7.920
  160BOLB   C4C 3836  24.410  23.210   8.220
  160BOLB   C1D 3837  24.740  23.140   7.280
  160BOLB   C2D 3838  24.710  23.010   7.780
  160BOLB   C3D 3839  24.700  22.740   8.120
  160BOLB   C4D 3840  24.700  22.320   8.000
  161BOLB   NC1 3841  13.530  12.190   5.440
  161BOLB   PO1 3842  13.640  12.560   5.270
  161BOLB   GL1 3843  13.260  12.570   5.070
  161BOLB   GL2 3844  13.370  12.220   5.010
  161BOLB   C1A 3845  12.880  12.380   4.970
  161BOLB   C2A 3846  12.560  12.420   4.600
  161BOLB   C3A 3847  12.250  12.160   4.290
  161BOLB   C4A 3848  11.880  11.920   4.240
  161BOLB   C1B 3849  13.270  12.150   4.520
  161BOLB   C2B 3850  13.230  12.110   4.110
  161BOLB   C3B 3851  12.960  12.060   3.710
  161BOLB   C4B 3852  12.700  11.910   3.360
  161BOLB   NC2 3853  10.900  10.880   2.870
  161BOLB   PO2 3854  11.190  10.610   2.660
  161BOLB   GL3 3855  11.320  10.600   3.050
  161BOLB   GL4 3856  11.370  10.940   3.140
  161BOLB   C1C 3857  11.640  10.690   3.460
  161BOLB   C2C 3858  11.580  10.850   3.850
  161BOLB   C3C 3859  11.490  11.140   4.250
  161BOLB   C4C 3860  11.520  11.610   4.260
  161BOLB   C1D 3861  11.260  11.110   3.570
  161BOLB   C2D 3862  11.250  11.510   3.720
  161BOLB   C3D 3863  11.580  11.780   3.760
  161BOLB   C4D 3864  12.060  11.730   3.560
  162BOLB   NC1 3865  19.000  14.870   4.880
  162BOLB   PO1 3866  18.550  14.700   4.790
  162BOLB   GL1 3867  18.740  14.790   4.340
  162BOLB   GL2 3868  18.450  14.720   4.110
  162BOLB   C1A 3869  18.950  14.660   4.030
  162BOLB   C2A 3870  18.850  14.670   3.560
  162BOLB   C3A 3871  19.040  14.760   3.180
  162BOLB   C4A 3872  19.300  14.370   2.860
  162BOLB   C1B 3873  18.590  14.310   3.810
  162BOLB   C2B 3874  18.830  14.090   3.480
  162BOLB   C3B 3875  18.960  13.990   2.980
  162BOLB   C4B 3876  18.980  13.590   2.890
  162BOLB   NC2 3877  20.610  13.650   1.180
  162BOLB   PO2 3878  20.380  13.850   1.260
  162BOLB   GL3 3879  20.280  14.140   1.490
  162BOLB   GL4 3880  20.450  14.420   1.540
  162BOLB   C1C 3881  19.870  14.190   1.730
  162BOLB   C2C 3882  19.550  13.890   1.860
  162BOLB   C3C 3883  19.390  13.870   2.190
  162BOLB   C4C 3884  19.280  14.050   2.570
  162BOLB   C1D 3885  20.800  14.340   1.750
  162BOLB   C2D 3886  20.870  14.360   2.160
  162BOLB   C3D 3887  20.650  14.730   2.390
  162BOLB   C4D 3888  20.330  15.010   2.510
  163BOLB   NC1 3889  22.430  16.060  15.410
  163BOLB   PO1 3890  22.670  15.750  15.270
  163BOLB   GL1 3891  23.080  15.520  15.180
  163BOLB   GL2 3892  23.380  15.630  15.010
  163BOLB   C1A 3893  23.320  15.400  15.480
  163BOLB   C2A 3894  23.410  15.100  15.780
  163BOLB   C3A 3895  23.640  14.990  16.010
  163BOLB   C4A 3896  24.060  14.810  16.200
  163BOLB   C1B 3897  23.480  15.130  15.050
  163BOLB   C2B 3898  23.630  14.750  15.330
  163BOLB   C3B 3899  23.850  14.830  15.610
  163BOLB   C4B 3900  24.020  14.480  15.850
  163BOLB   NC2 3901  26.640  13.400  16.110
  163BOLB   PO2 3902  26.260  13.590  16.360
  163BOLB   GL3 3903  25.950  13.860  16.440
  163BOLB   GL4 3904  25.690  13.790  16.690
  163BOLB   C1C 3905  25.440  13.960  16.260
  163BOLB   C2C 3906  25.220  14.300  16.100
  163BOLB   C3C 3907  24.930  14.600  15.970
  163BOLB   C4C 3908  24.440  14.640  16.070
  163BOLB   C1D 3909  25.270  13.870  16.760
  163BOLB   C2D 3910  24.940  14.020  16.480
  163BOLB   C3D 3911  24.820  14.430  16.420
  163BOLB   C4D 3912  24.550  14.730  16.540
  164BOLB   NC1 3913  14.110  14.390   4.070
  164BOLB   PO1 3914  14.540  14.530   4.020
  164BOLB   GL1 3915  14.380  14.450   3.630
  164BOLB   GL2 3916  14.110  14.660   3.620
  164BOLB   C1A 3917  14.010  14.220   3.360
  164BOLB   C2A 3918  13.980  13.970   3.010
  164BOLB   C3A 3919  13.620  13.910   2.770
  164BOLB   C4A 3920  13.340  14.140   2.420
  164BOLB   C1B 3921  13.950  14.800   3.230
  164BOLB   C2B 3922  13.730  14.660   2.870
  164BOLB   C3B 3923  13.540  14.690   2.570
  164BOLB   C4B 3924  13.110  14.640   2.630
  164BOLB   NC2 3925  13.020  14.790   0.060
  164BOLB   PO2 3926  13.320  14.650   0.380
  164BOLB   GL3 3927  13.480  14.660   0.690
  164BOLB   GL4 3928  13.720  14.890   0.880
  164BOLB   C1C 3929  13.350  14.630   1.090
  164BOLB   C2C 3930  13.430  14.460   1.430
  164BOLB   C3C 3931  13.330  14.530   1.870
  164BOLB   C4C 3932  13.180  14.460   2.200
  164BOLB   C1D 3933  13.820  14.920   1.280
  164BOLB   C2D 3934  13.790  14.720   1.700
  164BOLB   C3D 3935  13.840  14.660   2.170
  164BOLB   C4D 3936  14.070  14.830   2.560
  165BOLB   NC1 3937  24.210  19.790   3.340
  165BOLB   PO1 3938  24.450  19.940   3.700
  165BOLB   GL1 3939  24.270  20.110   4.050
  165BOLB   GL2 3940  24.110  19.810   4.120
  165BOLB   C1A 3941  24.060  20.170   4.460
  165BOLB   C2A 3942  23.780  19.940   4.620
  165BOLB   C3A 3943  23.420  19.730   4.880
  165BOLB   C4A 3944  23.030  19.630   4.730
  165BOLB   C1B 3945  23.900  19.440   4.410
  165BOLB   C2B 3946  23.780  19.440   4.790
  165BOLB   C3B 3947  23.670  19.440   5.210
  165BOLB   C4B 3948  23.320  19.560   5.390
  165BOLB   NC2 3949  24.250  20.170   2.470
  165BOLB   PO2 3950  24.030  20.100   2.870
  165BOLB   GL3 3951  23.670  20.090   3.010
  165BOLB   GL4 3952  23.420  19.890   2.870
  165BOLB   C1C 3953  23.300  19.940   3.370
  165BOLB   C2C 3954  23.080  20.040   3.700
  165BOLB   C3C 3955  22.950  19.730   3.940
  165BOLB   C4C 3956  22.980  19.590   4.310
  165BOLB   C1D 3957  23.150  19.680   3.000
  165BOLB   C2D 3958  22.830  19.680   3.410
  165BOLB   C3D 3959  22.520  19.750   3.640
  165BOLB   C4D 3960  22.220  20.060   3.820
  166BOLB   NC1 3961  18.000  25.090  11.760
  166BOLB   PO1 3962  17.660  25.120  12.100
  166BOLB   GL1 3963  17.610  25.610  11.930
  166BOLB   GL2 3964  17.840  25.630  11.580
  166BOLB   C1A 3965  17.720  26.010  11.910
  166BOLB   C2A 3966  17.950  26.290  12.020
  166BOLB   C3A 3967  18.170  26.570  11.760
  166BOLB   C4A 3968  18.210  26.770  11.430
  166BOLB   C1B 3969  18.170  25.910  11.710
  166BOLB   C2B 3970  18.560  26.160  11.600
  166BOLB   C3B 3971  18.670  26.580  11.430
  166BOLB   C4B 3972  19.040  26.830  11.280
  166BOLB   NC2 3973  19.390  28.720  10.810
  166BOLB   PO2 3974  19.720  28.790  11.250
  166BOLB   GL3 3975  19.420  28.450  11.230
  166BOLB   GL4 3976  19.330  28.470  11.540
  166BOLB   C1C 3977  19.320  28.080  10.980
  166BOLB   C2C 3978  19.060  27.630  11.020
  166BOLB   C3C 3979  18.830  27.320  11.070
  166BOLB   C4C 3980  18.510  27.080  11.320
  166BOLB   C1D 3981  19.110  28.090  11.690
  166BOLB   C2D 3982  18.960  27.750  12.040
  166BOLB   C3D 3983  18.870  27.250  12.110
  166BOLB   C4D 3984  18.740  26.970  12.380
  167BOLB   NC1 3985  19.180  13.800  19.170
  167BOLB   PO1 3986  19.030  14.190  19.290
  167BOLB   GL1 3987  19.360  13.880  19.680
  167BOLB   GL2 3988  19.630  14.010  19.710
  167BOLB   C1A 3989  19.480  13.650  20.030
  167BOLB   C2A 3990  19.810  13.420  20.280
  167BOLB   C3A 3991  20.200  13.260  20.460
  167BOLB   C4A 3992  20.000  13.160  20.810
  167BOLB   C1B 3993  19.910  13.760  19.860
  167BOLB   C2B 3994  20.320  13.650  20.080
  167BOLB   C3B 3995  20.590  13.560  20.510
  167BOLB   C4B 3996  20.960  13.270  20.720
  167BOLB   NC2 3997  19.520  12.570  22.930
  167BOLB   PO2 3998  19.950  12.730  23.050
  167BOLB   GL3 3999  19.850  13.080  22.760
  167BOLB   GL4 4000  19.870  13.470  22.800
  167BOLB   C1C 4001  19.690  13.200  22.350
  167BOLB   C2C 4002  19.710  13.410  21.940
  167BOLB   C3C 4003  19.640  13.450  21.530
  167BOLB   C4C 4004  19.670  13.180  21.110
  167BOLB   C1D 4005  20.090  13.600  22.360
  167BOLB   C2D 4006  20.220  13.480  21.930
  167BOLB   C3D 4007  20.120  13.630  21.490
  167BOLB   C4D 4008  20.140  13.230  21.300
  168BOLB   NC1 4009  23.590   8.680  16.580
  168BOLB   PO1 4010  23.180   8.840  16.730
  168BOLB   GL1 4011  23.180   9.240  16.760
  168BOLB   GL2 4012  23.040   9.230  16.520
  168BOLB   C1A 4013  22.930   9.680  16.730
  168BOLB   C2A 4014  22.680   9.760  16.310
  168BOLB   C3A 4015  22.360   9.780  16.030
  168BOLB   C4A 4016  22.290   9.860  15.620
  168BOLB   C1B 4017  22.840   9.330  16.130
  168BOLB   C2B 4018  22.540   9.320  15.740
  168BOLB   C3B 4019  22.200   9.370  15.490
  168BOLB   C4B 4020  21.910   9.290  15.360
  168BOLB   NC2 4021  21.950  12.520  15.020
  168BOLB   PO2 4022  21.680  12.190  15.170
  168BOLB   GL3 4023  21.610  11.830  15.380
  168BOLB   GL4 4024  21.600  11.930  15.710
  168BOLB   C1C 4025  21.730  11.430  15.520
  168BOLB   C2C 4026  21.920  11.080  15.730
  168BOLB   C3C 4027  22.110  10.630  15.750
  168BOLB   C4C 4028  22.240  10.260  15.500
  168BOLB   C1D 4029  21.750  11.600  16.020
  168BOLB   C2D 4030  21.870  11.400  16.340
  168BOLB   C3D 4031  22.050  11.090  16.610
  168BOLB   C4D 4032  22.290  11.200  17.020
  169BOLB   NC1 4033  27.200  17.670   7.100
  169BOLB   PO1 4034  27.230  18.130   7.000
  169BOLB   GL1 4035  26.840  17.920   6.880
  169BOLB   GL2 4036  26.680  17.570   7.000
  169BOLB   C1A 4037  26.410  18.070   6.720
  169BOLB   C2A 4038  26.050  18.070   7.010
  169BOLB   C3A 4039  25.640  18.120   7.110
  169BOLB   C4A 4040  25.410  18.500   7.310
  169BOLB   C1B 4041  26.350  17.760   7.240
  169BOLB   C2B 4042  26.020  17.940   7.490
  169BOLB   C3B 4043  25.750  18.070   7.720
  169BOLB   C4B 4044  25.440  18.230   7.790
  169BOLB   NC2 4045  23.670  19.550   8.550
  169BOLB   PO2 4046  23.360  19.400   8.200
  169BOLB   GL3 4047  23.770  19.240   8.150
  169BOLB   GL4 4048  23.870  19.540   8.080
  169BOLB   C1C 4049  23.990  19.130   7.750
  169BOLB   C2C 4050  24.390  19.010   7.530
  169BOLB   C3C 4051  24.700  18.830   7.310
  169BOLB   C4C 4052  25.120  18.610   7.470
  169BOLB   C1D 4053  24.240  19.630   7.760
  169BOLB   C2D 4054  24.620  19.450   7.540
  169BOLB   C3D 4055  24.950  19.580   7.180
  169BOLB   C4D 4056  25.330  19.870   7.330
  170BOLB   NC1 4057  19.830  13.380  18.000
  170BOLB   PO1 4058  19.650  13.310  18.460
  170BOLB   GL1 4059  19.970  13.190  18.600
  170BOLB   GL2 4060  20.150  13.410  18.410
  170BOLB   C1A 4061  20.310  13.100  19.000
  170BOLB   C2A 4062  20.510  12.730  19.140
  170BOLB   C3A 4063  20.750  12.660  19.490
  170BOLB   C4A 4064  20.830  12.760  19.900
  170BOLB   C1B 4065  20.460  13.140  18.510
  170BOLB   C2B 4066  20.680  12.880  18.690
  170BOLB   C3B 4067  20.960  12.780  18.930
  170BOLB   C4B 4068  21.190  12.620  19.280
  170BOLB   NC2 4069  21.100  12.800  22.560
  170BOLB   PO2 4070  21.000  12.640  22.080
  170BOLB   GL3 4071  20.650  13.030  21.910
  170BOLB   GL4 4072  20.970  13.200  21.780
  170BOLB   C1C 4073  20.460  12.900  21.600
  170BOLB   C2C 4074  20.400  12.820  21.140
  170BOLB   C3C 4075  20.530  13.000  20.720
  170BOLB   C4C 4076  20.570  12.890  20.330
  170BOLB   C1D 4077  20.830  13.540  21.580
  170BOLB   C2D 4078  20.800  13.920  21.390
  170BOLB   C3D 4079  20.440  13.950  21.090
  170BOLB   C4D 4080  20.250  14.160  20.870
  171BOLB   NC1 4081   9.500  17.190   8.410
  171BOLB   PO1 4082   9.420  16.950   8.040
  171BOLB   GL1 4083   8.920  16.960   7.830
  171BOLB   GL2 4084   8.700  17.150   7.940
  171BOLB   C1A 4085   8.700  16.640   7.670
  171BOLB   C2A 4086   8.390  16.630   7.350
  171BOLB   C3A 4087   7.990  16.500   7.160
  171BOLB   C4A 4088   7.680  16.670   6.890
  171BOLB   C1B 4089   8.420  17.100   7.670
  171BOLB   C2B 4090   8.010  16.970   7.460
  171BOLB   C3B 4091   7.610  16.980   7.300
  171BOLB   C4B 4092   7.180  16.890   7.160
  171BOLB   NC2 4093   5.630  17.110   5.360
  171BOLB   PO2 4094   6.080  17.050   5.520
  171BOLB   GL3 4095   6.320  17.410   5.610
  171BOLB   GL4 4096   6.590  17.600   5.310
  171BOLB   C1C 4097   6.610  17.490   5.880
  171BOLB   C2C 4098   6.950  17.320   6.100
  171BOLB   C3C 4099   7.110  17.090   6.400
  171BOLB   C4C 4100   7.520  16.990   6.690
  171BOLB   C1D 4101   6.990  17.410   5.470
  171BOLB   C2D 4102   7.390  17.500   5.430
  171BOLB   C3D 4103   7.810  17.700   5.560
  171BOLB   C4D 4104   8.070  18.120   5.570
  172BOLB   NC1 4105  10.570  16.940   7.490
  172BOLB   PO1 4106  10.710  17.070   7.000
  172BOLB   GL1 4107  10.430  17.220   6.710
  172BOLB   GL2 4108  10.310  17.540   6.740
  172BOLB   C1A 4109   9.970  17.190   6.510
  172BOLB   C2A 4110   9.750  17.190   6.170
  172BOLB   C3A 4111   9.390  17.260   6.040
  172BOLB   C4A 4112   9.100  17.050   5.740
  172BOLB   C1B 4113  10.090  17.960   6.590
  172BOLB   C2B 4114   9.730  18.140   6.340
  172BOLB   C3B 4115   9.390  18.360   6.260
  172BOLB   C4B 4116   9.320  18.490   5.930
  172BOLB   NC2 4117   7.730  17.520   3.300
  172BOLB   PO2 4118   7.780  17.720   3.680
  172BOLB   GL3 4119   7.890  17.290   3.980
  172BOLB   GL4 4120   7.810  17.170   4.350
  172BOLB   C1C 4121   8.250  16.910   4.140
  172BOLB   C2C 4122   8.520  16.820   4.610
  172BOLB   C3C 4123   8.690  16.970   5.010
  172BOLB   C4C 4124   8.920  16.960   5.300
  172BOLB   C1D 4125   8.250  17.230   4.570
  172BOLB   C2D 4126   8.620  17.320   4.690
  172BOLB   C3D 4127   8.880  17.730   4.820
  172BOLB   C4D 4128   8.960  17.790   5.290
  173BOLB   NC1 4129   7.850  23.180   6.030
  173BOLB   PO1 4130   8.250  23.080   5.840
  173BOLB   GL1 4131   8.400  22.770   6.050
  173BOLB   GL2 4132   8.270  22.420   6.100
  173BOLB   C1A 4133   8.770  22.800   6.330
  173BOLB   C2A 4134   8.960  22.640   6.720
  173BOLB   C3A 4135   9.160  22.690   7.130
  173BOLB   C4A 4136   9.290  22.420   7.410
  173BOLB   C1B 4137   8.510  22.070   6.190
  173BOLB   C2B 4138   8.870  21.850   6.380
  173BOLB   C3B 4139   8.920  21.720   6.810
  173BOLB   C4B 4140   9.210  21.320   7.020
  173BOLB   NC2 4141  11.330  21.210   8.680
  173BOLB   PO2 4142  11.040  21.030   8.740
  173BOLB   GL3 4143  10.730  21.240   8.460
  173BOLB   GL4 4144  10.680  21.050   8.040
  173BOLB   C1C 4145  10.250  21.270   8.330
  173BOLB   C2C 4146   9.890  21.560   8.320
  173BOLB   C3C 4147   9.520  21.920   8.050
  173BOLB   C4C 4148   9.210  22.090   7.720
  173BOLB   C1D 4149  10.430  21.310   7.810
  173BOLB   C2D 4150  10.150  21.560   7.860
  173BOLB   C3D 4151   9.900  21.840   7.660
  173BOLB   C4D 4152   9.630  22.070   7.450
  174BOLB   NC1 4153  15.950   6.590   5.340
  174BOLB   PO1 4154  15.580   6.240   5.350
  174BOLB   GL1 4155  15.710   6.550   5.770
  174BOLB   GL2 4156  15.750   6.450   6.150
  174BOLB   C1A 4157  15.790   6.980   5.950
  174BOLB   C2A 4158  15.580   7.440   5.930
  174BOLB   C3A 4159  15.720   7.720   5.760
  174BOLB   C4A 4160  16.010   8.090   5.670
  174BOLB   C1B 4161  15.830   6.750   6.460
  174BOLB   C2B 4162  16.230   7.110   6.780
  174BOLB   C3B 4163  16.280   7.350   7.230
  174BOLB   C4B 4164  16.030   7.680   7.480
  174BOLB   NC2 4165  16.200   6.160   5.480
  174BOLB   PO2 4166  16.350   6.460   5.040
  174BOLB   GL3 4167  16.490   6.790   5.250
  174BOLB   GL4 4168  16.440   6.700   5.510
  174BOLB   C1C 4169  16.710   7.170   5.140
  174BOLB   C2C 4170  16.700   7.560   5.020
  174BOLB   C3C 4171  16.700   7.940   5.290
  174BOLB   C4C 4172  16.410   8.150   5.540
  174BOLB   C1D 4173  16.300   7.180   5.720
  174BOLB   C2D 4174  16.120   7.500   5.970
  174BOLB   C3D 4175  15.930   7.830   6.230
  174BOLB   C4D 4176  15.800   8.120   6.610
  175BOLB   NC1 4177  13.470   9.160  10.860
  175BOLB   PO1 4178  13.100   9.320  10.720
  175BOLB   GL1 4179  13.180   8.950  10.460
  175BOLB   GL2 4180  12.900   8.780  10.200
  175BOLB   C1A 4181  13.280   8.530  10.440
  175BOLB   C2A 4182  13.340   8.100  10.410
  175BOLB   C3A 4183  13.570   7.730  10.440
  175BOLB   C4A 4184  13.650   7.290  10.270
  175BOLB   C1B 4185  12.910   8.420   9.950
  175BOLB   C2B 4186  12.680   8.050   9.750
  175BOLB   C3B 4187  12.170   7.870   9.540
  175BOLB   C4B 4188  11.860   7.490   9.650
  175BOLB   NC2 4189  13.430   4.960  10.720
  175BOLB   PO2 4190  13.720   4.880  10.340
  175BOLB   GL3 4191  13.520   5.310  10.400
  175BOLB   GL4 4192  13.290   5.500  10.700
  175BOLB   C1C 4193  13.520   5.740  10.300
  175BOLB   C2C 4194  13.630   6.090  10.420
  175BOLB   C3C 4195  13.760   6.490  10.390
  175BOLB   C4C 4196  13.720   6.840  10.220
  175BOLB   C1D 4197  13.370   5.900  10.860
  175BOLB   C2D 4198  13.440   6.270  10.850
  175BOLB   C3D 4199  13.410   6.790  10.710
  175BOLB   C4D 4200  13.340   7.210  10.680
  176BOLB   NC1 4201  27.050  15.270   6.560
  176BOLB   PO1 4202  26.820  15.560   6.420
  176BOLB   GL1 4203  26.460  15.220   6.510
  176BOLB   GL2 4204  26.180  15.440   6.440
  176BOLB   C1A 4205  26.110  15.080   6.800
  176BOLB   C2A 4206  26.120  15.090   7.220
  176BOLB   C3A 4207  25.820  15.230   7.510
  176BOLB   C4A 4208  25.710  15.360   7.940
  176BOLB   C1B 4209  25.880  15.520   6.840
  176BOLB   C2B 4210  25.580  15.340   7.080
  176BOLB   C3B 4211  25.160  15.340   7.110
  176BOLB   C4B 4212  24.760  15.090   6.890
  176BOLB   NC2 4213  23.120  15.260   9.440
  176BOLB   PO2 4214  23.630  15.090   9.430
  176BOLB   GL3 4215  24.110  15.280   9.160
  176BOLB   GL4 4216  23.940  15.480   8.990
  176BOLB   C1C 4217  24.530  15.360   9.210
  176BOLB   C2C 4218  24.960  15.510   9.110
  176BOLB   C3C 4219  25.230  15.570   8.670
  176BOLB   C4C 4220  25.610  15.500   8.390
  176BOLB   C1D 4221  24.170  15.240   8.670
  176BOLB   C2D 4222  24.480  14.920   8.540
  176BOLB   C3D 4223  24.410  14.690   8.140
  176BOLB   C4D 4224  24.590  14.730   7.780
  177BOLB   NC1 4225  18.710  19.970   5.770
  177BOLB   PO1 4226  18.470  20.300   5.990
  177BOLB   GL1 4227  18.350  20.640   5.660
  177BOLB   GL2 4228  18.600  20.660   5.480
  177BOLB   C1A 4229  18.240  20.570   5.140
  177BOLB   C2A 4230  18.330  20.670   4.730
  177BOLB   C3A 4231  18.320  20.770   4.310
  177BOLB   C4A 4232  18.430  20.970   3.940
  177BOLB   C1B 4233  18.590  20.910   5.130
  177BOLB   C2B 4234  18.490  21.290   4.870
  177BOLB   C3B 4235  18.300  21.590   4.670
  177BOLB   C4B 4236  18.650  21.800   4.400
  177BOLB   NC2 4237  18.810  21.860   1.430
  177BOLB   PO2 4238  18.410  21.860   1.720
  177BOLB   GL3 4239  18.270  21.810   2.030
  177BOLB   GL4 4240  18.210  22.090   2.220
  177BOLB   C1C 4241  18.120  21.460   2.370
  177BOLB   C2C 4242  18.140  21.400   2.740
  177BOLB   C3C 4243  18.270  21.300   3.130
  177BOLB   C4C 4244  18.230  21.150   3.510
  177BOLB   C1D 4245  17.990  21.900   2.550
  177BOLB   C2D 4246  17.610  21.810   2.790
  177BOLB   C3D 4247  17.310  21.680   3.090
  177BOLB   C4D 4248  17.090  21.310   3.360
  178BOLB   NC1 4249  17.240   9.350  13.960
  178BOLB   PO1 4250  17.340   8.930  13.820
  178BOLB   GL1 4251  17.320   8.550  13.760
  178BOLB   GL2 4252  17.370   8.480  14.040
  178BOLB   C1A 4253  17.390   8.210  13.610
  178BOLB   C2A 4254  17.370   7.750  13.710
  178BOLB   C3A 4255  17.330   7.320  13.640
  178BOLB   C4A 4256  17.500   6.900  13.560
  178BOLB   C1B 4257  17.560   8.150  14.360
  178BOLB   C2B 4258  17.680   7.780  14.530
  178BOLB   C3B 4259  17.780   7.700  14.870
  178BOLB   C4B 4260  17.550   7.390  14.980
  178BOLB   NC2 4261  18.500   4.970  13.630
  178BOLB   PO2 4262  18.680   5.160  13.180
  178BOLB   GL3 4263  18.420   5.370  12.950
  178BOLB   GL4 4264  18.560   5.620  12.860
  178BOLB   C1C 4265  17.950   5.580  13.090
  178BOLB   C2C 4266  17.870   5.960  13.190
  178BOLB   C3C 4267  17.570   6.310  13.100
  178BOLB   C4C 4268  17.450   6.720  13.260
  178BOLB   C1D 4269  18.240   5.850  12.680
  178BOLB   C2D 4270  17.920   6.080  12.680
  178BOLB   C3D 4271  17.510   6.190  12.580
  178BOLB   C4D 4272  17.240   6.570  12.470
  179BOLB   NC1 4273  18.950  12.060   1.110
  179BOLB   PO1 4274  19.370  12.080   1.290
  179BOLB   GL1 4275  19.110  12.300   1.570
  179BOLB   GL2 4276  19.000  12.520   1.440
  179BOLB   C1A 4277  18.630  12.360   1.830
  179BOLB   C2A 4278  18.640  12.170   2.210
  179BOLB   C3A 4279  18.930  12.160   2.600
  179BOLB   C4A 4280  18.970  12.530   2.740
  179BOLB   C1B 4281  19.070  12.750   1.810
  179BOLB   C2B 4282  19.380  13.010   1.840
  179BOLB   C3B 4283  19.360  13.330   2.130
  179BOLB   C4B 4284  19.260  13.460   2.520
  179BOLB   NC2 4285  18.940  13.630   0.970
  179BOLB   PO2 4286  19.320  13.660   1.100
  179BOLB   GL3 4287  19.040  13.680   1.520
  179BOLB   GL4 4288  18.930  13.400   1.630
  179BOLB   C1C 4289  18.990  13.740   1.940
  179BOLB   C2C 4290  18.830  13.620   2.310
  179BOLB   C3C 4291  18.780  13.200   2.690
  179BOLB   C4C 4292  18.760  12.850   2.790
  179BOLB   C1D 4293  18.540  13.410   1.870
  179BOLB   C2D 4294  18.260  13.580   2.120
  179BOLB   C3D 4295  17.870  13.830   2.440
  179BOLB   C4D 4296  18.040  13.960   2.820
  180BOLB   NC1 4297  20.780  21.460   7.470
  180BOLB   PO1 4298  21.010  21.320   7.160
  180BOLB   GL1 4299  21.270  21.560   6.950
  180BOLB   GL2 4300  21.460  21.930   7.130
  180BOLB   C1A 4301  21.620  21.730   6.680
  180BOLB   C2A 4302  21.840  21.760   6.270
  180BOLB   C3A 4303  21.910  22.000   5.950
  180BOLB   C4A 4304  21.730  22.430   5.650
  180BOLB   C1B 4305  21.550  22.320   7.010
  180BOLB   C2B 4306  21.830  22.580   6.730
  180BOLB   C3B 4307  21.940  22.890   6.510
  180BOLB   C4B 4308  22.000  23.220   6.280
  180BOLB   NC2 4309  21.700  24.770   4.780
  180BOLB   PO2 4310  22.040  24.540   4.530
  180BOLB   GL3 4311  21.950  24.100   4.480
  180BOLB   GL4 4312  22.250  23.900   4.580
  180BOLB   C1C 4313  21.610  23.840   4.570
  180BOLB   C2C 4314  21.510  23.390   4.770
  180BOLB   C3C 4315  21.690  23.090   5.110
  180BOLB   C4C 4316  21.830  22.800   5.410
  180BOLB   C1D 4317  22.020  23.460   4.690
  180BOLB   C2D 4318  21.860  22.970   4.630
  180BOLB   C3D 4319  21.700  22.630   4.880
  180BOLB   C4D 4320  21.350  22.660   5.240
  181BOLB   NC1 4321  14.550   4.520  13.180
  181BOLB   PO1 4322  14.320   4.930  13.020
  181BOLB   GL1 4323  14.230   5.330  12.800
  181BOLB   GL2 4324  14.260   5.300  12.410
  181BOLB   C1A 4325  14.380   5.650  12.840
  181BOLB   C2A 4326  14.440   6.020  12.890
  181BOLB   C3A 4327  14.510   6.450  13.050
  181BOLB   C4A 4328  14.540   6.810  13.200
  181BOLB   C1B 4329  14.370   5.780  12.340
  181BOLB   C2B 4330  14.480   6.240  12.350
  181BOLB   C3B 4331  14.570   6.580  12.580
  181BOLB   C4B 4332  14.890   6.730  12.690
  181BOLB   NC2 4333  15.110   9.280  13.680
  181BOLB   PO2 4334  14.890   9.080  13.380
  181BOLB   GL3 4335  14.800   8.650  13.200
  181BOLB   GL4 4336  14.630   8.520  13.480
  181BOLB   C1C 4337  14.820   8.160  13.150
  181BOLB   C2C 4338  14.640   7.870  13.050
  181BOLB   C3C 4339  14.660   7.420  12.950
  181BOLB   C4C 4340  14.800   7.100  13.050
  181BOLB   C1D 4341  14.980   8.210  13.680
  181BOLB   C2D 4342  15.130   7.830  13.600
  181BOLB   C3D 4343  15.050   7.630  13.290
  181BOLB   C4D 4344  15.290   7.290  13.260
  182BOLB   NC1 4345  25.760  10.660  16.560
  182BOLB   PO1 4346  25.750  10.800  16.190
  182BOLB   GL1 4347  25.500  11.200  16.410
  182BOLB   GL2 4348  25.100  11.220  16.650
  182BOLB   C1A 4349  25.270  11.540  16.280
  182BOLB   C2A 4350  24.960  11.860  16.290
  182BOLB   C3A 4351  24.700  12.220  16.100
  182BOLB   C4A 4352  24.450  12.540  16.050
  182BOLB   C1B 4353  24.920  11.200  16.260
  182BOLB   C2B 4354  24.590  11.300  15.940
  182BOLB   C3B 4355  24.370  11.420  15.600
  182BOLB   C4B 4356  23.960  11.560  15.430
  182BOLB   NC2 4357  22.520  14.010  15.260
  182BOLB   PO2 4358  22.580  13.790  15.650
  182BOLB   GL3 4359  22.730  13.590  16.010
  182BOLB   GL4 4360  22.520  13.450  16.270
  182BOLB   C1C 4361  23.020  13.190  16.070
  182BOLB   C2C 4362  23.410  13.040  16.240
  182BOLB   C3C 4363  23.810  12.890  16.260
  182BOLB   C4C 4364  24.100  12.780  16.000
  182BOLB   C1D 4365  22.760  13.260  16.440
  182BOLB   C2D 4366  23.060  13.020  16.550
  182BOLB   C3D 4367  23.280  12.640  16.600
  182BOLB   C4D 4368  23.730  12.560  16.700
  183BOLB   NC1 4369  19.020  10.110   8.630
  183BOLB   PO1 4370  18.520  10.130   8.700
  183BOLB   GL1 4371  18.730   9.760   8.750
  183BOLB   GL2 4372  18.820   9.650   8.490
  183BOLB   C1A 4373  18.540   9.380   8.980
  183BOLB   C2A 4374  18.520   8.960   8.780
  183BOLB   C3A 4375  18.810   8.670   8.650
  183BOLB   C4A 4376  18.980   8.230   8.430
  183BOLB   C1B 4377  18.790   9.350   8.360
  183BOLB   C2B 4378  18.530   9.080   8.280
  183BOLB   C3B 4379  18.450   8.650   8.180
  183BOLB   C4B 4380  18.510   8.270   8.360
  183BOLB   NC2 4381  19.730   5.690   9.010
  183BOLB   PO2 4382  19.950   5.870   8.590
  183BOLB   GL3 4383  19.850   6.310   8.530
  183BOLB   GL4 4384  20.210   6.470   8.610
  183BOLB   C1C 4385  19.690   6.680   8.560
  183BOLB   C2C 4386  19.760   7.200   8.570
  183BOLB   C3C 4387  19.590   7.660   8.570
  183BOLB   C4C 4388  19.270   8.060   8.390
  183BOLB   C1D 4389  20.140   6.850   8.780
  183BOLB   C2D 4390  20.170   7.280   9.100
  183BOLB   C3D 4391  20.540   7.480   9.360
  183BOLB   C4D 4392  20.580   7.550   9.780
  184BOLB   NC1 4393  15.360   8.900  12.490
  184BOLB   PO1 4394  15.450   9.130  12.690
  184BOLB   GL1 4395  15.560   8.630  12.900
  184BOLB   GL2 4396  15.680   8.510  12.560
  184BOLB   C1A 4397  15.290   8.180  12.800
  184BOLB   C2A 4398  15.000   7.850  12.650
  184BOLB   C3A 4399  14.720   7.530  12.460
  184BOLB   C4A 4400  14.790   7.180  12.310
  184BOLB   C1B 4401  15.560   8.160  12.290
  184BOLB   C2B 4402  15.520   7.790  12.080
  184BOLB   C3B 4403  15.600   7.370  11.890
  184BOLB   C4B 4404  15.600   7.170  11.490
  184BOLB   NC2 4405  15.200   4.660  12.100
  184BOLB   PO2 4406  14.860   4.680  11.780
  184BOLB   GL3 4407  14.920   5.160  11.850
  184BOLB   GL4 4408  14.960   5.150  12.110
  184BOLB   C1C 4409  14.620   5.500  11.890
  184BOLB   C2C 4410  14.450   5.940  11.760
  184BOLB   C3C 4411  14.440   6.490  11.810
  184BOLB   C4C 4412  14.550   6.990  11.930
  184BOLB   C1D 4413  14.840   5.510  12.350
  184BOLB   C2D 4414  14.870   5.970  12.510
  184BOLB   C3D 4415  14.990   6.270  12.970
  184BOLB   C4D 4416  15.140   6.570  13.110
  185BOLB   NC1 4417  22.440  27.710  10.640
  185BOLB   PO1 4418  21.990  27.810  10.750
  185BOLB   GL1 4419  21.920  27.370  10.860
  185BOLB   GL2 4420  21.780  27.220  11.150
  185BOLB   C1A 4421  21.780  26.920  10.710
  185BOLB   C2A 4422  21.540  26.570  10.830
  185BOLB   C3A 4423  21.470  26.270  11.100
  185BOLB   C4A 4424  21.680  25.920  11.190
  185BOLB   C1B 4425  21.370  27.020  11.020
  185BOLB   C2B 4426  21.020  26.600  11.010
  185BOLB   C3B 4427  20.960  26.230  11.160
  185BOLB   C4B 4428  21.030  25.950  11.250
  185BOLB   NC2 4429  19.960  23.930  12.540
  185BOLB   PO2 4430  20.100  24.300  12.200
  185BOLB   GL3 4431  20.300  24.660  11.950
  185BOLB   GL4 4432  20.420  24.550  11.650
  185BOLB   C1C 4433  20.580  24.930  11.960
  185BOLB   C2C 4434  20.780  25.320  11.820
  185BOLB   C3C 4435  21.130  25.590  11.740
  185BOLB   C4C 4436  21.400  25.600  11.390
  185BOLB   C1D 4437  20.810  24.840  11.450
  185BOLB   C2D 4438  20.990  25.200  11.330
  185BOLB   C3D 4439  21.120  25.450  11.030
  185BOLB   C4D 4440  21.310  25.810  10.870
  186BOLB   NC1 4441  22.450   8.350  17.170
  186BOLB   PO1 4442  22.120   8.080  17.030
  186BOLB   GL1 4443  21.980   8.520  17.000
  186BOLB   GL2 4444  22.100   8.810  17.170
  186BOLB   C1A 4445  21.820   8.620  16.600
  186BOLB   C2A 4446  21.440   8.830  16.330
  186BOLB   C3A 4447  21.120   9.000  16.050
  186BOLB   C4A 4448  21.150   9.310  15.830
  186BOLB   C1B 4449  21.710   9.080  16.980
  186BOLB   C2B 4450  21.660   9.360  16.620
  186BOLB   C3B 4451  22.070   9.590  16.450
  186BOLB   C4B 4452  22.120  10.020  16.370
  186BOLB   NC2 4453  19.380  10.970  15.570
  186BOLB   PO2 4454  19.560  11.330  15.410
  186BOLB   GL3 4455  19.870  10.930  15.450
  186BOLB   GL4 4456  19.920  10.760  15.740
  186BOLB   C1C 4457  20.160  10.520  15.350
  186BOLB   C2C 4458  20.600  10.270  15.390
  186BOLB   C3C 4459  20.920  10.000  15.420
  186BOLB   C4C 4460  21.110   9.730  15.690
  186BOLB   C1D 4461  20.250  10.710  15.760
  186BOLB   C2D 4462  20.690  10.570  15.920
  186BOLB   C3D 4463  20.930  10.190  15.910
  186BOLB   C4D 4464  21.010   9.930  16.250
  187BOLB   NC1 4465   5.740  12.820   6.970
  187BOLB   PO1 4466   6.120  12.530   7.090
  187BOLB   GL1 4467   6.440  12.760   7.150
  187BOLB   GL2 4468   6.490  13.100   6.920
  187BOLB   C1A 4469   6.770  12.930   7.360
  187BOLB   C2A 4470   7.110  13.120   7.540
  187BOLB   C3A 4471   7.430  13.330   7.650
  187BOLB   C4A 4472   7.710  13.720   7.600
  187BOLB   C1B 4473   6.920  12.840   6.910
  187BOLB   C2B 4474   7.210  12.770   7.240
  187BOLB   C3B 4475   7.480  12.860   7.490
  187BOLB   C4B 4476   7.560  12.640   7.900
  187BOLB   NC2 4477   6.790  13.940   4.800
  187BOLB   PO2 4478   6.770  14.130   5.250
  187BOLB   GL3 4479   6.850  14.130   5.670
  187BOLB   GL4 4480   6.620  14.020   5.970
  187BOLB   C1C 4481   7.170  14.030   6.000
  187BOLB   C2C 4482   7.330  14.010   6.450
  187BOLB   C3C 4483   7.400  14.140   6.910
  187BOLB   C4C 4484   7.580  14.060   7.370
  187BOLB   C1D 4485   6.870  13.710   5.880
  187BOLB   C2D 4486   7.290  13.650   5.670
  187BOLB   C3D 4487   7.700  13.570   5.720
  187BOLB   C4D 4488   7.990  13.450   5.620
  188BOLB   NC1 4489   7.490   7.170  20.440
  188BOLB   PO1 4490   7.580   7.400  20.850
  188BOLB   GL1 4491   7.800   7.760  20.740
  188BOLB   GL2 4492   7.760   7.770  20.430
  188BOLB   C1A 4493   8.210   8.070  20.770
  188BOLB   C2A 4494   8.560   8.230  20.640
  188BOLB   C3A 4495   8.920   8.070  20.390
  188BOLB   C4A 4496   9.150   7.990  20.000
  188BOLB   C1B 4497   7.920   8.040  20.080
  188BOLB   C2B 4498   8.070   8.430  19.890
  188BOLB   C3B 4499   7.940   8.830  20.050
  188BOLB   C4B 4500   7.620   9.170  20.270
  188BOLB   NC2 4501   8.700   6.110  20.010
  188BOLB   PO2 4502   9.040   5.860  19.840
  188BOLB   GL3 4503   9.180   6.310  19.630
  188BOLB   GL4 4504   9.210   6.150  19.320
  188BOLB   C1C 4505   9.090   6.760  19.430
  188BOLB   C2C 4506   8.910   7.000  19.280
  188BOLB   C3C 4507   8.900   7.490  19.340
  188BOLB   C4C 4508   9.080   7.880  19.560
  188BOLB   C1D 4509   9.540   6.280  18.970
  188BOLB   C2D 4510   9.680   6.660  18.630
  188BOLB   C3D 4511   9.570   7.030  18.510
  188BOLB   C4D 4512   9.250   7.230  18.380
  189BOLB   NC1 4513  17.400   4.870  10.870
  189BOLB   PO1 4514  17.150   4.630  11.170
  189BOLB   GL1 4515  16.930   4.930  10.860
  189BOLB   GL2 4516  16.610   4.750  10.870
  189BOLB   C1A 4517  16.740   5.240  10.570
  189BOLB   C2A 4518  16.440   5.640  10.620
  189BOLB   C3A 4519  16.400   6.040  10.830
  189BOLB   C4A 4520  16.260   6.420  10.760
  189BOLB   C1B 4521  16.630   5.250  11.090
  189BOLB   C2B 4522  16.820   5.500  11.420
  189BOLB   C3B 4523  16.550   5.900  11.420
  189BOLB   C4B 4524  16.290   6.260  11.340
  189BOLB   NC2 4525  16.440   8.730  11.190
  189BOLB   PO2 4526  16.110   8.690  11.250
  189BOLB   GL3 4527  16.190   8.350  10.970
  189BOLB   GL4 4528  15.830   8.320  11.010
  189BOLB   C1C 4529  16.300   7.950  10.980
  189BOLB   C2C 4530  16.450   7.620  11.050
  189BOLB   C3C 4531  16.480   7.200  10.960
  189BOLB   C4C 4532  16.350   6.800  10.720
  189BOLB   C1D 4533  15.710   7.930  11.030
  189BOLB   C2D 4534  15.940   7.570  11.220
  189BOLB   C3D 4535  16.180   7.240  11.320
  189BOLB   C4D 4536  16.320   6.820  11.230
  190BOLB   NC1 4537  21.290  16.890   6.410
  190BOLB   PO1 4538  21.540  16.860   6.000
  190BOLB   GL1 4539  21.630  16.980   5.510
  190BOLB   GL2 4540  21.470  16.670   5.370
  190BOLB   C1A 4541  21.860  17.150   5.150
  190BOLB   C2A 4542  22.010  17.110   4.700
  190BOLB   C3A 4543  21.810  16.750   4.470
  190BOLB   C4A 4544  21.930  16.670   4.090
  190BOLB   C1B 4545  21.780  16.690   4.980
  190BOLB   C2B 4546  21.980  16.350   4.670
  190BOLB   C3B 4547  22.320  15.980   4.610
  190BOLB   C4B 4548  22.460  15.870   4.180
  190BOLB   NC2 4549  23.040  15.570   2.130
  190BOLB   PO2 4550  23.080  15.930   2.270
  190BOLB   GL3 4551  22.890  15.860   2.610
  190BOLB   GL4 4552  23.150  15.820   2.880
  190BOLB   C1C 4553  22.450  15.900   2.880
  190BOLB   C2C 4554  22.090  15.860   3.160
  190BOLB   C3C 4555  21.870  15.900   3.530
  190BOLB   C4C 4556  21.840  16.300   3.740
  190BOLB   C1D 4557  22.830  15.580   3.110
  190BOLB   C2D 4558  22.440  15.490   3.270
  190BOLB   C3D 4559  22.050  15.390   3.340
  190BOLB   C4D 4560  21.650  15.460   3.600
  191BOLB   NC1 4561  23.230  15.490   8.500
  191BOLB   PO1 4562  23.500  15.760   8.780
  191BOLB   GL1 4563  23.890  15.840   8.630
  191BOLB   GL2 4564  23.930  16.160   8.630
  191BOLB   C1A 4565  24.170  15.680   8.460
  191BOLB   C2A 4566  24.230  15.420   8.150
  191BOLB   C3A 4567  24.610  15.260   7.960
  191BOLB   C4A 4568  25.000  14.920   8.020
  191BOLB   C1B 4569  24.040  16.160   8.190
  191BOLB   C2B 4570  24.490  16.080   7.930
  191BOLB   C3B 4571  24.900  16.190   7.970
  191BOLB   C4B 4572  25.290  16.120   7.800
  191BOLB   NC2 4573  26.870  13.480   7.600
  191BOLB   PO2 4574  27.030  13.830   7.840
  191BOLB   GL3 4575  26.590  13.930   7.910
  191BOLB   GL4 4576  26.340  13.690   7.920
  191BOLB   C1C 4577  26.210  14.190   7.690
  191BOLB   C2C 4578  25.820  14.250   7.550
  191BOLB   C3C 4579  25.500  14.440   7.520
  191BOLB   C4C 4580  25.240  14.620   7.770
  191BOLB   C1D 4581  26.210  13.370   8.200
  191BOLB   C2D 4582  26.070  12.930   8.270
  191BOLB   C3D 4583  25.770  12.670   8.140
  191BOLB   C4D 4584  25.760  12.210   7.990
  192BOLB   NC1 4585  21.130  20.800   7.020
  192BOLB   PO1 4586  20.650  20.690   6.930
  192BOLB   GL1 4587  20.860  20.980   6.660
  192BOLB   GL2 4588  20.850  21.310   6.740
  192BOLB   C1A 4589  21.000  21.020   6.260
  192BOLB   C2A 4590  21.070  21.410   6.010
  192BOLB   C3A 4591  21.070  21.720   5.640
  192BOLB   C4A 4592  20.880  22.150   5.640
  192BOLB   C1B 4593  21.160  21.590   6.470
  192BOLB   C2B 4594  21.310  21.830   6.090
  192BOLB   C3B 4595  21.400  22.170   6.000
  192BOLB   C4B 4596  21.260  22.500   5.700
  192BOLB   NC2 4597  21.190  23.880   3.990
  192BOLB   PO2 4598  21.260  23.440   3.930
  192BOLB   GL3 4599  21.460  23.240   4.230
  192BOLB   GL4 4600  21.720  23.070   4.130
  192BOLB   C1C 4601  21.330  23.010   4.510
  192BOLB   C2C 4602  21.150  22.640   4.710
  192BOLB   C3C 4603  20.850  22.530   5.050
  192BOLB   C4C 4604  20.800  22.460   5.470
  192BOLB   C1D 4605  21.740  22.660   4.310
  192BOLB   C2D 4606  21.760  22.280   4.580
  192BOLB   C3D 4607  21.670  21.970   4.680
  192BOLB   C4D 4608  21.400  21.760   4.910
  193BOLB   NC1 4609  24.610   8.800  14.400
  193BOLB   PO1 4610  24.320   8.560  14.630
  193BOLB   GL1 4611  24.170   9.020  14.580
  193BOLB   GL2 4612  24.090   9.060  14.290
  193BOLB   C1A 4613  23.690   9.020  14.620
  193BOLB   C2A 4614  23.370   9.370  14.620
  193BOLB   C3A 4615  23.200   9.640  14.310
  193BOLB   C4A 4616  22.890   9.970  14.290
  193BOLB   C1B 4617  23.810   9.330  14.230
  193BOLB   C2B 4618  23.680   9.570  14.000
  193BOLB   C3B 4619  23.720  10.070  13.810
  193BOLB   C4B 4620  23.790  10.590  13.770
  193BOLB   NC2 4621  20.920  11.100  13.590
  193BOLB   PO2 4622  20.900  11.480  13.850
  193BOLB   GL3 4623  21.340  11.260  13.720
  193BOLB   GL4 4624  21.620  11.240  13.980
  193BOLB   C1C 4625  21.730  10.980  13.630
  193BOLB   C2C 4626  21.890  10.670  13.770
  193BOLB   C3C 4627  22.210  10.450  14.050
  193BOLB   C4C 4628  22.550  10.270  14.140
  193BOLB   C1D 4629  21.920  11.030  14.170
  193BOLB   C2D 4630  22.180  10.750  14.500
  193BOLB   C3D 4631  22.470  10.460  14.580
  193BOLB   C4D 4632  22.850  10.250  14.820
  194BOLB   NC1 4633  22.020  22.960  14.930
  194BOLB   PO1 4634  22.030  22.710  15.290
  194BOLB   GL1 4635  22.050  23.010  15.660
  194BOLB   GL2 4636  22.040  23.360  15.430
  194BOLB   C1A 4637  22.180  23.060  16.130
  194BOLB   C2A 4638  22.170  23.280  16.470
  194BOLB   C3A 4639  22.150  23.490  16.920
  194BOLB   C4A 4640  22.360  23.560  17.210
  194BOLB   C1B 4641  22.010  23.500  15.830
  194BOLB   C2B 4642  22.260  23.620  16.060
  194BOLB   C3B 4643  22.600  23.440  16.340
  194BOLB   C4B 4644  22.730  23.230  16.640
  194BOLB   NC2 4645  24.460  24.010  18.320
  194BOLB   PO2 4646  24.370  24.440  18.380
  194BOLB   GL3 4647  23.940  24.240  18.330
  194BOLB   GL4 4648  23.980  24.230  18.060
  194BOLB   C1C 4649  23.540  24.070  18.330
  194BOLB   C2C 4650  23.360  23.910  17.990
  194BOLB   C3C 4651  23.060  23.760  17.790
  194BOLB   C4C 4652  22.710  23.640  17.540
  194BOLB   C1D 4653  23.850  23.850  17.870
  194BOLB   C2D 4654  24.040  23.640  17.540
  194BOLB   C3D 4655  24.040  23.270  17.290
  194BOLB   C4D 4656  23.910  23.100  16.950
  195BOLB   NC1 4657   8.760  26.680  15.730
  195BOLB   PO1 4658   8.340  26.380  15.750
  195BOLB   GL1 4659   8.380  25.980  15.510
  195BOLB   GL2 4660   8.550  25.930  15.260
  195BOLB   C1A 4661   8.560  25.640  15.690
  195BOLB   C2A 4662   8.780  25.320  15.690
  195BOLB   C3A 4663   9.090  25.100  15.930
  195BOLB   C4A 4664   9.400  24.920  16.120
  195BOLB   C1B 4665   8.760  25.600  15.230
  195BOLB   C2B 4666   9.030  25.290  15.200
  195BOLB   C3B 4667   9.340  25.260  15.320
  195BOLB   C4B 4668   9.530  25.310  15.720
  195BOLB   NC2 4669  11.910  23.970  16.400
  195BOLB   PO2 4670  11.490  23.800  16.130
  195BOLB   GL3 4671  11.150  24.010  16.070
  195BOLB   GL4 4672  10.850  23.980  16.150
  195BOLB   C1C 4673  10.950  24.480  16.080
  195BOLB   C2C 4674  10.560  24.440  16.180
  195BOLB   C3C 4675  10.160  24.570  16.380
  195BOLB   C4C 4676   9.780  24.690  16.100
  195BOLB   C1D 4677  10.680  24.150  15.770
  195BOLB   C2D 4678  10.340  24.450  15.530
  195BOLB   C3D 4679  10.170  24.720  15.150
  195BOLB   C4D 4680  10.150  25.070  14.960
  196BOLB   NC1 4681  19.430   9.310  12.690
  196BOLB   PO1 4682  19.520   9.470  13.150
  196BOLB   GL1 4683  19.800   9.220  13.280
  196BOLB   GL2 4684  19.900   9.360  13.540
  196BOLB   C1A 4685  19.950   8.780  13.520
  196BOLB   C2A 4686  20.200   8.900  13.890
  196BOLB   C3A 4687  20.410   8.490  14.140
  196BOLB   C4A 4688  20.540   8.240  14.400
  196BOLB   C1B 4689  20.280   9.180  13.490
  196BOLB   C2B 4690  20.400   8.810  13.300
  196BOLB   C3B 4691  20.760   8.530  13.230
  196BOLB   C4B 4692  21.110   8.610  13.480
  196BOLB   NC2 4693  22.320   7.230  16.100
  196BOLB   PO2 4694  22.290   7.550  15.820
  196BOLB   GL3 4695  22.060   7.810  15.650
  196BOLB   GL4 4696  21.880   7.900  15.950
  196BOLB   C1C 4697  21.920   7.890  15.220
  196BOLB   C2C 4698  21.590   8.040  14.960
  196BOLB   C3C 4699  21.110   8.140  14.920
  196BOLB   C4C 4700  20.730   8.290  14.790
  196BOLB   C1D 4701  21.740   8.310  15.600
  196BOLB   C2D 4702  21.780   8.420  15.280
  196BOLB   C3D 4703  21.500   8.510  14.970
  196BOLB   C4D 4704  21.110   8.730  14.920
  197BOLB   NC1 4705  20.470  24.440  15.460
  197BOLB   PO1 4706  20.240  24.650  15.190
  197BOLB   GL1 4707  20.480  25.040  15.390
  197BOLB   GL2 4708  20.360  25.310  15.160
  197BOLB   C1A 4709  20.750  25.150  15.610
  197BOLB   C2A 4710  21.150  25.200  15.670
  197BOLB   C3A 4711  21.590  25.260  15.670
  197BOLB   C4A 4712  21.770  25.690  15.790
  197BOLB   C1B 4713  20.160  25.600  15.240
  197BOLB   C2B 4714  20.100  25.970  15.370
  197BOLB   C3B 4715  20.000  26.310  15.180
  197BOLB   C4B 4716  19.950  26.490  14.790
  197BOLB   NC2 4717  23.270  27.370  15.350
  197BOLB   PO2 4718  22.890  27.610  15.290
  197BOLB   GL3 4719  22.810  27.130  15.470
  197BOLB   GL4 4720  22.550  27.140  15.770
  197BOLB   C1C 4721  22.890  26.680  15.720
  197BOLB   C2C 4722  22.670  26.330  15.880
  197BOLB   C3C 4723  22.420  26.110  15.670
  197BOLB   C4C 4724  22.080  25.850  15.620
  197BOLB   C1D 4725  22.360  26.750  15.930
  197BOLB   C2D 4726  22.020  26.530  15.740
  197BOLB   C3D 4727  21.700  26.220  15.600
  197BOLB   C4D 4728  21.200  26.200  15.490
  198BOLB   NC1 4729  15.690  25.630  13.060
  198BOLB   PO1 4730  16.010  25.330  12.970
  198BOLB   GL1 4731  16.230  25.700  13.160
  198BOLB   GL2 4732  16.040  26.010  13.370
  198BOLB   C1A 4733  16.430  26.210  13.170
  198BOLB   C2A 4734  16.650  26.710  13.060
  198BOLB   C3A 4735  17.040  26.940  12.860
  198BOLB   C4A 4736  17.360  27.160  12.920
  198BOLB   C1B 4737  15.900  26.330  13.060
  198BOLB   C2B 4738  15.570  26.660  12.940
  198BOLB   C3B 4739  15.240  26.990  13.190
  198BOLB   C4B 4740  14.820  27.080  13.290
  198BOLB   NC2 4741  17.680  29.890  12.300
  198BOLB   PO2 4742  17.860  29.570  12.060
  198BOLB   GL3 4743  18.040  29.130  12.060
  198BOLB   GL4 4744  18.110  28.860  11.830
  198BOLB   C1C 4745  17.840  28.620  12.260
  198BOLB   C2C 4746  17.630  28.420  12.550
  198BOLB   C3C 4747  17.520  28.010  12.700
  198BOLB   C4C 4748  17.540  27.550  12.890
  198BOLB   C1D 4749  18.000  28.550  11.690
  198BOLB   C2D 4750  17.760  28.190  11.970
  198BOLB   C3D 4751  17.860  27.950  12.310
  198BOLB   C4D 4752  17.930  27.540  12.490
  199BOLB   NC1 4753  14.640   8.910  14.290
  199BOLB   PO1 4754  14.310   9.000  13.920
  199BOLB   GL1 4755  14.370   8.560  13.920
  199BOLB   GL2 4756  14.310   8.420  14.140
  199BOLB   C1A 4757  14.360   8.120  13.720
  199BOLB   C2A 4758  14.610   7.810  13.550
  199BOLB   C3A 4759  14.690   7.370  13.490
  199BOLB   C4A 4760  14.980   7.000  13.510
  199BOLB   C1B 4761  14.330   8.150  14.360
  199BOLB   C2B 4762  14.360   7.750  14.460
  199BOLB   C3B 4763  14.700   7.420  14.450
  199BOLB   C4B 4764  14.640   6.950  14.540
  199BOLB   NC2 4765  16.150   4.850  13.470
  199BOLB   PO2 4766  16.340   4.940  13.930
  199BOLB   GL3 4767  15.980   5.150  13.840
  199BOLB   GL4 4768  15.840   5.260  14.130
  199BOLB   C1C 4769  15.750   5.450  13.690
  199BOLB   C2C 4770  15.590   5.830  13.690
  199BOLB   C3C 4771  15.270   6.160  13.790
  199BOLB   C4C 4772  15.090   6.700  13.780
  199BOLB   C1D 4773  15.560   5.620  14.160
  199BOLB   C2D 4774  15.420   6.020  14.340
  199BOLB   C3D 4775  15.150   6.340  14.270
  199BOLB   C4D 4776  14.820   6.630  14.230
  200BOLB   NC1 4777  15.520  10.220  16.310
  200BOLB   PO1 4778  15.730  10.230  16.740
  200BOLB   GL1 4779  15.720  10.030  17.040
  200BOLB   GL2 4780  15.970  10.010  17.320
  200BOLB   C1A 4781  15.770   9.620  17.130
  200BOLB   C2A 4782  15.860   9.280  17.380
  200BOLB   C3A 4783  16.080   9.050  17.560
  200BOLB   C4A 4784  16.400   8.780  17.850
  200BOLB   C1B 4785  16.260   9.620  17.460
  200BOLB   C2B 4786  16.480   9.330  17.720
  200BOLB   C3B 4787  16.730   9.140  18.120
  200BOLB   C4B 4788  16.700   8.730  18.250
  200BOLB   NC2 4789  16.860   6.320  19.430
  200BOLB   PO2 4790  16.980   6.830  19.370
  200BOLB   GL3 4791  16.970   7.110  19.150
  200BOLB   GL4 4792  16.710   6.920  18.860
  200BOLB   C1C 4793  16.690   7.440  18.970
  200BOLB   C2C 4794  16.340   7.740  18.750
  200BOLB   C3C 4795  16.280   7.880  18.190
  200BOLB   C4C 4796  16.310   8.330  18.000
  200BOLB   C1D 4797  16.440   7.170  18.670
  200BOLB   C2D 4798  16.200   7.310  18.930
  200BOLB   C3D 4799  15.840   7.610  18.900
  200BOLB   C4D 4800  15.490   7.940  18.840
  201BOLB   NC1 4801   9.010  18.370  26.700
  201BOLB   PO1 4802   9.490  18.190  26.640
  201BOLB   GL1 4803   9.600  17.960  26.310
  201BOLB   GL2 4804   9.770  17.800  26.570
  201BOLB   C1A 4805   9.640  18.080  25.790
  201BOLB   C2A 4806   9.650  18.200  25.370
  201BOLB   C3A 4807   9.420  18.110  24.980
  201BOLB   C4A 4808   8.980  17.950  24.980
  201BOLB   C1B 4809  10.100  17.670  26.430
  201BOLB   C2B 4810  10.430  17.690  26.080
  201BOLB   C3B 4811  10.810  17.640  25.820
  201BOLB   C4B 4812  10.920  17.290  25.670
  201BOLB   NC2 4813   7.310  16.060  26.010
  201BOLB   PO2 4814   7.610  16.390  26.010
  201BOLB   GL3 4815   7.810  16.760  25.780
  201BOLB   GL4 4816   7.570  16.920  25.600
  201BOLB   C1C 4817   8.070  16.970  25.650
  201BOLB   C2C 4818   8.410  17.180  25.430
  201BOLB   C3C 4819   8.430  17.380  24.990
  201BOLB   C4C 4820   8.670  17.710  24.740
  201BOLB   C1D 4821   7.660  16.810  25.260
  201BOLB   C2D 4822   7.510  16.350  25.150
  201BOLB   C3D 4823   7.520  16.210  24.780
  201BOLB   C4D 4824   7.440  16.330  24.360
  202BOLB   NC1 4825  10.960  11.040   8.920
  202BOLB   PO1 4826  10.740  10.900   9.210
  202BOLB   GL1 4827  10.410  10.620   9.200
  202BOLB   GL2 4828  10.220  10.750   9.060
  202BOLB   C1A 4829   9.920  10.490   9.390
  202BOLB   C2A 4830   9.640  10.360   9.200
  202BOLB   C3A 4831   9.290  10.430   8.990
  202BOLB   C4A 4832   9.140  10.310   8.560
  202BOLB   C1B 4833   9.870  10.560   8.810
  202BOLB   C2B 4834   9.730  10.250   8.570
  202BOLB   C3B 4835   9.840  10.080   8.200
  202BOLB   C4B 4836   9.920   9.650   7.950
  202BOLB   NC2 4837   6.790   9.860   7.410
  202BOLB   PO2 4838   7.200   9.640   7.280
  202BOLB   GL3 4839   7.630   9.830   7.280
  202BOLB   GL4 4840   7.610  10.050   7.050
  202BOLB   C1C 4841   7.920   9.860   7.630
  202BOLB   C2C 4842   8.300  10.050   7.950
  202BOLB   C3C 4843   8.440  10.310   8.150
  202BOLB   C4C 4844   8.830  10.360   8.350
  202BOLB   C1D 4845   7.940  10.410   7.220
  202BOLB   C2D 4846   8.300  10.650   7.260
  202BOLB   C3D 4847   8.600  10.920   7.160
  202BOLB   C4D 4848   8.920  11.140   6.910
  203BOLB   NC1 4849  16.450  22.040   7.110
  203BOLB   PO1 4850  16.620  21.740   6.840
  203BOLB   GL1 4851  16.560  21.900   6.440
  203BOLB   GL2 4852  16.520  21.860   6.120
  203BOLB   C1A 4853  16.300  22.290   6.410
  203BOLB   C2A 4854  16.190  22.670   6.030
  203BOLB   C3A 4855  16.060  22.880   5.690
  203BOLB   C4A 4856  15.820  23.120   5.410
  203BOLB   C1B 4857  16.390  22.240   5.890
  203BOLB   C2B 4858  16.350  22.580   5.510
  203BOLB   C3B 4859  16.460  22.900   5.200
  203BOLB   C4B 4860  16.680  23.230   4.940
  203BOLB   NC2 4861  15.990  25.220   3.550
  203BOLB   PO2 4862  15.970  25.000   3.840
  203BOLB   GL3 4863  16.250  24.650   4.000
  203BOLB   GL4 4864  16.560  24.660   4.110
  203BOLB   C1C 4865  16.190  24.270   4.280
  203BOLB   C2C 4866  15.920  24.120   4.600
  203BOLB   C3C 4867  15.830  23.780   4.850
  203BOLB   C4C 4868  15.680  23.470   5.190
  203BOLB   C1D 4869  16.500  24.580   4.570
  203BOLB   C2D 4870  16.730  24.460   4.880
  203BOLB   C3D 4871  16.970  24.570   5.190
  203BOLB   C4D 4872  17.190  24.660   5.450
  204BOLB   NC1 4873  10.310  19.530   2.350
  204BOLB   PO1 4874  10.060  19.770   2.710
  204BOLB   GL1 4875   9.920  19.590   2.970
  204BOLB   GL2 4876  10.000  19.190   2.930
  204BOLB   C1A 4877   9.730  19.360   3.370
  204BOLB   C2A 4878   9.910  19.340   3.770
  204BOLB   C3A 4879  10.160  19.100   4.090
  204BOLB   C4A 4880  10.000  18.720   4.300
  204BOLB   C1B 4881  10.340  19.050   3.060
  204BOLB   C2B 4882  10.700  19.060   3.200
  204BOLB   C3B 4883  10.940  19.060   3.510
  204BOLB   C4B 4884  11.180  18.970   3.790
  204BOLB   NC2 4885   8.530  18.910   2.390
  204BOLB   PO2 4886   8.470  18.580   2.900
  204BOLB   GL3 4887   8.730  18.650   3.240
  204BOLB   GL4 4888   9.080  18.490   3.130
  204BOLB   C1C 4889   8.990  18.560   3.640
  204BOLB   C2C 4890   9.240  18.170   3.670
  204BOLB   C3C 4891   9.640  18.160   3.820
  204BOLB   C4C 4892   9.860  18.320   4.090
  204BOLB   C1D 4893   9.450  18.200   3.220
  204BOLB   C2D 4894   9.690  17.830   3.440
  204BOLB   C3D 4895   9.840  17.740   3.790
  204BOLB   C4D 4896  10.060  17.650   4.110
  205BOLB   NC1 4897  23.320  15.300  10.300
  205BOLB   PO1 4898  23.760  15.090  10.450
  205BOLB   GL1 4899  24.160  15.050  10.250
  205BOLB   GL2 4900  24.310  15.360  10.110
  205BOLB   C1A 4901  24.550  14.930  10.030
  205BOLB   C2A 4902  24.920  14.710   9.860
  205BOLB   C3A 4903  25.260  14.730   9.820
  205BOLB   C4A 4904  25.420  14.680   9.360
  205BOLB   C1B 4905  24.750  15.470  10.190
  205BOLB   C2B 4906  25.150  15.660  10.260
  205BOLB   C3B 4907  25.420  15.810  10.010
  205BOLB   C4B 4908  25.770  16.080  10.030
  205BOLB   NC2 4909  27.980  13.930   9.450
  205BOLB   PO2 4910  27.720  14.300   9.520
  205BOLB   GL3 4911  27.270  14.370   9.570
  205BOLB   GL4 4912  27.060  14.430   9.320
  205BOLB   C1C 4913  26.900  14.620   9.740
  205BOLB   C2C 4914  26.460  14.720   9.670
  205BOLB   C3C 4915  26.230  14.880   9.370
  205BOLB   C4C 4916  25.830  14.760   9.150
  205BOLB   C1D 4917  26.690  14.300   9.420
  205BOLB   C2D 4918  26.210  14.310   9.620
  205BOLB   C3D 4919  25.940  14.610   9.670
  205BOLB   C4D 4920  25.870  14.900  10.000
  206BOLB   NC1 4921  22.900   8.880   4.960
  206BOLB   PO1 4922  22.490   8.650   5.250
  206BOLB   GL1 4923  22.430   8.690   5.710
  206BOLB   GL2 4924  22.140   8.660   5.890
  206BOLB   C1A 4925  22.600   8.790   6.170
  206BOLB   C2A 4926  22.570   9.180   6.300
  206BOLB   C3A 4927  22.680   9.690   6.390
  206BOLB   C4A 4928  22.700  10.050   6.540
  206BOLB   C1B 4929  22.040   9.100   5.980
  206BOLB   C2B 4930  22.150   9.360   6.430
  206BOLB   C3B 4931  21.790   9.480   6.760
  206BOLB   C4B 4932  21.420   9.380   7.030
  206BOLB   NC2 4933  23.900   9.090   5.500
  206BOLB   PO2 4934  23.790   9.460   5.270
  206BOLB   GL3 4935  23.370   9.800   5.250
  206BOLB   GL4 4936  23.090   9.690   5.390
  206BOLB   C1C 4937  23.180  10.160   5.370
  206BOLB   C2C 4938  22.870  10.440   5.420
  206BOLB   C3C 4939  22.760  10.570   5.800
  206BOLB   C4C 4940  22.770  10.410   6.240
  206BOLB   C1D 4941  22.670   9.720   5.460
  206BOLB   C2D 4942  22.260   9.860   5.370
  206BOLB   C3D 4943  21.910   9.730   5.200
  206BOLB   C4D 4944  21.520   9.820   4.890
  207BOLB   NC1 4945  17.010  29.250  10.280
  207BOLB   PO1 4946  17.170  29.050   9.920
  207BOLB   GL1 4947  17.270  28.840  10.440
  207BOLB   GL2 4948  17.490  29.060  10.660
  207BOLB   C1A 4949  17.140  28.520  10.770
  207BOLB   C2A 4950  17.150  28.130  10.650
  207BOLB   C3A 4951  17.220  27.970  10.220
  207BOLB   C4A 4952  17.430  27.540  10.160
  207BOLB   C1B 4953  17.600  28.670  10.880
  207BOLB   C2B 4954  17.550  28.190  11.070
  207BOLB   C3B 4955  17.410  27.820  10.990
  207BOLB   C4B 4956  17.360  27.450  11.160
  207BOLB   NC2 4957  17.390  27.940   7.940
  207BOLB   PO2 4958  17.310  28.350   8.130
  207BOLB   GL3 4959  17.040  28.040   8.380
  207BOLB   GL4 4960  16.760  28.080   8.280
  207BOLB   C1C 4961  16.800  27.960   8.880
  207BOLB   C2C 4962  16.760  27.630   9.100
  207BOLB   C3C 4963  16.890  27.410   9.550
  207BOLB   C4C 4964  17.320  27.420   9.760
  207BOLB   C1D 4965  16.550  27.770   8.440
  207BOLB   C2D 4966  16.790  27.490   8.590
  207BOLB   C3D 4967  16.860  27.190   8.800
  207BOLB   C4D 4968  16.700  27.010   9.150
  208BOLB   NC1 4969  17.580   8.970  14.220
  208BOLB   PO1 4970  17.210   9.120  14.440
  208BOLB   GL1 4971  17.250   8.600  14.570
  208BOLB   GL2 4972  17.090   8.320  14.420
  208BOLB   C1A 4973  17.170   8.580  15.050
  208BOLB   C2A 4974  17.540   8.360  15.300
  208BOLB   C3A 4975  17.650   8.320  15.700
  208BOLB   C4A 4976  17.480   7.980  15.980
  208BOLB   C1B 4977  17.170   7.960  14.090
  208BOLB   C2B 4978  17.410   7.510  14.190
  208BOLB   C3B 4979  17.540   7.310  14.490
  208BOLB   C4B 4980  17.140   7.180  14.450
  208BOLB   NC2 4981  18.630   6.070  16.410
  208BOLB   PO2 4982  18.910   6.010  16.030
  208BOLB   GL3 4983  18.810   6.450  16.090
  208BOLB   GL4 4984  19.000   6.720  16.170
  208BOLB   C1C 4985  18.490   6.730  16.210
  208BOLB   C2C 4986  18.140   6.800  16.120
  208BOLB   C3C 4987  17.950   7.170  15.980
  208BOLB   C4C 4988  17.690   7.590  16.130
  208BOLB   C1D 4989  18.780   7.110  16.000
  208BOLB   C2D 4990  18.440   7.030  15.750
  208BOLB   C3D 4991  18.160   7.280  15.530
  208BOLB   C4D 4992  18.140   7.610  15.350
  209BOLB   NC1 4993  21.120  13.470  16.260
  209BOLB   PO1 4994  21.650  13.480  16.060
  209BOLB   GL1 4995  22.000  13.290  16.320
  209BOLB   GL2 4996  21.860  13.440  16.580
  209BOLB   C1A 4997  22.340  13.110  16.710
  209BOLB   C2A 4998  22.700  13.160  17.030
  209BOLB   C3A 4999  22.870  13.360  17.350
  209BOLB   C4A 5000  23.320  13.330  17.560
  209BOLB   C1B 5001  22.240  13.720  16.580
  209BOLB   C2B 5002  22.640  13.670  16.810
  209BOLB   C3B 5003  23.020  13.610  16.900
  209BOLB   C4B 5004  23.250  13.270  17.070
  209BOLB   NC2 5005  25.620  11.910  17.740
  209BOLB   PO2 5006  25.490  12.210  18.180
  209BOLB   GL3 5007  25.100  12.550  18.330
  209BOLB   GL4 5008  24.770  12.390  18.270
  209BOLB   C1C 5009  24.850  12.830  18.050
  209BOLB   C2C 5010  24.500  13.000  18.130
  209BOLB   C3C 5011  24.090  13.060  18.000
  209BOLB   C4C 5012  23.710  13.160  17.880
  209BOLB   C1D 5013  24.360  12.540  18.050
  209BOLB   C2D 5014  24.060  12.620  17.710
  209BOLB   C3D 5015  23.740  12.810  17.490
  209BOLB   C4D 5016  23.500  12.870  17.090
  210BOLB   NC1 5017  12.710  24.350  16.730
  210BOLB   PO1 5018  12.460  24.270  16.370
  210BOLB   GL1 5019  12.240  24.550  16.690
  210BOLB   GL2 5020  12.400  24.790  16.900
  210BOLB   C1A 5021  12.030  24.970  16.640
  210BOLB   C2A 5022  11.670  25.240  16.710
  210BOLB   C3A 5023  11.460  25.660  16.920
  210BOLB   C4A 5024  11.330  26.190  16.920
  210BOLB   C1B 5025  12.380  25.330  16.880
  210BOLB   C2B 5026  12.450  25.800  16.910
  210BOLB   C3B 5027  12.840  26.140  16.980
  210BOLB   C4B 5028  13.280  26.160  17.020
  210BOLB   NC2 5029  10.700  28.340  15.610
  210BOLB   PO2 5030  10.600  28.260  16.030
  210BOLB   GL3 5031  10.890  27.910  15.860
  210BOLB   GL4 5032  11.030  27.780  15.510
  210BOLB   C1C 5033  11.330  27.710  16.060
  210BOLB   C2C 5034  11.470  27.340  16.330
  210BOLB   C3C 5035  11.460  27.020  16.550
  210BOLB   C4C 5036  11.420  26.600  16.600
  210BOLB   C1D 5037  11.100  27.410  15.730
  210BOLB   C2D 5038  11.110  27.140  16.050
  210BOLB   C3D 5039  11.100  26.800  16.120
  210BOLB   C4D 5040  11.260  26.420  16.100
  211BOLB   NC1 5041  20.120  12.280  16.660
  211BOLB   PO1 5042  20.590  12.300  16.550
  211BOLB   GL1 5043  20.960  12.100  16.790
  211BOLB   GL2 5044  21.070  11.910  16.510
  211BOLB   C1A 5045  21.080  12.040  17.130
  211BOLB   C2A 5046  21.110  11.990  17.550
  211BOLB   C3A 5047  21.390  12.020  17.890
  211BOLB   C4A 5048  21.740  11.700  18.040
  211BOLB   C1B 5049  21.290  11.730  16.850
  211BOLB   C2B 5050  21.220  11.510  17.170
  211BOLB   C3B 5051  21.260  11.050  17.140
  211BOLB   C4B 5052  21.200  10.760  16.780
  211BOLB   NC2 5053  23.100  10.640  19.730
  211BOLB   PO2 5054  22.800  10.390  19.670
  211BOLB   GL3 5055  22.730  10.700  19.330
  211BOLB   GL4 5056  22.950  10.940  19.160
  211BOLB   C1C 5057  22.520  11.050  19.330
  211BOLB   C2C 5058  22.410  11.260  18.930
  211BOLB   C3C 5059  22.080  11.200  18.650
  211BOLB   C4C 5060  21.800  11.480  18.400
  211BOLB   C1D 5061  22.830  11.010  18.780
  211BOLB   C2D 5062  22.770  11.120  18.390
  211BOLB   C3D 5063  22.370  11.280  18.180
  211BOLB   C4D 5064  22.230  11.570  17.890
  212BOLB   NC1 5065  22.690  17.980  16.640
  212BOLB   PO1 5066  22.830  17.610  16.360
  212BOLB   GL1 5067  23.230  17.920  16.360
  212BOLB   GL2 5068  23.290  18.230  16.260
  212BOLB   C1A 5069  23.560  17.620  16.370
  212BOLB   C2A 5070  23.770  17.410  16.740
  212BOLB   C3A 5071  23.650  17.080  17.120
  212BOLB   C4A 5072  23.940  16.880  17.370
  212BOLB   C1B 5073  23.620  18.150  16.540
  212BOLB   C2B 5074  23.840  17.930  16.860
  212BOLB   C3B 5075  24.180  17.710  16.790
  212BOLB   C4B 5076  24.180  17.200  16.910
  212BOLB   NC2 5077  26.060  15.740  18.590
  212BOLB   PO2 5078  25.840  16.100  18.420
  212BOLB   GL3 5079  25.550  16.200  18.180
  212BOLB   GL4 5080  25.250  16.370  18.430
  212BOLB   C1C 5081  25.380  16.620  17.890
  212BOLB   C2C 5082  24.970  16.680  17.880
  212BOLB   C3C 5083  24.660  16.980  17.760
  212BOLB   C4C 5084  24.350  17.140  17.570
  212BOLB   C1D 5085  24.820  16.380  18.410
  212BOLB   C2D 5086  24.360  16.290  18.400
  212BOLB   C3D 5087  23.930  16.270  18.230
  212BOLB   C4D 5088  23.530  16.370  18.160
  213BOLB   NC1 5089   9.570  12.380  11.060
  213BOLB   PO1 5090   9.500  12.160  11.330
  213BOLB   GL1 5091   9.280  11.680  11.220
  213BOLB   GL2 5092   9.250  11.510  11.600
  213BOLB   C1A 5093   8.970  11.340  11.110
  213BOLB   C2A 5094   8.830  11.030  11.240
  213BOLB   C3A 5095   8.490  10.710  11.150
  213BOLB   C4A 5096   8.060  10.660  10.920
  213BOLB   C1B 5097   8.830  11.500  11.550
  213BOLB   C2B 5098   8.350  11.230  11.570
  213BOLB   C3B 5099   7.910  11.020  11.770
  213BOLB   C4B 5100   7.780  10.760  12.080
  213BOLB   NC2 5101   5.650   9.980   9.720
  213BOLB   PO2 5102   5.990   9.930   9.940
  213BOLB   GL3 5103   6.260  10.260  10.170
  213BOLB   GL4 5104   6.170  10.540  10.290
  213BOLB   C1C 5105   6.600  10.360  10.420
  213BOLB   C2C 5106   6.820  10.550  10.650
  213BOLB   C3C 5107   7.190  10.760  10.660
  213BOLB   C4C 5108   7.610  10.730  10.850
  213BOLB   C1D 5109   6.400  10.840  10.550
  213BOLB   C2D 5110   6.670  11.040  10.830
  213BOLB   C3D 5111   7.040  11.290  10.910
  213BOLB   C4D 5112   7.470  11.500  11.100
  214BOLB   NC1 5113  24.060  15.840  13.080
  214BOLB   PO1 5114  24.210  16.230  12.990
  214BOLB   GL1 5115  24.550  16.220  13.250
  214BOLB   GL2 5116  24.690  16.430  13.300
  214BOLB   C1A 5117  25.020  16.010  13.420
  214BOLB   C2A 5118  25.390  15.960  13.760
  214BOLB   C3A 5119  25.670  15.790  14.090
  214BOLB   C4A 5120  25.660  15.500  14.500
  214BOLB   C1B 5121  24.960  16.770  13.370
  214BOLB   C2B 5122  25.450  16.910  13.470
  214BOLB   C3B 5123  25.880  16.620  13.360
  214BOLB   C4B 5124  26.320  16.370  13.190
  214BOLB   NC2 5125  26.500  14.290  16.430
  214BOLB   PO2 5126  26.800  14.360  16.280
  214BOLB   GL3 5127  26.550  14.460  15.930
  214BOLB   GL4 5128  26.660  14.350  15.670
  214BOLB   C1C 5129  26.440  14.840  15.760
  214BOLB   C2C 5130  26.060  14.900  15.570
  214BOLB   C3C 5131  25.880  15.200  15.230
  214BOLB   C4C 5132  25.630  15.310  14.890
  214BOLB   C1D 5133  26.270  14.300  15.470
  214BOLB   C2D 5134  25.880  14.380  15.440
  214BOLB   C3D 5135  25.650  14.760  15.380
  214BOLB   C4D 5136  25.410  14.960  15.220
  215BOLB   NC1 5137  14.040   9.940  26.970
  215BOLB   PO1 5138  13.570  10.050  26.990
  215BOLB   GL1 5139  13.550  10.270  26.600
  215BOLB   GL2 5140  13.540  10.490  26.710
  215BOLB   C1A 5141  13.320  10.400  26.210
  215BOLB   C2A 5142  13.110  10.380  25.820
  215BOLB   C3A 5143  13.420  10.410  25.470
  215BOLB   C4A 5144  13.640   9.990  25.350
  215BOLB   C1B 5145  13.510  10.830  26.480
  215BOLB   C2B 5146  13.930  11.090  26.380
  215BOLB   C3B 5147  13.960  11.300  25.920
  215BOLB   C4B 5148  13.930  11.690  25.630
  215BOLB   NC2 5149  11.660   9.010  25.350
  215BOLB   PO2 5150  11.920   8.580  25.260
  215BOLB   GL3 5151  12.090   8.970  25.090
  215BOLB   GL4 5152  12.130   9.020  24.720
  215BOLB   C1C 5153  12.530   9.150  24.990
  215BOLB   C2C 5154  12.880   9.380  24.750
  215BOLB   C3C 5155  13.260   9.540  24.910
  215BOLB   C4C 5156  13.510   9.710  25.060
  215BOLB   C1D 5157  12.550   8.950  24.520
  215BOLB   C2D 5158  12.870   9.150  24.290
  215BOLB   C3D 5159  13.260   9.360  24.370
  215BOLB   C4D 5160  13.600   9.770  24.580
  216BOLB   NC1 5161  21.730  13.260   6.870
  216BOLB   PO1 5162  21.670  12.820   6.740
  216BOLB   GL1 5163  21.930  12.490   6.530
  216BOLB   GL2 5164  21.740  12.090   6.620
  216BOLB   C1A 5165  22.360  12.500   6.380
  216BOLB   C2A 5166  22.620  12.440   6.120
  216BOLB   C3A 5167  22.960  12.480   5.860
  216BOLB   C4A 5168  23.030  12.610   5.480
  216BOLB   C1B 5169  22.030  12.020   6.210
  216BOLB   C2B 5170  22.020  11.820   5.850
  216BOLB   C3B 5171  22.370  11.590   5.750
  216BOLB   C4B 5172  22.830  11.580   5.580
  216BOLB   NC2 5173  25.030  12.650   5.030
  216BOLB   PO2 5174  25.260  12.270   5.140
  216BOLB   GL3 5175  24.870  12.150   5.340
  216BOLB   GL4 5176  24.700  11.830   5.310
  216BOLB   C1C 5177  24.630  12.520   5.550
  216BOLB   C2C 5178  24.250  12.590   5.790
  216BOLB   C3C 5179  23.770  12.630   5.600
  216BOLB   C4C 5180  23.380  12.690   5.330
  216BOLB   C1D 5181  24.340  12.050   5.520
  216BOLB   C2D 5182  24.010  12.120   5.760
  216BOLB   C3D 5183  23.830  12.410   6.100
  216BOLB   C4D 5184  23.620  12.520   6.530
  217BOLB   NC1 5185  11.960  10.920   8.190
  217BOLB   PO1 5186  12.280  11.030   7.880
  217BOLB   GL1 5187  12.000  10.680   7.710
  217BOLB   GL2 5188  11.950  10.430   7.900
  217BOLB   C1A 5189  11.530  10.560   7.560
  217BOLB   C2A 5190  11.410  10.440   7.180
  217BOLB   C3A 5191  11.260  10.060   7.080
  217BOLB   C4A 5192  11.090   9.790   6.830
  217BOLB   C1B 5193  11.800  10.150   7.760
  217BOLB   C2B 5194  11.750   9.850   7.510
  217BOLB   C3B 5195  11.440   9.680   7.260
  217BOLB   C4B 5196  11.490   9.480   6.860
  217BOLB   NC2 5197   9.890   8.330   5.280
  217BOLB   PO2 5198   9.720   8.430   5.650
  217BOLB   GL3 5199   9.970   8.780   5.610
  217BOLB   GL4 5200   9.960   8.960   5.980
  217BOLB   C1C 5201  10.360   9.080   5.710
  217BOLB   C2C 5202  10.480   9.450   5.990
  217BOLB   C3C 5203  10.510   9.410   6.430
  217BOLB   C4C 5204  10.710   9.690   6.740
  217BOLB   C1D 5205  10.350   8.930   6.240
  217BOLB   C2D 5206  10.430   8.880   6.630
  217BOLB   C3D 5207  10.450   8.970   7.050
  217BOLB   C4D 5208  10.570   9.080   7.450
  218BOLB   NC1 5209  18.650   9.810  13.240
  218BOLB   PO1 5210  18.670   9.460  13.540
  218BOLB   GL1 5211  18.780   9.040  13.670
  218BOLB   GL2 5212  18.970   8.960  13.800
  218BOLB   C1A 5213  18.810   8.540  13.650
  218BOLB   C2A 5214  18.700   8.120  13.470
  218BOLB   C3A 5215  18.870   7.800  13.290
  218BOLB   C4A 5216  18.890   7.450  13.570
  218BOLB   C1B 5217  19.310   8.700  14.010
  218BOLB   C2B 5218  19.720   8.530  13.960
  218BOLB   C3B 5219  20.020   8.270  13.900
  218BOLB   C4B 5220  20.310   8.360  13.560
  218BOLB   NC2 5221  18.150   5.220  13.940
  218BOLB   PO2 5222  18.580   5.240  14.160
  218BOLB   GL3 5223  18.330   5.550  14.300
  218BOLB   GL4 5224  18.520   5.640  14.550
  218BOLB   C1C 5225  18.310   5.960  14.070
  218BOLB   C2C 5226  18.470   6.240  13.990
  218BOLB   C3C 5227  18.420   6.560  13.700
  218BOLB   C4C 5228  18.690   6.970  13.640
  218BOLB   C1D 5229  18.560   6.040  14.560
  218BOLB   C2D 5230  18.650   6.510  14.490
  218BOLB   C3D 5231  18.870   6.750  14.800
  218BOLB   C4D 5232  18.970   7.210  15.080
  219BOLB   NC1 5233  10.620  20.860   8.990
  219BOLB   PO1 5234  10.720  21.220   9.130
  219BOLB   GL1 5235  10.510  21.520   8.930
  219BOLB   GL2 5236  10.160  21.250   8.840
  219BOLB   C1A 5237  10.530  21.730   8.600
  219BOLB   C2A 5238  10.360  21.780   8.200
  219BOLB   C3A 5239  10.020  22.000   8.110
  219BOLB   C4A 5240   9.720  22.410   7.880
  219BOLB   C1B 5241  10.060  21.720   8.890
  219BOLB   C2B 5242   9.870  22.010   8.680
  219BOLB   C3B 5243   9.890  22.440   8.590
  219BOLB   C4B 5244   9.580  22.650   8.290
  219BOLB   NC2 5245   8.160  24.130   6.940
  219BOLB   PO2 5246   8.150  23.620   6.960
  219BOLB   GL3 5247   8.540  23.410   6.840
  219BOLB   GL4 5248   8.780  23.190   6.640
  219BOLB   C1C 5249   8.910  23.400   7.100
  219BOLB   C2C 5250   8.870  23.050   7.320
  219BOLB   C3C 5251   9.230  22.940   7.560
  219BOLB   C4C 5252   9.580  22.740   7.700
  219BOLB   C1D 5253   8.560  22.830   6.970
  219BOLB   C2D 5254   8.700  22.600   7.330
  219BOLB   C3D 5255   8.820  22.450   7.720
  219BOLB   C4D 5256   9.190  22.520   7.940
  220BOLB   NC1 5257  15.350   5.000  16.650
  220BOLB   PO1 5258  15.240   5.410  16.570
  220BOLB   GL1 5259  15.080   5.640  16.330
  220BOLB   GL2 5260  15.340   5.780  16.130
  220BOLB   C1A 5261  14.990   6.130  16.350
  220BOLB   C2A 5262  14.850   6.590  16.350
  220BOLB   C3A 5263  14.470   6.790  16.490
  220BOLB   C4A 5264  14.300   7.000  16.810
  220BOLB   C1B 5265  15.450   6.050  16.050
  220BOLB   C2B 5266  15.670   6.440  15.930
  220BOLB   C3B 5267  15.780   6.770  16.150
  220BOLB   C4B 5268  15.650   7.190  16.120
  220BOLB   NC2 5269  14.670   5.330  18.400
  220BOLB   PO2 5270  14.250   5.250  18.090
  220BOLB   GL3 5271  14.300   5.700  17.900
  220BOLB   GL4 5272  14.090   5.810  17.660
  220BOLB   C1C 5273  14.340   6.170  17.890
  220BOLB   C2C 5274  14.240   6.490  17.820
  220BOLB   C3C 5275  14.320   6.790  17.420
  220BOLB   C4C 5276  14.250   6.910  17.090
  220BOLB   C1D 5277  13.880   5.880  17.340
  220BOLB   C2D 5278  13.760   6.250  16.980
  220BOLB   C3D 5279  13.310   6.540  16.980
  220BOLB   C4D 5280  12.930   6.850  16.880
  221BOLB   NC1 5281  17.510   9.690   7.470
  221BOLB   PO1 5282  17.900   9.970   7.590
  221BOLB   GL1 5283  17.990   9.690   7.340
  221BOLB   GL2 5284  17.880   9.600   7.110
  221BOLB   C1A 5285  18.120   9.220   7.370
  221BOLB   C2A 5286  18.330   8.850   7.240
  221BOLB   C3A 5287  18.680   8.620   7.110
  221BOLB   C4A 5288  18.920   8.500   6.720
  221BOLB   C1B 5289  17.760   9.250   6.950
  221BOLB   C2B 5290  17.710   9.070   6.600
  221BOLB   C3B 5291  17.810   8.720   6.290
  221BOLB   C4B 5292  17.790   8.270   6.120
  221BOLB   NC2 5293  19.520   6.630   6.090
  221BOLB   PO2 5294  19.680   6.660   5.690
  221BOLB   GL3 5295  19.430   7.080   5.630
  221BOLB   GL4 5296  19.200   7.020   5.990
  221BOLB   C1C 5297  19.450   7.450   5.880
  221BOLB   C2C 5298  19.360   7.840   5.920
  221BOLB   C3C 5299  19.180   8.180   6.120
  221BOLB   C4C 5300  19.060   8.560   6.340
  221BOLB   C1D 5301  18.830   6.970   6.170
  221BOLB   C2D 5302  18.660   7.310   6.410
  221BOLB   C3D 5303  18.690   7.670   6.610
  221BOLB   C4D 5304  18.790   8.110   6.450
  222BOLB   NC1 5305  15.960  24.460  17.320
  222BOLB   PO1 5306  15.700  24.750  17.030
  222BOLB   GL1 5307  15.760  24.870  17.480
  222BOLB   GL2 5308  15.380  24.870  17.590
  222BOLB   C1A 5309  15.920  24.870  17.870
  222BOLB   C2A 5310  15.990  25.120  18.260
  222BOLB   C3A 5311  15.960  25.520  18.530
  222BOLB   C4A 5312  16.000  25.930  18.640
  222BOLB   C1B 5313  15.520  25.260  17.690
  222BOLB   C2B 5314  15.800  25.500  18.030
  222BOLB   C3B 5315  16.290  25.480  18.010
  222BOLB   C4B 5316  16.620  25.300  17.810
  222BOLB   NC2 5317  17.640  27.890  19.380
  222BOLB   PO2 5318  17.400  27.540  19.370
  222BOLB   GL3 5319  17.080  27.420  19.180
  222BOLB   GL4 5320  16.920  27.660  18.970
  222BOLB   C1C 5321  16.950  27.110  18.870
  222BOLB   C2C 5322  16.860  26.730  19.010
  222BOLB   C3C 5323  16.540  26.460  18.800
  222BOLB   C4C 5324  16.310  26.100  18.770
  222BOLB   C1D 5325  16.710  27.480  18.700
  222BOLB   C2D 5326  16.500  27.270  18.390
  222BOLB   C3D 5327  16.420  27.060  18.020
  222BOLB   C4D 5328  16.160  26.860  17.680
  223BOLB   NC1 5329  17.370  17.840   4.650
  223BOLB   PO1 5330  17.290  18.110   4.380
  223BOLB   GL1 5331  17.390  18.360   3.960
  223BOLB   GL2 5332  17.500  18.660   3.930
  223BOLB   C1A 5333  17.380  18.500   3.490
  223BOLB   C2A 5334  17.260  18.730   3.070
  223BOLB   C3A 5335  17.210  19.010   2.700
  223BOLB   C4A 5336  17.190  19.500   2.530
  223BOLB   C1B 5337  17.370  19.020   3.680
  223BOLB   C2B 5338  17.350  19.140   3.290
  223BOLB   C3B 5339  17.580  19.350   2.980
  223BOLB   C4B 5340  17.660  19.630   2.580
  223BOLB   NC2 5341  17.000  21.870   1.350
  223BOLB   PO2 5342  16.720  21.470   1.140
  223BOLB   GL3 5343  16.650  21.150   1.460
  223BOLB   GL4 5344  16.450  20.940   1.550
  223BOLB   C1C 5345  17.010  20.900   1.660
  223BOLB   C2C 5346  17.130  20.660   2.010
  223BOLB   C3C 5347  17.170  20.360   2.340
  223BOLB   C4C 5348  17.270  19.910   2.450
  223BOLB   C1D 5349  16.460  20.540   1.650
  223BOLB   C2D 5350  16.610  20.480   2.060
  223BOLB   C3D 5351  16.690  20.150   2.340
  223BOLB   C4D 5352  16.810  19.930   2.590
  224BOLB   NC1 5353  21.480  11.020  11.860
  224BOLB   PO1 5354  21.610  11.190  12.280
  224BOLB   GL1 5355  21.760  10.780  12.220
  224BOLB   GL2 5356  21.640  10.560  11.970
  224BOLB   C1A 5357  21.910  10.480  12.450
  224BOLB   C2A 5358  21.800  10.020  12.520
  224BOLB   C3A 5359  22.040   9.660  12.610
  224BOLB   C4A 5360  22.080   9.240  12.580
  224BOLB   C1B 5361  21.890  10.200  12.010
  224BOLB   C2B 5362  22.280  10.030  12.120
  224BOLB   C3B 5363  22.530   9.730  12.310
  224BOLB   C4B 5364  22.530   9.490  12.710
  224BOLB   NC2 5365  22.910   7.070  13.890
  224BOLB   PO2 5366  23.320   7.330  13.850
  224BOLB   GL3 5367  23.260   7.720  13.600
  224BOLB   GL4 5368  23.250   8.060  13.720
  224BOLB   C1C 5369  23.060   8.050  13.230
  224BOLB   C2C 5370  22.840   8.280  13.030
  224BOLB   C3C 5371  22.550   8.670  13.040
  224BOLB   C4C 5372  22.310   9.030  12.890
  224BOLB   C1D 5373  23.000   8.310  13.640
  224BOLB   C2D 5374  22.980   8.640  13.830
  224BOLB   C3D 5375  22.630   8.880  14.070
  224BOLB   C4D 5376  22.410   9.080  14.330
  225BOLB   NC1 5377  20.310  11.480  16.040
  225BOLB   PO1 5378  20.340  11.800  15.700
  225BOLB   GL1 5379  20.750  11.500  15.810
  225BOLB   GL2 5380  20.860  11.560  16.110
  225BOLB   C1A 5381  20.810  11.040  15.710
  225BOLB   C2A 5382  21.140  10.810  15.850
  225BOLB   C3A 5383  21.410  10.630  16.230
  225BOLB   C4A 5384  21.690  10.410  16.390
  225BOLB   C1B 5385  21.090  11.160  16.200
  225BOLB   C2B 5386  20.970  10.740  16.350
  225BOLB   C3B 5387  21.130  10.330  16.450
  225BOLB   C4B 5388  21.460  10.330  16.840
  225BOLB   NC2 5389  22.400   9.050  17.680
  225BOLB   PO2 5390  22.410   9.150  18.120
  225BOLB   GL3 5391  22.240   9.440  17.940
  225BOLB   GL4 5392  21.870   9.350  17.860
  225BOLB   C1C 5393  22.110   9.680  17.620
  225BOLB   C2C 5394  22.120  10.000  17.310
  225BOLB   C3C 5395  21.980  10.300  17.090
  225BOLB   C4C 5396  21.980  10.370  16.700
  225BOLB   C1D 5397  21.780   9.350  17.470
  225BOLB   C2D 5398  21.510   9.520  17.090
  225BOLB   C3D 5399  21.170   9.660  17.100
  225BOLB   C4D 5400  20.790   9.700  17.190
  226BOLB   NC1 5401  18.730  24.450  16.520
  226BOLB   PO1 5402  19.080  24.470  16.790
  226BOLB   GL1 5403  19.150  24.910  16.850
  226BOLB   GL2 5404  19.370  25.000  17.180
  226BOLB   C1A 5405  19.170  25.340  16.850
  226BOLB   C2A 5406  19.460  25.750  16.850
  226BOLB   C3A 5407  19.660  26.000  16.610
  226BOLB   C4A 5408  20.050  26.130  16.550
  226BOLB   C1B 5409  19.650  25.340  17.140
  226BOLB   C2B 5410  19.860  25.520  17.370
  226BOLB   C3B 5411  19.720  25.680  17.740
  226BOLB   C4B 5412  19.490  25.880  18.030
  226BOLB   NC2 5413  21.650  27.570  17.930
  226BOLB   PO2 5414  21.220  27.590  17.680
  226BOLB   GL3 5415  21.420  27.240  17.580
  226BOLB   GL4 5416  21.360  26.890  17.700
  226BOLB   C1C 5417  21.470  26.930  17.230
  226BOLB   C2C 5418  21.150  26.670  16.970
  226BOLB   C3C 5419  20.660  26.760  16.850
  226BOLB   C4C 5420  20.380  26.530  16.560
  226BOLB   C1D 5421  21.400  26.430  17.420
  226BOLB   C2D 5422  21.840  26.170  17.290
  226BOLB   C3D 5423  22.300  26.120  17.030
  226BOLB   C4D 5424  22.330  26.110  16.620
  227BOLB   NC1 5425  21.730  15.630   1.360
  227BOLB   PO1 5426  21.910  16.080   1.420
  227BOLB   GL1 5427  21.630  16.190   1.600
  227BOLB   GL2 5428  21.650  15.840   1.890
  227BOLB   C1A 5429  21.380  16.340   1.880
  227BOLB   C2A 5430  21.140  16.490   2.170
  227BOLB   C3A 5431  21.120  16.980   2.190
  227BOLB   C4A 5432  21.170  17.320   2.390
  227BOLB   C1B 5433  21.690  15.930   2.270
  227BOLB   C2B 5434  21.380  15.980   2.630
  227BOLB   C3B 5435  21.130  15.950   3.040
  227BOLB   C4B 5436  20.800  15.880   3.380
  227BOLB   NC2 5437  22.940  18.640   1.450
  227BOLB   PO2 5438  22.580  18.340   1.680
  227BOLB   GL3 5439  22.590  18.050   2.000
  227BOLB   GL4 5440  22.660  17.780   2.150
  227BOLB   C1C 5441  22.430  18.160   2.410
  227BOLB   C2C 5442  22.020  18.320   2.550
  227BOLB   C3C 5443  21.660  18.030   2.550
  227BOLB   C4C 5444  21.420  17.710   2.450
  227BOLB   C1D 5445  22.240  17.690   2.370
  227BOLB   C2D 5446  22.140  17.930   2.750
  227BOLB   C3D 5447  21.870  17.810   3.070
  227BOLB   C4D 5448  21.620  17.460   3.230
  228BOLB   NC1 5449  12.600  17.240  28.420
  228BOLB   PO1 5450  12.250  17.330  28.160
  228BOLB   GL1 5451  12.310  17.250  27.690
  228BOLB   GL2 5452  12.160  16.940  27.520
  228BOLB   C1A 5453  12.470  17.270  27.320
  228BOLB   C2A 5454  12.700  16.840  26.970
  228BOLB   C3A 5455  12.950  16.830  26.720
  228BOLB   C4A 5456  13.400  16.770  26.710
  228BOLB   C1B 5457  12.060  17.020  27.090
  228BOLB   C2B 5458  12.030  17.030  26.700
  228BOLB   C3B 5459  12.360  16.970  26.360
  228BOLB   C4B 5460  12.720  17.110  26.220
  228BOLB   NC2 5461  14.800  15.670  28.210
  228BOLB   PO2 5462  14.950  16.070  28.440
  228BOLB   GL3 5463  14.660  16.220  28.100
  228BOLB   GL4 5464  14.530  15.970  27.790
  228BOLB   C1C 5465  14.540  16.500  27.690
  228BOLB   C2C 5466  14.230  16.400  27.440
  228BOLB   C3C 5467  14.090  16.570  27.030
  228BOLB   C4C 5468  13.770  16.860  26.820
  228BOLB   C1D 5469  14.120  15.950  27.520
  228BOLB   C2D 5470  13.880  16.110  27.130
  228BOLB   C3D 5471  13.750  16.280  26.750
  228BOLB   C4D 5472  13.650  16.540  26.330
  229BOLB   NC1 5473  20.040  24.800  14.390
  229BOLB   PO1 5474  20.450  24.710  14.380
  229BOLB   GL1 5475  20.790  24.920  14.350
  229BOLB   GL2 5476  20.950  25.130  14.110
  229BOLB   C1A 5477  21.010  25.130  14.560
  229BOLB   C2A 5478  21.090  25.560  14.610
  229BOLB   C3A 5479  21.120  25.770  14.980
  229BOLB   C4A 5480  20.930  26.270  15.020
  229BOLB   C1B 5481  21.370  25.160  14.180
  229BOLB   C2B 5482  21.780  25.260  14.370
  229BOLB   C3B 5483  22.120  25.230  14.670
  229BOLB   C4B 5484  22.380  25.070  15.110
  229BOLB   NC2 5485  22.030  28.170  15.090
  229BOLB   PO2 5486  21.690  28.110  14.780
  229BOLB   GL3 5487  21.490  27.760  14.490
  229BOLB   GL4 5488  21.690  27.580  14.230
  229BOLB   C1C 5489  21.180  27.520  14.170
  229BOLB   C2C 5490  20.850  27.260  14.170
  229BOLB   C3C 5491  20.740  26.840  14.370
  229BOLB   C4C 5492  20.810  26.520  14.630
  229BOLB   C1D 5493  21.670  27.470  13.800
  229BOLB   C2D 5494  21.670  27.060  13.770
  229BOLB   C3D 5495  21.410  26.700  13.810
  229BOLB   C4D 5496  20.950  26.820  13.840
  230BOLB   NC1 5497  19.690  16.880   4.800
  230BOLB   PO1 5498  19.990  16.680   5.080
  230BOLB   GL1 5499  20.180  16.890   4.690
  230BOLB   GL2 5500  20.070  17.240   4.560
  230BOLB   C1A 5501  20.300  16.800   4.270
  230BOLB   C2A 5502  20.480  16.990   3.870
  230BOLB   C3A 5503  20.680  17.150   3.550
  230BOLB   C4A 5504  20.910  17.320   3.280
  230BOLB   C1B 5505  20.190  17.470   4.250
  230BOLB   C2B 5506  20.340  17.510   3.810
  230BOLB   C3B 5507  20.200  17.630   3.430
  230BOLB   C4B 5508  20.060  17.780   3.090
  230BOLB   NC2 5509  22.360  17.930   1.000
  230BOLB   PO2 5510  22.160  17.500   1.150
  230BOLB   GL3 5511  21.890  17.560   1.560
  230BOLB   GL4 5512  21.660  17.780   1.670
  230BOLB   C1C 5513  22.020  17.420   1.940
  230BOLB   C2C 5514  21.880  17.320   2.380
  230BOLB   C3C 5515  21.650  17.270   2.760
  230BOLB   C4C 5516  21.200  17.450   2.930
  230BOLB   C1D 5517  21.360  17.900   1.990
  230BOLB   C2D 5518  20.990  17.740   2.140
  230BOLB   C3D 5519  20.640  17.660   2.480
  230BOLB   C4D 5520  20.240  17.710   2.680
  231BOLB   NC1 5521  19.980  17.220   5.030
  231BOLB   PO1 5522  20.300  17.510   5.000
  231BOLB   GL1 5523  20.540  17.670   4.700
  231BOLB   GL2 5524  20.600  18.020   4.700
  231BOLB   C1A 5525  20.820  17.660   4.370
  231BOLB   C2A 5526  20.930  18.090   4.170
  231BOLB   C3A 5527  21.120  18.170   3.770
  231BOLB   C4A 5528  21.250  18.290   3.320
  231BOLB   C1B 5529  20.430  18.010   4.220
  231BOLB   C2B 5530  20.560  18.170   3.800
  231BOLB   C3B 5531  20.770  18.430   3.480
  231BOLB   C4B 5532  20.940  18.750   3.200
  231BOLB   NC2 5533  23.620  17.770   1.920
  231BOLB   PO2 5534  23.440  18.140   2.040
  231BOLB   GL3 5535  23.090  18.080   2.310
  231BOLB   GL4 5536  23.030  17.790   2.470
  231BOLB   C1C 5537  22.880  18.320   2.590
  231BOLB   C2C 5538  22.510  18.250   2.930
  231BOLB   C3C 5539  22.170  18.360   3.050
  231BOLB   C4C 5540  21.730  18.290   3.040
  231BOLB   C1D 5541  22.610  17.790   2.760
  231BOLB   C2D 5542  22.400  17.690   3.130
  231BOLB   C3D 5543  22.270  17.900   3.480
  231BOLB   C4D 5544  22.010  17.970   3.920
  232BOLB   NC1 5545  10.610  16.060   7.150
  232BOLB   PO1 5546  10.810  16.200   6.730
  232BOLB   GL1 5547  10.580  16.290   6.400
  232BOLB   GL2 5548  10.740  16.350   5.990
  232BOLB   C1A 5549  10.220  16.420   6.250
  232BOLB   C2A 5550   9.920  16.320   5.920
  232BOLB   C3A 5551   9.640  16.160   5.530
  232BOLB   C4A 5552   9.460  16.220   5.090
  232BOLB   C1B 5553  10.660  16.460   5.570
  232BOLB   C2B 5554  10.440  16.600   5.270
  232BOLB   C3B 5555  10.590  16.530   4.770
  232BOLB   C4B 5556  10.720  16.550   4.310
  232BOLB   NC2 5557   7.400  16.480   3.500
  232BOLB   PO2 5558   7.780  16.280   3.740
  232BOLB   GL3 5559   7.920  16.080   4.090
  232BOLB   GL4 5560   7.610  16.130   4.270
  232BOLB   C1C 5561   8.250  15.990   4.210
  232BOLB   C2C 5562   8.460  16.160   4.460
  232BOLB   C3C 5563   8.900  16.150   4.600
  232BOLB   C4C 5564   9.270  16.270   4.800
  232BOLB   C1D 5565   7.800  15.670   4.460
  232BOLB   C2D 5566   7.860  15.230   4.550
  232BOLB   C3D 5567   8.020  14.930   4.410
  232BOLB   C4D 5568   8.270  14.620   4.670
  233BOLB   NC1 5569  21.700  12.810  14.380
  233BOLB   PO1 5570  22.060  12.500  14.520
  233BOLB   GL1 5571  22.230  12.200  14.750
  233BOLB   GL2 5572  21.900  11.960  14.810
  233BOLB   C1A 5573  22.520  11.930  15.000
  233BOLB   C2A 5574  22.590  11.550  15.360
  233BOLB   C3A 5575  22.700  11.390  15.790
  233BOLB   C4A 5576  22.850  11.210  16.160
  233BOLB   C1B 5577  22.020  11.560  15.100
  233BOLB   C2B 5578  22.200  11.190  15.330
  233BOLB   C3B 5579  22.400  11.010  15.510
  233BOLB   C4B 5580  22.570  10.740  15.790
  233BOLB   NC2 5581  24.200   9.710  18.070
  233BOLB   PO2 5582  24.100   9.850  17.730
  233BOLB   GL3 5583  23.920  10.090  17.470
  233BOLB   GL4 5584  23.580  10.060  17.550
  233BOLB   C1C 5585  23.810  10.630  17.430
  233BOLB   C2C 5586  23.680  10.920  17.080
  233BOLB   C3C 5587  23.340  11.130  16.920
  233BOLB   C4C 5588  23.160  11.200  16.480
  233BOLB   C1D 5589  23.390  10.430  17.640
  233BOLB   C2D 5590  23.190  10.670  18.030
  233BOLB   C3D 5591  23.280  11.010  18.300
  233BOLB   C4D 5592  23.280  11.110  18.630
  234BOLB   NC1 5593  19.220  16.340   4.710
  234BOLB   PO1 5594  19.470  16.530   4.510
  234BOLB   GL1 5595  19.490  16.470   4.050
  234BOLB   GL2 5596  19.380  16.250   3.960
  234BOLB   C1A 5597  19.660  16.480   3.660
  234BOLB   C2A 5598  19.790  16.820   3.260
  234BOLB   C3A 5599  19.760  16.900   2.830
  234BOLB   C4A 5600  19.880  16.590   2.640
  234BOLB   C1B 5601  19.230  15.970   3.720
  234BOLB   C2B 5602  19.340  16.060   3.330
  234BOLB   C3B 5603  19.570  16.320   3.170
  234BOLB   C4B 5604  20.050  16.390   3.090
  234BOLB   NC2 5605  21.110  15.520   0.830
  234BOLB   PO2 5606  20.790  15.470   0.610
  234BOLB   GL3 5607  20.700  15.510   1.020
  234BOLB   GL4 5608  20.700  15.810   1.000
  234BOLB   C1C 5609  20.650  15.570   1.490
  234BOLB   C2C 5610  20.420  15.840   1.710
  234BOLB   C3C 5611  20.220  16.000   2.070
  234BOLB   C4C 5612  19.990  16.240   2.310
  234BOLB   C1D 5613  20.780  16.020   1.450
  234BOLB   C2D 5614  20.830  16.260   1.780
  234BOLB   C3D 5615  20.660  16.290   2.100
  234BOLB   C4D 5616  20.930  16.220   2.560
  235BOLB   NC1 5617  21.450  11.680  12.350
  235BOLB   PO1 5618  21.740  11.410  12.660
  235BOLB   GL1 5619  22.110  11.100  12.520
  235BOLB   GL2 5620  22.400  11.240  12.350
  235BOLB   C1A 5621  22.390  10.810  12.520
  235BOLB   C2A 5622  22.730  10.640  12.550
  235BOLB   C3A 5623  22.980  10.340  12.610
  235BOLB   C4A 5624  23.220  10.090  12.760
  235BOLB   C1B 5625  22.790  11.240  12.340
  235BOLB   C2B 5626  23.140  10.910  12.260
  235BOLB   C3B 5627  23.400  10.560  12.440
  235BOLB   C4B 5628  23.670  10.220  12.320
  235BOLB   NC2 5629  24.870   8.150  11.890
  235BOLB   PO2 5630  24.960   8.540  12.130
  235BOLB   GL3 5631  24.590   8.800  12.110
  235BOLB   GL4 5632  24.440   8.660  11.870
  235BOLB   C1C 5633  24.420   9.200  12.150
  235BOLB   C2C 5634  24.240   9.490  12.390
  235BOLB   C3C 5635  24.060   9.740  12.690
  235BOLB   C4C 5636  23.630  10.000  12.800
  235BOLB   C1D 5637  24.550   9.080  11.680
  235BOLB   C2D 5638  24.310   9.470  11.720
  235BOLB   C3D 5639  24.050   9.790  11.860
  235BOLB   C4D 5640  23.780   9.780  12.150
  236BOLB   NC1 5641  17.490  11.030  17.520
  236BOLB   PO1 5642  17.140  11.020  17.690
  236BOLB   GL1 5643  17.130  10.780  18.040
  236BOLB   GL2 5644  16.910  10.660  18.180
  236BOLB   C1A 5645  17.420  10.410  18.260
  236BOLB   C2A 5646  17.360  10.120  18.630
  236BOLB   C3A 5647  17.220   9.780  18.850
  236BOLB   C4A 5648  17.060   9.350  18.940
  236BOLB   C1B 5649  16.850  10.370  18.480
  236BOLB   C2B 5650  16.770  10.150  18.730
  236BOLB   C3B 5651  16.690   9.830  18.950
  236BOLB   C4B 5652  16.460   9.720  19.340
  236BOLB   NC2 5653  18.180   8.220  20.130
  236BOLB   PO2 5654  17.750   7.970  20.050
  236BOLB   GL3 5655  17.590   8.040  19.580
  236BOLB   GL4 5656  17.710   8.020  19.320
  236BOLB   C1C 5657  17.220   8.100  19.370
  236BOLB   C2C 5658  16.860   8.330  19.330
  236BOLB   C3C 5659  16.860   8.680  19.310
  236BOLB   C4C 5660  16.810   9.180  19.200
  236BOLB   C1D 5661  17.500   8.170  18.980
  236BOLB   C2D 5662  17.550   8.580  18.670
  236BOLB   C3D 5663  17.560   9.000  18.440
  236BOLB   C4D 5664  17.650   9.260  18.170
  237BOLB   NC1 5665  20.470  19.940  18.480
  237BOLB   PO1 5666  20.740  20.100  18.230
  237BOLB   GL1 5667  20.870  20.080  18.700
  237BOLB   GL2 5668  20.900  20.410  18.760
  237BOLB   C1A 5669  21.140  20.080  19.090
  237BOLB   C2A 5670  21.310  19.950  19.560
  237BOLB   C3A 5671  21.520  20.280  19.510
  237BOLB   C4A 5672  21.710  20.680  19.670
  237BOLB   C1B 5673  20.850  20.880  18.840
  237BOLB   C2B 5674  21.130  21.170  18.980
  237BOLB   C3B 5675  21.360  21.250  19.310
  237BOLB   C4B 5676  21.520  21.200  19.660
  237BOLB   NC2 5677  23.780  21.840  20.420
  237BOLB   PO2 5678  23.650  21.640  20.790
  237BOLB   GL3 5679  23.350  21.440  20.470
  237BOLB   GL4 5680  23.580  21.440  20.240
  237BOLB   C1C 5681  22.970  21.290  20.290
  237BOLB   C2C 5682  22.690  21.480  20.000
  237BOLB   C3C 5683  22.290  21.330  19.590
  237BOLB   C4C 5684  21.980  21.070  19.670
  237BOLB   C1D 5685  23.710  21.280  19.790
  237BOLB   C2D 5686  23.440  20.990  19.500
  237BOLB   C3D 5687  23.170  21.030  19.230
  237BOLB   C4D 5688  22.940  21.480  19.090
  238BOLB   NC1 5689  19.230  10.210  15.170
  238BOLB   PO1 5690  19.190  10.570  15.400
  238BOLB   GL1 5691  19.290  10.370  15.680
  238BOLB   GL2 5692  19.170  10.110  15.680
  238BOLB   C1A 5693  19.530  10.400  16.050
  238BOLB   C2A 5694  19.620  10.280  16.450
  238BOLB   C3A 5695  20.020  10.120  16.380
  238BOLB   C4A 5696  20.450   9.780  16.610
  238BOLB   C1B 5697  19.330   9.890  16.140
  238BOLB   C2B 5698  19.620   9.660  16.410
  238BOLB   C3B 5699  19.690   9.170  16.390
  238BOLB   C4B 5700  19.730   8.900  16.010
  238BOLB   NC2 5701  21.030   8.120  17.870
  238BOLB   PO2 5702  21.490   8.240  17.950
  238BOLB   GL3 5703  21.290   8.570  17.810
  238BOLB   GL4 5704  21.030   8.690  18.090
  238BOLB   C1C 5705  21.060   8.610  17.460
  238BOLB   C2C 5706  20.950   8.760  17.110
  238BOLB   C3C 5707  20.900   9.190  16.980
  238BOLB   C4C 5708  20.750   9.470  16.710
  238BOLB   C1D 5709  20.930   9.080  17.810
  238BOLB   C2D 5710  20.930   9.510  17.780
  238BOLB   C3D 5711  20.970   9.920  17.570
  238BOLB   C4D 5712  21.110  10.230  17.210
  239BOLB   NC1 5713  20.230  17.010  18.660
  239BOLB   PO1 5714  20.080  17.160  19.020
  239BOLB   GL1 5715  20.470  17.350  19.020
  239BOLB   GL2 5716  20.480  17.670  18.860
  239BOLB   C1A 5717  20.830  17.320  19.420
  239BOLB   C2A 5718  21.250  17.320  19.420
  239BOLB   C3A 5719  21.400  17.320  19.730
  239BOLB   C4A 5720  21.570  17.440  20.180
  239BOLB   C1B 5721  20.570  17.790  19.260
  239BOLB   C2B 5722  21.030  17.790  19.580
  239BOLB   C3B 5723  21.310  17.750  19.960
  239BOLB   C4B 5724  21.660  17.930  20.210
  239BOLB   NC2 5725  23.490  18.760  21.210
  239BOLB   PO2 5726  23.190  18.820  21.450
  239BOLB   GL3 5727  22.960  18.750  21.070
  239BOLB   GL4 5728  23.170  18.590  20.890
  239BOLB   C1C 5729  22.650  18.540  20.930
  239BOLB   C2C 5730  22.480  18.050  20.880
  239BOLB   C3C 5731  22.120  17.790  20.830
  239BOLB   C4C 5732  21.780  17.520  20.600
  239BOLB   C1D 5733  22.870  18.840  20.640
  239BOLB   C2D 5734  22.770  18.590  20.340
  239BOLB   C3D 5735  22.470  18.250  20.400
  239BOLB   C4D 5736  22.100  17.910  20.360
  240BOLB   NC1 5737  21.240  11.730   8.200
  240BOLB   PO1 5738  21.200  12.150   8.210
  240BOLB   GL1 5739  21.670  12.030   8.080
  240BOLB   GL2 5740  21.770  12.040   7.690
  240BOLB   C1A 5741  22.050  11.740   8.020
  240BOLB   C2A 5742  22.220  11.440   7.800
  240BOLB   C3A 5743  22.520  11.130   7.650
  240BOLB   C4A 5744  22.950  10.870   7.660
  240BOLB   C1B 5745  22.100  11.840   7.440
  240BOLB   C2B 5746  22.370  11.510   7.290
  240BOLB   C3B 5747  22.770  11.320   7.250
  240BOLB   C4B 5748  22.940  10.910   7.150
  240BOLB   NC2 5749  24.770   9.180   7.670
  240BOLB   PO2 5750  24.850   9.490   7.410
  240BOLB   GL3 5751  24.480   9.690   7.580
  240BOLB   GL4 5752  24.590   9.940   7.820
  240BOLB   C1C 5753  24.120   9.920   7.800
  240BOLB   C2C 5754  23.850  10.240   7.980
  240BOLB   C3C 5755  23.580  10.610   8.060
  240BOLB   C4C 5756  23.200  10.770   7.960
  240BOLB   C1D 5757  24.390  10.100   8.200
  240BOLB   C2D 5758  24.160  10.470   8.400
  240BOLB   C3D 5759  23.680  10.390   8.470
  240BOLB   C4D 5760  23.380  10.100   8.540
  241BOLB   NC1 5761  19.670  21.350   6.790
  241BOLB   PO1 5762  19.310  21.090   6.810
  241BOLB   GL1 5763  19.290  21.440   6.440
  241BOLB   GL2 5764  19.040  21.610   6.370
  241BOLB   C1A 5765  19.200  21.670   5.960
  241BOLB   C2A 5766  19.020  21.630   5.450
  241BOLB   C3A 5767  19.070  21.850   5.090
  241BOLB   C4A 5768  19.120  21.960   4.640
  241BOLB   C1B 5769  18.960  22.070   6.160
  241BOLB   C2B 5770  18.970  22.520   6.040
  241BOLB   C3B 5771  19.140  22.920   5.970
  241BOLB   C4B 5772  19.230  23.110   6.350
  241BOLB   NC2 5773  18.250  24.320   3.600
  241BOLB   PO2 5774  18.650  24.130   3.600
  241BOLB   GL3 5775  18.670  23.830   3.830
  241BOLB   GL4 5776  18.540  23.690   4.180
  241BOLB   C1C 5777  18.610  23.320   3.760
  241BOLB   C2C 5778  18.560  22.920   4.010
  241BOLB   C3C 5779  18.730  22.470   4.010
  241BOLB   C4C 5780  18.970  22.170   4.210
  241BOLB   C1D 5781  18.640  23.350   4.280
  241BOLB   C2D 5782  18.640  23.060   4.570
  241BOLB   C3D 5783  18.690  22.720   4.930
  241BOLB   C4D 5784  18.540  22.330   5.200
  242BOLB   NC1 5785  19.340   6.250  16.060
  242BOLB   PO1 5786  19.100   6.260  16.490
  242BOLB   GL1 5787  18.780   6.530  16.600
  242BOLB   GL2 5788  18.560   6.610  16.770
  242BOLB   C1A 5789  18.630   7.060  16.580
  242BOLB   C2A 5790  18.400   7.240  16.280
  242BOLB   C3A 5791  18.400   7.500  15.920
  242BOLB   C4A 5792  18.540   7.800  15.710
  242BOLB   C1B 5793  18.160   6.950  16.610
  242BOLB   C2B 5794  17.950   7.300  16.460
  242BOLB   C3B 5795  18.090   7.700  16.390
  242BOLB   C4B 5796  18.140   8.120  16.020
  242BOLB   NC2 5797  18.260  10.340  15.690
  242BOLB   PO2 5798  18.270  10.300  16.150
  242BOLB   GL3 5799  18.260   9.880  15.950
  242BOLB   GL4 5800  18.350   9.730  16.300
  242BOLB   C1C 5801  18.480   9.470  15.890
  242BOLB   C2C 5802  18.790   9.070  15.930
  242BOLB   C3C 5803  18.790   8.680  16.020
  242BOLB   C4C 5804  18.710   8.210  15.840
  242BOLB   C1D 5805  18.610   9.430  16.440
  242BOLB   C2D 5806  18.780   9.040  16.420
  242BOLB   C3D 5807  18.830   8.590  16.530
  242BOLB   C4D 5808  18.710   8.160  16.470
  243BOLB   NC1 5809  22.550  17.750   7.070
  243BOLB   PO1 5810  22.420  18.210   7.100
  243BOLB   GL1 5811  22.640  18.260   6.800
  243BOLB   GL2 5812  22.580  18.250   6.460
  243BOLB   C1A 5813  22.900  18.550   6.660
  243BOLB   C2A 5814  23.120  18.850   6.340
  243BOLB   C3A 5815  23.340  18.910   5.830
  243BOLB   C4A 5816  23.820  18.750   5.760
  243BOLB   C1B 5817  22.530  18.410   6.010
  243BOLB   C2B 5818  22.550  18.350   5.560
  243BOLB   C3B 5819  22.800  18.300   5.160
  243BOLB   C4B 5820  23.120  18.150   4.940
  243BOLB   NC2 5821  25.460  19.710   4.700
  243BOLB   PO2 5822  25.540  19.310   4.440
  243BOLB   GL3 5823  25.130  19.310   4.690
  243BOLB   GL4 5824  24.970  19.010   4.780
  243BOLB   C1C 5825  24.730  19.420   4.790
  243BOLB   C2C 5826  24.380  19.430   4.990
  243BOLB   C3C 5827  24.180  19.250   5.260
  243BOLB   C4C 5828  24.190  18.990   5.580
  243BOLB   C1D 5829  24.560  18.890   4.710
  243BOLB   C2D 5830  24.220  19.070   4.730
  243BOLB   C3D 5831  23.760  18.980   5.000
  243BOLB   C4D 5832  23.580  19.030   5.400
  244BOLB   NC1 5833  21.230  17.530  23.120
  244BOLB   PO1 5834  21.160  17.110  22.980
  244BOLB   GL1 5835  20.910  17.040  22.620
  244BOLB   GL2 5836  21.010  16.990  22.300
  244BOLB   C1A 5837  20.570  16.980  22.410
  244BOLB   C2A 5838  20.330  16.790  22.140
  244BOLB   C3A 5839  20.210  16.340  21.930
  244BOLB   C4A 5840  20.140  16.070  21.500
  244BOLB   C1B 5841  20.750  16.690  22.020
  244BOLB   C2B 5842  20.550  16.610  21.660
  244BOLB   C3B 5843  20.280  16.540  21.390
  244BOLB   C4B 5844  20.120  16.820  21.080
  244BOLB   NC2 5845  21.000  14.950  22.960
  244BOLB   PO2 5846  21.230  14.640  22.690
  244BOLB   GL3 5847  21.390  14.840  22.250
  244BOLB   GL4 5848  21.500  15.130  22.120
  244BOLB   C1C 5849  21.010  15.020  22.030
  244BOLB   C2C 5850  20.800  15.230  21.740
  244BOLB   C3C 5851  20.620  15.390  21.360
  244BOLB   C4C 5852  20.440  15.740  21.330
  244BOLB   C1D 5853  21.460  15.350  21.690
  244BOLB   C2D 5854  21.150  15.490  21.450
  244BOLB   C3D 5855  21.100  15.330  21.000
  244BOLB   C4D 5856  20.810  15.340  20.750
  245BOLB   NC1 5857  15.080  23.590  18.740
  245BOLB   PO1 5858  14.930  23.850  18.420
  245BOLB   GL1 5859  14.850  24.100  18.860
  245BOLB   GL2 5860  14.850  23.940  19.160
  245BOLB   C1A 5861  14.760  24.510  19.100
  245BOLB   C2A 5862  14.690  24.620  19.490
  245BOLB   C3A 5863  14.330  24.890  19.500
  245BOLB   C4A 5864  14.080  25.100  19.720
  245BOLB   C1B 5865  14.870  24.130  19.510
  245BOLB   C2B 5866  15.090  24.410  19.710
  245BOLB   C3B 5867  15.050  24.730  20.110
  245BOLB   C4B 5868  15.200  25.060  20.370
  245BOLB   NC2 5869  15.090  26.670  21.350
  245BOLB   PO2 5870  14.710  26.500  21.490
  245BOLB   GL3 5871  14.520  26.310  21.160
  245BOLB   GL4 5872  14.680  26.420  20.800
  245BOLB   C1C 5873  14.380  25.860  20.960
  245BOLB   C2C 5874  14.120  25.550  20.790
  245BOLB   C3C 5875  13.990  25.400  20.440
  245BOLB   C4C 5876  13.940  25.050  20.140
  245BOLB   C1D 5877  14.530  26.060  20.540
  245BOLB   C2D 5878  14.480  25.590  20.430
  245BOLB   C3D 5879  14.480  25.240  20.640
  245BOLB   C4D 5880  14.240  24.950  20.580
  246BOLB   NC1 5881  12.240  18.900   5.550
  246BOLB   PO1 5882  12.050  18.660   5.750
  246BOLB   GL1 5883  11.740  18.810   5.410
  246BOLB   GL2 5884  11.960  19.010   5.130
  246BOLB   C1A 5885  11.370  18.740   5.300
  246BOLB   C2A 5886  11.000  18.810   5.110
  246BOLB   C3A 5887  10.720  18.670   4.810
  246BOLB   C4A 5888  10.240  18.540   4.760
  246BOLB   C1B 5889  11.580  19.230   5.160
  246BOLB   C2B 5890  11.210  19.420   5.000
  246BOLB   C3B 5891  11.310  19.790   4.670
  246BOLB   C4B 5892  11.400  19.690   4.240
  246BOLB   NC2 5893   7.910  18.130   3.910
  246BOLB   PO2 5894   8.140  18.570   3.750
  246BOLB   GL3 5895   8.390  18.270   4.090
  246BOLB   GL4 5896   8.150  18.170   4.370
  246BOLB   C1C 5897   8.580  17.910   4.430
  246BOLB   C2C 5898   9.020  18.090   4.520
  246BOLB   C3C 5899   9.410  18.320   4.480
  246BOLB   C4C 5900   9.820  18.380   4.570
  246BOLB   C1D 5901   8.550  18.410   4.510
  246BOLB   C2D 5902   8.810  18.650   4.810
  246BOLB   C3D 5903   8.920  18.640   5.190
  246BOLB   C4D 5904   9.040  18.350   5.540
  247BOLB   NC1 5905  10.370  10.430  11.960
  247BOLB   PO1 5906  10.720  10.250  12.020
  247BOLB   GL1 5907  10.520  10.000  12.180
  247BOLB   GL2 5908  10.120  10.010  12.110
  247BOLB   C1A 5909  10.360   9.560  12.220
  247BOLB   C2A 5910  10.090   9.290  12.310
  247BOLB   C3A 5911   9.840   9.050  12.460
  247BOLB   C4A 5912   9.860   8.600  12.420
  247BOLB   C1B 5913   9.950   9.730  12.010
  247BOLB   C2B 5914   9.640   9.400  12.090
  247BOLB   C3B 5915   9.270   9.150  12.120
  247BOLB   C4B 5916   8.910   8.790  12.180
  247BOLB   NC2 5917   8.700   6.390  11.660
  247BOLB   PO2 5918   8.990   6.500  12.050
  247BOLB   GL3 5919   9.130   6.930  12.180
  247BOLB   GL4 5920   8.900   7.030  12.300
  247BOLB   C1C 5921   9.450   7.050  12.220
  247BOLB   C2C 5922   9.700   7.480  12.260
  247BOLB   C3C 5923   9.990   7.810  12.430
  247BOLB   C4C 5924   9.970   8.280  12.330
  247BOLB   C1D 5925   9.070   7.410  12.370
  247BOLB   C2D 5926   9.220   7.830  12.270
  247BOLB   C3D 5927   9.580   7.980  12.130
  247BOLB   C4D 5928   9.900   7.770  11.900
  248BOLB   NC1 5929  21.010  20.050   6.380
  248BOLB   PO1 5930  21.110  19.570   6.400
  248BOLB   GL1 5931  21.590  19.480   6.410
  248BOLB   GL2 5932  21.580  19.480   6.130
  248BOLB   C1A 5933  22.070  19.630   6.230
  248BOLB   C2A 5934  22.280  19.900   5.910
  248BOLB   C3A 5935  22.490  19.970   5.500
  248BOLB   C4A 5936  22.620  20.280   5.130
  248BOLB   C1B 5937  21.730  19.730   5.770
  248BOLB   C2B 5938  21.910  20.040   5.520
  248BOLB   C3B 5939  22.060  20.160   5.180
  248BOLB   C4B 5940  22.260  20.090   4.830
  248BOLB   NC2 5941  24.280  22.310   4.120
  248BOLB   PO2 5942  24.090  21.970   4.080
  248BOLB   GL3 5943  23.760  21.720   4.240
  248BOLB   GL4 5944  23.650  22.070   4.280
  248BOLB   C1C 5945  23.500  21.470   4.450
  248BOLB   C2C 5946  23.230  21.180   4.640
  248BOLB   C3C 5947  22.870  21.000   4.610
  248BOLB   C4C 5948  22.760  20.600   4.780
  248BOLB   C1D 5949  23.440  21.950   4.690
  248BOLB   C2D 5950  23.280  21.650   4.990
  248BOLB   C3D 5951  23.140  21.640   5.380
  248BOLB   C4D 5952  23.160  21.440   5.710
  249BOLB   NC1 5953   2.580  10.530  13.870
  249BOLB   PO1 5954   2.570  10.790  13.550
  249BOLB   GL1 5955   2.970  10.950  13.700
  249BOLB   GL2 5956   3.000  10.750  14.080
  249BOLB   C1A 5957   3.200  11.290  13.620
  249BOLB   C2A 5958   3.430  11.550  13.670
  249BOLB   C3A 5959   3.850  11.690  13.600
  249BOLB   C4A 5960   3.960  12.100  13.480
  249BOLB   C1B 5961   3.120  10.820  14.490
  249BOLB   C2B 5962   3.380  10.830  14.820
  249BOLB   C3B 5963   3.730  10.970  15.060
  249BOLB   C4B 5964   4.120  11.130  15.210
  249BOLB   NC2 5965   2.080  11.830  12.930
  249BOLB   PO2 5966   2.030  12.250  12.990
  249BOLB   GL3 5967   2.500  12.320  13.070
  249BOLB   GL4 5968   2.860  12.230  12.870
  249BOLB   C1C 5969   2.750  12.570  13.360
  249BOLB   C2C 5970   3.210  12.810  13.440
  249BOLB   C3C 5971   3.550  12.600  13.760
  249BOLB   C4C 5972   3.960  12.490  13.670
  249BOLB   C1D 5973   3.110  12.590  12.970
  249BOLB   C2D 5974   3.020  13.120  13.130
  249BOLB   C3D 5975   3.280  13.450  13.310
  249BOLB   C4D 5976   3.140  13.750  13.560
  250BOLB   NC1 5977  21.550  23.180  11.660
  250BOLB   PO1 5978  21.500  23.580  11.950
  250BOLB   GL1 5979  21.790  23.850  12.070
  250BOLB   GL2 5980  21.680  24.120  12.020
  250BOLB   C1A 5981  22.060  24.010  11.680
  250BOLB   C2A 5982  22.400  23.950  11.450
  250BOLB   C3A 5983  22.460  24.200  11.120
  250BOLB   C4A 5984  22.790  24.540  11.190
  250BOLB   C1B 5985  21.930  24.380  12.000
  250BOLB   C2B 5986  22.240  24.710  11.950
  250BOLB   C3B 5987  22.210  25.060  11.890
  250BOLB   C4B 5988  22.370  25.500  11.700
  250BOLB   NC2 5989  23.570  27.110  12.060
  250BOLB   PO2 5990  23.770  26.690  12.200
  250BOLB   GL3 5991  23.640  26.210  12.130
  250BOLB   GL4 5992  23.860  26.190  12.400
  250BOLB   C1C 5993  23.300  25.870  11.910
  250BOLB   C2C 5994  23.030  25.520  11.800
  250BOLB   C3C 5995  22.840  25.210  11.520
  250BOLB   C4C 5996  22.920  24.860  11.370
  250BOLB   C1D 5997  23.630  25.860  12.600
  250BOLB   C2D 5998  23.710  25.410  12.560
  250BOLB   C3D 5999  23.400  25.020  12.690
  250BOLB   C4D 6000  23.110  24.700  12.970
  251BOLB   NC1 6001  20.480  20.020   5.810
  251BOLB   PO1 6002  20.720  19.770   6.010
  251BOLB   GL1 6003  20.890  19.840   5.620
  251BOLB   GL2 6004  21.200  19.710   5.510
  251BOLB   C1A 6005  21.020  20.190   5.330
  251BOLB   C2A 6006  21.350  20.390   5.050
  251BOLB   C3A 6007  21.800  20.620   4.930
  251BOLB   C4A 6008  22.090  20.680   4.620
  251BOLB   C1B 6009  21.490  19.880   5.170
  251BOLB   C2B 6010  21.670  20.030   4.840
  251BOLB   C3B 6011  21.760  20.260   4.460
  251BOLB   C4B 6012  21.710  20.610   4.230
  251BOLB   NC2 6013  23.700  22.120   3.760
  251BOLB   PO2 6014  23.500  21.880   3.380
  251BOLB   GL3 6015  23.470  21.590   3.720
  251BOLB   GL4 6016  23.370  21.820   3.920
  251BOLB   C1C 6017  23.360  21.350   3.990
  251BOLB   C2C 6018  23.010  21.310   4.200
  251BOLB   C3C 6019  22.620  21.190   4.250
  251BOLB   C4C 6020  22.340  21.000   4.540
  251BOLB   C1D 6021  22.940  21.650   3.850
  251BOLB   C2D 6022  22.650  21.320   3.740
  251BOLB   C3D 6023  22.270  21.180   3.730
  251BOLB   C4D 6024  21.770  20.950   3.820
  252BOLB   NC1 6025  20.280  19.740   6.250
  252BOLB   PO1 6026  20.110  19.670   5.850
  252BOLB   GL1 6027  20.000  19.920   5.390
  252BOLB   GL2 6028  20.150  20.150   5.460
  252BOLB   C1A 6029  20.150  20.140   4.910
  252BOLB   C2A 6030  20.270  20.370   4.540
  252BOLB   C3A 6031  20.390  20.530   4.160
  252BOLB   C4A 6032  20.500  20.560   3.820
  252BOLB   C1B 6033  20.010  20.440   5.240
  252BOLB   C2B 6034  20.170  20.720   4.980
  252BOLB   C3B 6035  20.120  20.960   4.570
  252BOLB   C4B 6036  19.990  20.950   4.130
  252BOLB   NC2 6037  21.900  22.240   2.360
  252BOLB   PO2 6038  21.820  21.840   2.600
  252BOLB   GL3 6039  21.600  21.650   2.920
  252BOLB   GL4 6040  21.290  21.610   2.970
  252BOLB   C1C 6041  21.670  21.370   3.240
  252BOLB   C2C 6042  21.460  21.220   3.510
  252BOLB   C3C 6043  21.160  21.120   3.580
  252BOLB   C4C 6044  20.680  20.780   3.550
  252BOLB   C1D 6045  21.060  21.610   3.350
  252BOLB   C2D 6046  20.750  21.710   3.590
  252BOLB   C3D 6047  20.620  21.570   4.040
  252BOLB   C4D 6048  20.380  21.450   4.350
  253BOLB   NC1 6049  23.700  15.010  13.440
  253BOLB   PO1 6050  23.430  14.790  13.730
  253BOLB   GL1 6051  23.570  14.540  13.980
  253BOLB   GL2 6052  23.910  14.530  13.930
  253BOLB   C1A 6053  23.810  14.370  14.420
  253BOLB   C2A 6054  24.120  14.210  14.670
  253BOLB   C3A 6055  24.560  14.140  14.730
  253BOLB   C4A 6056  24.880  14.020  15.040
  253BOLB   C1B 6057  24.190  14.150  14.160
  253BOLB   C2B 6058  24.540  13.980  14.170
  253BOLB   C3B 6059  24.850  14.070  14.350
  253BOLB   C4B 6060  25.130  14.030  14.590
  253BOLB   NC2 6061  27.190  14.000  16.310
  253BOLB   PO2 6062  27.000  13.750  16.010
  253BOLB   GL3 6063  26.550  13.880  15.920
  253BOLB   GL4 6064  26.290  14.020  16.040
  253BOLB   C1C 6065  26.310  13.870  15.590
  253BOLB   C2C 6066  25.990  13.800  15.440
  253BOLB   C3C 6067  25.660  13.860  15.290
  253BOLB   C4C 6068  25.290  13.930  15.090
  253BOLB   C1D 6069  26.010  14.340  15.930
  253BOLB   C2D 6070  25.490  14.570  15.790
  253BOLB   C3D 6071  25.210  14.810  15.620
  253BOLB   C4D 6072  24.810  14.950  15.680
  254BOLB   NC1 6073  19.420  14.410  19.460
  254BOLB   PO1 6074  19.510  14.130  19.060
  254BOLB   GL1 6075  19.790  13.840  19.170
  254BOLB   GL2 6076  20.000  13.580  18.950
  254BOLB   C1A 6077  19.720  13.530  19.480
  254BOLB   C2A 6078  19.690  13.190  19.860
  254BOLB   C3A 6079  19.410  12.840  19.880
  254BOLB   C4A 6080  19.470  12.460  20.210
  254BOLB   C1B 6081  20.260  13.530  19.340
  254BOLB   C2B 6082  20.630  13.230  19.320
  254BOLB   C3B 6083  21.070  13.050  19.420
  254BOLB   C4B 6084  21.490  13.070  19.320
  254BOLB   NC2 6085  20.680  10.610  21.680
  254BOLB   PO2 6086  20.530  11.100  21.770
  254BOLB   GL3 6087  20.250  11.440  21.650
  254BOLB   GL4 6088  20.330  11.840  21.600
  254BOLB   C1C 6089  19.890  11.610  21.380
  254BOLB   C2C 6090  19.770  11.600  20.970
  254BOLB   C3C 6091  19.510  11.770  20.800
  254BOLB   C4C 6092  19.480  12.120  20.440
  254BOLB   C1D 6093  19.970  12.170  21.650
  254BOLB   C2D 6094  19.560  12.450  21.640
  254BOLB   C3D 6095  19.100  12.310  21.430
  254BOLB   C4D 6096  18.870  12.640  21.360
  255BOLB   NC1 6097  14.330   8.880  13.400
  255BOLB   PO1 6098  14.360   8.830  12.920
  255BOLB   GL1 6099  14.210   8.470  12.740
  255BOLB   GL2 6100  14.430   8.280  12.850
  255BOLB   C1A 6101  13.840   8.200  12.850
  255BOLB   C2A 6102  13.750   7.810  12.990
  255BOLB   C3A 6103  13.760   7.480  12.960
  255BOLB   C4A 6104  13.690   6.960  13.120
  255BOLB   C1B 6105  14.270   7.870  12.700
  255BOLB   C2B 6106  14.100   7.450  12.630
  255BOLB   C3B 6107  13.810   7.060  12.510
  255BOLB   C4B 6108  13.490   6.730  12.540
  255BOLB   NC2 6109  13.490   4.360  13.930
  255BOLB   PO2 6110  13.620   4.690  13.870
  255BOLB   GL3 6111  13.640   5.180  13.670
  255BOLB   GL4 6112  13.900   5.250  13.580
  255BOLB   C1C 6113  13.360   5.440  13.290
  255BOLB   C2C 6114  13.230   5.820  12.980
  255BOLB   C3C 6115  13.390   6.190  12.830
  255BOLB   C4C 6116  13.650   6.530  12.980
  255BOLB   C1D 6117  13.830   5.680  13.660
  255BOLB   C2D 6118  13.620   5.810  13.450
  255BOLB   C3D 6119  13.300   6.140  13.430
  255BOLB   C4D 6120  13.370   6.560  13.420
  256BOLB   NC1 6121  13.920   9.340  11.720
  256BOLB   PO1 6122  14.090   9.260  12.100
  256BOLB   GL1 6123  14.030   8.840  12.160
  256BOLB   GL2 6124  14.180   8.660  12.290
  256BOLB   C1A 6125  13.770   8.450  12.000
  256BOLB   C2A 6126  13.440   8.190  12.040
  256BOLB   C3A 6127  13.260   7.770  12.060
  256BOLB   C4A 6128  13.240   7.310  12.090
  256BOLB   C1B 6129  14.020   8.190  12.330
  256BOLB   C2B 6130  13.830   7.890  12.470
  256BOLB   C3B 6131  13.790   7.520  12.230
  256BOLB   C4B 6132  13.850   7.200  11.950
  256BOLB   NC2 6133  13.190   4.660  12.230
  256BOLB   PO2 6134  13.490   5.010  12.160
  256BOLB   GL3 6135  13.580   5.360  12.170
  256BOLB   GL4 6136  13.670   5.310  11.750
  256BOLB   C1C 6137  13.670   5.830  12.170
  256BOLB   C2C 6138  13.620   6.220  12.340
  256BOLB   C3C 6139  13.460   6.650  12.090
  256BOLB   C4C 6140  13.440   6.990  12.110
  256BOLB   C1D 6141  13.620   5.700  11.720
  256BOLB   C2D 6142  13.690   6.150  11.770
  256BOLB   C3D 6143  13.880   6.490  11.750
  256BOLB   C4D 6144  14.170   6.900  11.590
  257BOLB   NC1 6145  16.140   9.320   9.770
  257BOLB   PO1 6146  15.970   9.020   9.490
  257BOLB   GL1 6147  15.770   8.670   9.560
  257BOLB   GL2 6148  15.500   8.790   9.440
  257BOLB   C1A 6149  15.790   8.300   9.500
  257BOLB   C2A 6150  15.630   8.040   9.210
  257BOLB   C3A 6151  15.310   7.700   9.220
  257BOLB   C4A 6152  15.010   7.390   9.100
  257BOLB   C1B 6153  15.360   8.420   9.260
  257BOLB   C2B 6154  15.220   8.200   8.890
  257BOLB   C3B 6155  15.160   7.860   8.710
  257BOLB   C4B 6156  15.260   7.540   8.710
  257BOLB   NC2 6157  15.450   4.990   7.840
  257BOLB   PO2 6158  15.320   5.290   8.030
  257BOLB   GL3 6159  15.510   5.690   8.300
  257BOLB   GL4 6160  15.240   5.660   8.440
  257BOLB   C1C 6161  15.540   6.010   8.640
  257BOLB   C2C 6162  15.480   6.490   8.710
  257BOLB   C3C 6163  15.370   6.900   8.640
  257BOLB   C4C 6164  15.020   7.070   8.840
  257BOLB   C1D 6165  14.930   5.860   8.140
  257BOLB   C2D 6166  14.780   6.170   7.950
  257BOLB   C3D 6167  14.970   6.700   7.870
  257BOLB   C4D 6168  14.920   7.080   7.850
  258BOLB   NC1 6169  19.990  20.940   7.420
  258BOLB   PO1 6170  20.070  21.310   7.110
  258BOLB   GL1 6171  20.210  21.430   6.690
  258BOLB   GL2 6172  20.370  21.050   6.580
  258BOLB   C1A 6173  20.230  21.810   6.530
  258BOLB   C2A 6174  20.110  21.820   6.080
  258BOLB   C3A 6175  20.010  21.850   5.610
  258BOLB   C4A 6176  20.010  21.800   5.180
  258BOLB   C1B 6177  20.620  21.400   6.290
  258BOLB   C2B 6178  20.680  21.810   6.180
  258BOLB   C3B 6179  20.870  22.220   6.140
  258BOLB   C4B 6180  20.780  22.620   5.920
  258BOLB   NC2 6181  19.380  23.000   2.930
  258BOLB   PO2 6182  19.920  23.080   3.000
  258BOLB   GL3 6183  19.730  22.700   3.220
  258BOLB   GL4 6184  19.320  22.610   3.270
  258BOLB   C1C 6185  19.740  22.390   3.570
  258BOLB   C2C 6186  19.730  22.280   4.050
  258BOLB   C3C 6187  19.650  22.240   4.490
  258BOLB   C4C 6188  19.840  21.920   4.780
  258BOLB   C1D 6189  19.260  22.250   3.140
  258BOLB   C2D 6190  19.280  21.930   3.460
  258BOLB   C3D 6191  19.280  21.590   3.660
  258BOLB   C4D 6192  19.620  21.450   4.060
  259BOLB   NC1 6193   8.240  27.110  20.040
  259BOLB   PO1 6194   8.600  26.800  19.950
  259BOLB   GL1 6195   8.480  26.380  19.890
  259BOLB   GL2 6196   8.360  26.440  19.510
  259BOLB   C1A 6197   8.130  26.130  19.860
  259BOLB   C2A 6198   7.850  26.010  19.540
  259BOLB   C3A 6199   7.560  25.670  19.540
  259BOLB   C4A 6200   7.420  25.370  19.300
  259BOLB   C1B 6201   8.520  26.100  19.470
  259BOLB   C2B 6202   8.520  25.860  19.810
  259BOLB   C3B 6203   8.420  25.710  20.190
  259BOLB   C4B 6204   8.090  25.820  20.360
  259BOLB   NC2 6205   5.200  25.830  18.550
  259BOLB   PO2 6206   5.380  25.570  18.360
  259BOLB   GL3 6207   5.630  25.240  18.590
  259BOLB   GL4 6208   5.860  25.420  18.820
  259BOLB   C1C 6209   5.930  24.960  18.620
  259BOLB   C2C 6210   6.320  24.870  18.810
  259BOLB   C3C 6211   6.590  25.110  19.010
  259BOLB   C4C 6212   7.130  25.120  19.140
  259BOLB   C1D 6213   5.780  25.100  19.100
  259BOLB   C2D 6214   5.700  24.690  19.180
  259BOLB   C3D 6215   5.970  24.370  19.180
  259BOLB   C4D 6216   6.040  23.900  19.170
  260BOLB   NC1 6217   8.760  14.140   9.800
  260BOLB   PO1 6218   8.840  13.840  10.100
  260BOLB   GL1 6219   8.450  13.550  10.180
  260BOLB   GL2 6220   8.070  13.750  10.250
  260BOLB   C1A 6221   8.090  13.250  10.050
  260BOLB   C2A 6222   7.720  13.060  10.020
  260BOLB   C3A 6223   7.320  12.830   9.900
  260BOLB   C4A 6224   7.230  12.470   9.970
  260BOLB   C1B 6225   7.850  13.680  10.530
  260BOLB   C2B 6226   7.480  13.480  10.710
  260BOLB   C3B 6227   7.090  13.250  10.640
  260BOLB   C4B 6228   6.630  13.170  10.600
  260BOLB   NC2 6229   5.310  11.210   9.610
  260BOLB   PO2 6230   5.380  11.570   9.400
  260BOLB   GL3 6231   5.740  11.450   9.670
  260BOLB   GL4 6232   6.010  11.240   9.560
  260BOLB   C1C 6233   5.980  11.420  10.100
  260BOLB   C2C 6234   6.160  11.670  10.390
  260BOLB   C3C 6235   6.460  11.980  10.350
  260BOLB   C4C 6236   6.820  12.270  10.150
  260BOLB   C1D 6237   6.430  11.300   9.630
  260BOLB   C2D 6238   6.680  11.630   9.380
  260BOLB   C3D 6239   6.920  11.920   9.250
  260BOLB   C4D 6240   7.190  12.220   9.410
  261BOLB   NC1 6241  20.910  18.350  17.720
  261BOLB   PO1 6242  20.830  18.390  18.120
  261BOLB   GL1 6243  21.130  18.660  18.430
  261BOLB   GL2 6244  21.390  18.830  18.450
  261BOLB   C1A 6245  21.300  18.630  18.980
  261BOLB   C2A 6246  21.580  18.740  19.230
  261BOLB   C3A 6247  21.770  18.570  19.580
  261BOLB   C4A 6248  21.550  18.440  20.100
  261BOLB   C1B 6249  21.540  19.080  18.770
  261BOLB   C2B 6250  21.770  19.240  19.200
  261BOLB   C3B 6251  21.800  19.120  19.570
  261BOLB   C4B 6252  21.890  19.230  19.990
  261BOLB   NC2 6253  22.760  19.280  22.290
  261BOLB   PO2 6254  22.820  19.060  21.930
  261BOLB   GL3 6255  22.530  19.120  21.630
  261BOLB   GL4 6256  22.360  19.360  21.510
  261BOLB   C1C 6257  22.150  18.890  21.570
  261BOLB   C2C 6258  21.910  18.770  21.240
  261BOLB   C3C 6259  21.730  18.700  20.800
  261BOLB   C4C 6260  21.520  18.570  20.490
  261BOLB   C1D 6261  22.110  19.230  21.110
  261BOLB   C2D 6262  22.210  18.830  20.820
  261BOLB   C3D 6263  22.300  18.710  20.430
  261BOLB   C4D 6264  22.070  18.520  20.300
  262BOLB   NC1 6265  20.770  11.320  14.850
  262BOLB   PO1 6266  20.630  10.960  14.580
  262BOLB   GL1 6267  20.850  10.510  14.510
  262BOLB   GL2 6268  21.060  10.750  14.390
  262BOLB   C1A 6269  20.850  10.120  14.440
  262BOLB   C2A 6270  20.940   9.820  14.780
  262BOLB   C3A 6271  21.130   9.660  15.100
  262BOLB   C4A 6272  21.330   9.340  15.350
  262BOLB   C1B 6273  21.350  10.460  14.600
  262BOLB   C2B 6274  21.320  10.090  14.690
  262BOLB   C3B 6275  21.480   9.680  14.640
  262BOLB   C4B 6276  21.620   9.480  14.950
  262BOLB   NC2 6277  22.990   8.800  17.150
  262BOLB   PO2 6278  22.720   8.640  17.490
  262BOLB   GL3 6279  22.580   9.060  17.130
  262BOLB   GL4 6280  22.670   9.050  16.800
  262BOLB   C1C 6281  22.220   9.170  16.890
  262BOLB   C2C 6282  22.010   9.040  16.490
  262BOLB   C3C 6283  21.670   9.190  16.070
  262BOLB   C4C 6284  21.610   9.260  15.730
  262BOLB   C1D 6285  22.400   8.790  16.660
  262BOLB   C2D 6286  22.250   8.520  16.350
  262BOLB   C3D 6287  21.930   8.740  16.070
  262BOLB   C4D 6288  21.990   8.950  15.690
  263BOLB   NC1 6289  17.610   8.930  12.710
  263BOLB   PO1 6290  17.860   8.720  12.370
  263BOLB   GL1 6291  17.820   8.280  12.480
  263BOLB   GL2 6292  17.560   8.410  12.620
  263BOLB   C1A 6293  17.860   7.870  12.230
  263BOLB   C2A 6294  17.830   7.660  11.860
  263BOLB   C3A 6295  17.960   7.370  11.850
  263BOLB   C4A 6296  18.170   6.990  11.770
  263BOLB   C1B 6297  17.330   7.980  12.460
  263BOLB   C2B 6298  17.410   7.610  12.210
  263BOLB   C3B 6299  17.600   7.300  12.240
  263BOLB   C4B 6300  17.870   7.000  12.180
  263BOLB   NC2 6301  18.410   5.010  12.070
  263BOLB   PO2 6302  18.730   4.880  11.710
  263BOLB   GL3 6303  18.700   5.250  11.740
  263BOLB   GL4 6304  18.690   5.470  12.060
  263BOLB   C1C 6305  18.300   5.520  11.710
  263BOLB   C2C 6306  18.030   5.850  11.720
  263BOLB   C3C 6307  18.030   6.270  11.680
  263BOLB   C4C 6308  18.070   6.670  11.880
  263BOLB   C1D 6309  18.670   5.890  12.080
  263BOLB   C2D 6310  18.600   6.030  12.470
  263BOLB   C3D 6311  18.420   6.300  12.820
  263BOLB   C4D 6312  18.160   6.320  13.150
  264BOLB   NC1 6313  20.230  24.430  12.830
  264BOLB   PO1 6314  20.420  24.140  12.500
  264BOLB   GL1 6315  20.610  24.480  12.320
  264BOLB   GL2 6316  20.830  24.490  12.020
  264BOLB   C1A 6317  20.800  24.930  12.380
  264BOLB   C2A 6318  21.060  25.320  12.210
  264BOLB   C3A 6319  21.450  25.490  12.070
  264BOLB   C4A 6320  21.600  25.820  11.750
  264BOLB   C1B 6321  21.040  24.810  11.970
  264BOLB   C2B 6322  21.310  25.100  11.750
  264BOLB   C3B 6323  21.780  25.250  11.710
  264BOLB   C4B 6324  21.930  25.520  11.410
  264BOLB   NC2 6325  22.960  27.460  11.330
  264BOLB   PO2 6326  22.850  27.450  10.850
  264BOLB   GL3 6327  22.760  27.010  11.040
  264BOLB   GL4 6328  22.990  26.960  11.180
  264BOLB   C1C 6329  22.620  26.690  10.870
  264BOLB   C2C 6330  22.510  26.420  11.150
  264BOLB   C3C 6331  22.370  26.080  11.400
  264BOLB   C4C 6332  22.070  25.950  11.600
  264BOLB   C1D 6333  23.010  26.540  11.190
  264BOLB   C2D 6334  23.020  26.140  11.110
  264BOLB   C3D 6335  23.160  25.960  10.760
  264BOLB   C4D 6336  23.120  25.640  10.470
  265BOLB   NC1 6337  21.130  23.440  12.960
  265BOLB   PO1 6338  21.110  23.990  13.020
  265BOLB   GL1 6339  21.520  24.290  12.830
  265BOLB   GL2 6340  21.940  24.240  12.910
  265BOLB   C1A 6341  21.750  24.510  12.540
  265BOLB   C2A 6342  22.050  24.860  12.390
  265BOLB   C3A 6343  22.440  25.050  12.350
  265BOLB   C4A 6344  22.690  24.840  12.540
  265BOLB   C1B 6345  22.270  24.120  13.110
  265BOLB   C2B 6346  22.650  24.110  13.170
  265BOLB   C3B 6347  23.000  24.260  13.120
  265BOLB   C4B 6348  23.410  24.440  13.220
  265BOLB   NC2 6349  24.410  26.310  11.250
  265BOLB   PO2 6350  24.510  26.260  11.620
  265BOLB   GL3 6351  24.310  25.830  11.790
  265BOLB   GL4 6352  24.380  25.660  12.110
  265BOLB   C1C 6353  24.050  25.450  11.810
  265BOLB   C2C 6354  23.840  25.140  12.030
  265BOLB   C3C 6355  23.470  24.890  12.190
  265BOLB   C4C 6356  23.080  24.660  12.350
  265BOLB   C1D 6357  23.850  25.690  12.200
  265BOLB   C2D 6358  23.440  25.430  12.160
  265BOLB   C3D 6359  23.100  25.180  12.350
  265BOLB   C4D 6360  22.790  25.380  12.610
  266BOLB   NC1 6361  21.610  16.030   6.130
  266BOLB   PO1 6362  21.290  16.420   6.020
  266BOLB   GL1 6363  21.670  16.420   5.760
  266BOLB   GL2 6364  21.890  16.040   5.720
  266BOLB   C1A 6365  21.980  16.650   5.440
  266BOLB   C2A 6366  22.270  16.670   5.020
  266BOLB   C3A 6367  22.450  16.790   4.640
  266BOLB   C4A 6368  22.310  16.850   4.240
  266BOLB   C1B 6369  22.230  16.250   5.600
  266BOLB   C2B 6370  22.480  16.260   5.280
  266BOLB   C3B 6371  22.560  16.370   4.800
  266BOLB   C4B 6372  22.800  16.390   4.440
  266BOLB   NC2 6373  24.780  17.660   3.550
  266BOLB   PO2 6374  24.390  17.750   3.200
  266BOLB   GL3 6375  24.030  17.850   3.310
  266BOLB   GL4 6376  23.880  18.100   3.560
  266BOLB   C1C 6377  23.710  17.480   3.310
  266BOLB   C2C 6378  23.360  17.120   3.430
  266BOLB   C3C 6379  22.850  17.000   3.510
  266BOLB   C4C 6380  22.550  16.920   3.860
  266BOLB   C1D 6381  23.650  18.070   3.860
  266BOLB   C2D 6382  23.430  18.110   4.260
  266BOLB   C3D 6383  23.470  18.360   4.660
  266BOLB   C4D 6384  23.480  18.510   5.050
  267BOLB   NC1 6385  15.120   9.050  10.740
  267BOLB   PO1 6386  15.500   8.880  10.730
  267BOLB   GL1 6387  15.580   8.750  10.370
  267BOLB   GL2 6388  15.460   8.610   9.950
  267BOLB   C1A 6389  15.640   8.320  10.410
  267BOLB   C2A 6390  15.500   7.870  10.520
  267BOLB   C3A 6391  15.530   7.470  10.360
  267BOLB   C4A 6392  15.520   7.050  10.100
  267BOLB   C1B 6393  15.340   8.230   9.820
  267BOLB   C2B 6394  15.550   7.870   9.710
  267BOLB   C3B 6395  15.580   7.410   9.640
  267BOLB   C4B 6396  15.750   6.900   9.570
  267BOLB   NC2 6397  15.600   4.790   9.290
  267BOLB   PO2 6398  15.140   4.800   9.280
  267BOLB   GL3 6399  15.130   5.220   9.430
  267BOLB   GL4 6400  15.420   5.240   9.580
  267BOLB   C1C 6401  15.160   5.680   9.540
  267BOLB   C2C 6402  15.450   6.020   9.650
  267BOLB   C3C 6403  15.620   6.430   9.760
  267BOLB   C4C 6404  15.680   6.680  10.100
  267BOLB   C1D 6405  15.680   5.520   9.500
  267BOLB   C2D 6406  16.020   5.870   9.630
  267BOLB   C3D 6407  16.170   6.140   9.920
  267BOLB   C4D 6408  16.260   6.580  10.280
  268BOLB   NC1 6409  21.240  13.390   6.570
  268BOLB   PO1 6410  21.210  13.030   6.550
  268BOLB   GL1 6411  21.360  12.670   6.370
  268BOLB   GL2 6412  21.580  12.740   6.240
  268BOLB   C1A 6413  21.410  12.260   6.290
  268BOLB   C2A 6414  21.580  11.980   6.010
  268BOLB   C3A 6415  21.600  11.610   6.010
  268BOLB   C4A 6416  21.550  11.170   5.730
  268BOLB   C1B 6417  21.620  12.930   5.910
  268BOLB   C2B 6418  21.680  12.980   5.430
  268BOLB   C3B 6419  21.890  12.840   4.950
  268BOLB   C4B 6420  21.850  12.610   4.570
  268BOLB   NC2 6421  23.200   9.960   4.150
  268BOLB   PO2 6422  23.100   9.800   4.500
  268BOLB   GL3 6423  22.800  10.150   4.540
  268BOLB   GL4 6424  22.930  10.410   4.530
  268BOLB   C1C 6425  22.440  10.390   4.610
  268BOLB   C2C 6426  22.170  10.640   4.980
  268BOLB   C3C 6427  21.780  10.740   5.280
  268BOLB   C4C 6428  21.440  10.930   5.450
  268BOLB   C1D 6429  22.740  10.600   4.930
  268BOLB   C2D 6430  22.650  10.840   5.290
  268BOLB   C3D 6431  22.730  11.030   5.640
  268BOLB   C4D 6432  22.370  11.090   5.890
  269BOLB   NC1 6433  18.410  22.200  18.670
  269BOLB   PO1 6434  18.750  22.300  18.340
  269BOLB   GL1 6435  18.910  22.500  18.780
  269BOLB   GL2 6436  19.130  22.400  19.010
  269BOLB   C1A 6437  19.170  22.930  18.770
  269BOLB   C2A 6438  19.110  23.250  18.870
  269BOLB   C3A 6439  19.150  23.420  19.260
  269BOLB   C4A 6440  19.010  23.790  19.440
  269BOLB   C1B 6441  19.530  22.450  19.170
  269BOLB   C2B 6442  19.900  22.640  19.300
  269BOLB   C3B 6443  20.290  22.900  19.310
  269BOLB   C4B 6444  20.650  23.090  19.450
  269BOLB   NC2 6445  20.190  25.830  20.510
  269BOLB   PO2 6446  19.870  25.690  20.850
  269BOLB   GL3 6447  19.430  25.370  20.860
  269BOLB   GL4 6448  19.390  25.190  21.170
  269BOLB   C1C 6449  19.120  25.110  20.590
  269BOLB   C2C 6450  19.180  24.650  20.350
  269BOLB   C3C 6451  19.300  24.220  20.110
  269BOLB   C4C 6452  19.140  24.090  19.740
  269BOLB   C1D 6453  19.640  24.910  20.860
  269BOLB   C2D 6454  20.000  24.790  20.640
  269BOLB   C3D 6455  20.190  24.680  20.210
  269BOLB   C4D 6456  20.120  24.280  19.890
  270BOLB   NC1 6457  23.300  19.400  15.460
  270BOLB   PO1 6458  23.030  19.100  15.600
  270BOLB   GL1 6459  23.170  19.240  16.010
  270BOLB   GL2 6460  23.230  19.610  15.910
  270BOLB   C1A 6461  23.550  19.130  16.190
  270BOLB   C2A 6462  24.000  19.200  16.240
  270BOLB   C3A 6463  24.350  19.270  16.270
  270BOLB   C4A 6464  24.710  19.300  16.430
  270BOLB   C1B 6465  23.650  19.610  16.010
  270BOLB   C2B 6466  24.110  19.650  16.040
  270BOLB   C3B 6467  24.310  19.740  16.440
  270BOLB   C4B 6468  24.690  19.800  16.670
  270BOLB   NC2 6469  27.180  19.500  17.240
  270BOLB   PO2 6470  26.880  19.450  16.880
  270BOLB   GL3 6471  26.530  19.300  16.830
  270BOLB   GL4 6472  26.360  19.400  16.540
  270BOLB   C1C 6473  26.070  19.120  16.830
  270BOLB   C2C 6474  25.720  19.220  16.560
  270BOLB   C3C 6475  25.430  19.480  16.360
  270BOLB   C4C 6476  25.060  19.460  16.420
  270BOLB   C1D 6477  26.260  19.080  16.300
  270BOLB   C2D 6478  25.790  19.100  16.070
  270BOLB   C3D 6479  25.670  18.930  15.750
  270BOLB   C4D 6480  25.540  18.650  15.520
  271BOLB   NC1 6481  26.240  10.420  14.270
  271BOLB   PO1 6482  26.090  10.420  13.880
  271BOLB   GL1 6483  25.730  10.440  13.960
  271BOLB   GL2 6484  25.540  10.110  13.890
  271BOLB   C1A 6485  25.570  10.770  14.310
  271BOLB   C2A 6486  25.770  11.140  14.300
  271BOLB   C3A 6487  25.800  11.490  14.250
  271BOLB   C4A 6488  25.520  11.890  14.130
  271BOLB   C1B 6489  25.140  10.370  13.820
  271BOLB   C2B 6490  24.750  10.590  13.810
  271BOLB   C3B 6491  24.610  10.950  13.590
  271BOLB   C4B 6492  24.640  11.290  13.320
  271BOLB   NC2 6493  26.250  10.630  12.910
  271BOLB   PO2 6494  26.540  10.870  13.180
  271BOLB   GL3 6495  26.140  11.040  13.390
  271BOLB   GL4 6496  26.220  11.260  13.630
  271BOLB   C1C 6497  25.690  11.260  13.380
  271BOLB   C2C 6498  25.420  11.660  13.340
  271BOLB   C3C 6499  25.050  11.870  13.590
  271BOLB   C4C 6500  25.220  12.050  13.970
  271BOLB   C1D 6501  25.870  11.280  13.820
  271BOLB   C2D 6502  25.570  11.010  13.840
  271BOLB   C3D 6503  25.150  10.990  13.980
  271BOLB   C4D 6504  24.790  11.040  14.070
  272BOLB   NC1 6505   6.580  16.040  25.070
  272BOLB   PO1 6506   6.640  15.620  24.890
  272BOLB   GL1 6507   6.800  15.680  24.420
  272BOLB   GL2 6508   6.850  15.310  24.320
  272BOLB   C1A 6509   6.690  15.880  24.050
  272BOLB   C2A 6510   6.860  15.820  23.590
  272BOLB   C3A 6511   6.970  16.130  23.330
  272BOLB   C4A 6512   6.650  16.390  23.150
  272BOLB   C1B 6513   6.550  15.140  24.130
  272BOLB   C2B 6514   6.520  14.990  23.730
  272BOLB   C3B 6515   6.820  14.670  23.530
  272BOLB   C4B 6516   7.220  14.660  23.650
  272BOLB   NC2 6517   5.360  16.000  23.780
  272BOLB   PO2 6518   5.120  16.200  23.480
  272BOLB   GL3 6519   5.180  16.590  23.290
  272BOLB   GL4 6520   4.910  16.690  22.940
  272BOLB   C1C 6521   5.380  16.710  22.900
  272BOLB   C2C 6522   5.650  16.790  22.640
  272BOLB   C3C 6523   6.060  16.780  22.730
  272BOLB   C4C 6524   6.280  16.490  22.950
  272BOLB   C1D 6525   5.000  17.090  22.730
  272BOLB   C2D 6526   5.150  17.250  22.280
  272BOLB   C3D 6527   5.580  17.430  22.020
  272BOLB   C4D 6528   6.010  17.480  22.080
  273BOLB   NC1 6529  14.700  10.050   8.320
  273BOLB   PO1 6530  14.670   9.780   8.070
  273BOLB   GL1 6531  14.540   9.350   7.910
  273BOLB   GL2 6532  14.790   9.210   8.010
  273BOLB   C1A 6533  14.470   9.080   7.570
  273BOLB   C2A 6534  14.490   8.780   7.250
  273BOLB   C3A 6535  14.780   8.530   6.860
  273BOLB   C4A 6536  14.800   8.620   6.460
  273BOLB   C1B 6537  14.970   9.020   7.660
  273BOLB   C2B 6538  14.910   8.610   7.510
  273BOLB   C3B 6539  14.840   8.270   7.330
  273BOLB   C4B 6540  14.780   7.770   7.250
  273BOLB   NC2 6541  13.590   6.650   4.720
  273BOLB   PO2 6542  13.910   6.910   4.970
  273BOLB   GL3 6543  14.220   7.260   5.060
  273BOLB   GL4 6544  14.390   7.150   5.410
  273BOLB   C1C 6545  14.510   7.600   5.180
  273BOLB   C2C 6546  14.660   7.850   5.470
  273BOLB   C3C 6547  14.840   8.080   5.790
  273BOLB   C4C 6548  14.670   8.460   6.100
  273BOLB   C1D 6549  14.470   7.420   5.630
  273BOLB   C2D 6550  14.180   7.790   5.770
  273BOLB   C3D 6551  14.400   8.060   6.030
  273BOLB   C4D 6552  14.800   7.890   6.210
  274BOLB   NC1 6553  10.450  22.660  11.650
  274BOLB   PO1 6554  10.760  22.970  11.550
  274BOLB   GL1 6555  10.620  23.220  11.330
  274BOLB   GL2 6556  10.470  23.170  11.020
  274BOLB   C1A 6557  10.420  23.590  11.380
  274BOLB   C2A 6558  10.070  23.740  11.250
  274BOLB   C3A 6559   9.820  24.010  10.870
  274BOLB   C4A 6560   9.570  24.250  10.760
  274BOLB   C1B 6561  10.230  23.500  10.810
  274BOLB   C2B 6562  10.100  23.740  10.490
  274BOLB   C3B 6563  10.060  23.770  10.120
  274BOLB   C4B 6564   9.920  23.860   9.800
  274BOLB   NC2 6565   7.720  25.210  10.090
  274BOLB   PO2 6566   7.550  24.840  10.020
  274BOLB   GL3 6567   7.700  24.540  10.230
  274BOLB   GL4 6568   7.820  24.860  10.440
  274BOLB   C1C 6569   7.780  24.280  10.470
  274BOLB   C2C 6570   8.110  24.220  10.560
  274BOLB   C3C 6571   8.650  24.230  10.590
  274BOLB   C4C 6572   9.110  24.250  10.510
  274BOLB   C1D 6573   8.240  24.630  10.410
  274BOLB   C2D 6574   8.730  24.450  10.210
  274BOLB   C3D 6575   8.860  24.220  10.000
  274BOLB   C4D 6576   8.980  23.900   9.810
  275BOLB   NC1 6577  21.050  15.110   5.590
  275BOLB   PO1 6578  20.780  15.090   5.240
  275BOLB   GL1 6579  20.770  14.930   4.790
  275BOLB   GL2 6580  20.730  15.280   4.600
  275BOLB   C1A 6581  20.950  14.650   4.590
  275BOLB   C2A 6582  21.090  14.530   4.190
  275BOLB   C3A 6583  21.140  14.750   3.770
  275BOLB   C4A 6584  21.440  15.000   3.550
  275BOLB   C1B 6585  21.160  15.280   4.620
  275BOLB   C2B 6586  21.460  15.400   4.320
  275BOLB   C3B 6587  21.870  15.390   4.080
  275BOLB   C4B 6588  22.220  15.420   3.810
  275BOLB   NC2 6589  22.530  15.880   1.070
  275BOLB   PO2 6590  22.240  15.640   1.430
  275BOLB   GL3 6591  22.260  15.700   1.780
  275BOLB   GL4 6592  22.140  15.960   1.850
  275BOLB   C1C 6593  22.110  15.460   2.150
  275BOLB   C2C 6594  21.850  15.290   2.410
  275BOLB   C3C 6595  21.720  15.260   2.820
  275BOLB   C4C 6596  21.650  15.110   3.190
  275BOLB   C1D 6597  21.950  16.300   2.030
  275BOLB   C2D 6598  21.600  16.440   2.350
  275BOLB   C3D 6599  21.380  16.470   2.750
  275BOLB   C4D 6600  21.160  16.380   3.180
  276BOLB   NC1 6601  10.620  11.740   9.300
  276BOLB   PO1 6602  10.170  11.900   9.230
  276BOLB   GL1 6603   9.900  11.730   8.980
  276BOLB   GL2 6604   9.810  11.940   8.740
  276BOLB   C1A 6605   9.520  11.540   8.830
  276BOLB   C2A 6606   9.020  11.640   8.910
  276BOLB   C3A 6607   8.580  11.450   8.850
  276BOLB   C4A 6608   8.130  11.430   8.760
  276BOLB   C1B 6609   9.670  11.950   8.450
  276BOLB   C2B 6610   9.710  11.610   8.220
  276BOLB   C3B 6611   9.580  11.280   7.940
  276BOLB   C4B 6612   9.660  11.210   7.540
  276BOLB   NC2 6613   6.120  10.450   8.930
  276BOLB   PO2 6614   6.440  10.170   8.960
  276BOLB   GL3 6615   6.840  10.080   8.740
  276BOLB   GL4 6616   6.960   9.740   8.850
  276BOLB   C1C 6617   7.150  10.370   8.550
  276BOLB   C2C 6618   7.450  10.470   8.720
  276BOLB   C3C 6619   7.810  10.610   8.650
  276BOLB   C4C 6620   7.890  11.050   8.620
  276BOLB   C1D 6621   7.270  10.010   8.980
  276BOLB   C2D 6622   7.090  10.500   9.070
  276BOLB   C3D 6623   7.120  10.820   9.300
  276BOLB   C4D 6624   7.340  11.050   9.460
  277BOLB   NC1 6625   7.850   6.500  19.920
  277BOLB   PO1 6626   7.760   6.580  20.360
  277BOLB   GL1 6627   7.850   6.990  20.110
  277BOLB   GL2 6628   7.950   7.230  20.260
  277BOLB   C1A 6629   8.020   7.190  19.740
  277BOLB   C2A 6630   8.070   7.620  19.640
  277BOLB   C3A 6631   8.390   8.020  19.540
  277BOLB   C4A 6632   8.710   8.280  19.750
  277BOLB   C1B 6633   8.420   7.250  20.300
  277BOLB   C2B 6634   8.840   7.490  20.300
  277BOLB   C3B 6635   9.260   7.630  20.350
  277BOLB   C4B 6636   9.620   7.460  20.010
  277BOLB   NC2 6637   7.770   7.720  21.270
  277BOLB   PO2 6638   8.280   7.670  21.290
  277BOLB   GL3 6639   8.260   8.140  21.390
  277BOLB   GL4 6640   8.380   8.290  21.720
  277BOLB   C1C 6641   8.490   8.370  21.170
  277BOLB   C2C 6642   8.970   8.420  20.990
  277BOLB   C3C 6643   9.070   8.600  20.520
  277BOLB   C4C 6644   8.930   8.520  20.150
  277BOLB   C1D 6645   8.820   8.100  21.780
  277BOLB   C2D 6646   9.220   8.290  21.750
  277BOLB   C3D 6647   9.670   8.590  21.890
  277BOLB   C4D 6648  10.110   8.720  21.720
  278BOLB   NC1 6649  10.010  22.860  14.500
  278BOLB   PO1 6650   9.880  22.560  14.190
  278BOLB   GL1 6651   9.550  22.710  14.260
  278BOLB   GL2 6652   9.580  23.050  14.130
  278BOLB   C1A 6653   9.200  22.760  14.000
  278BOLB   C2A 6654   8.950  22.800  13.600
  278BOLB   C3A 6655   8.490  22.910  13.540
  278BOLB   C4A 6656   8.000  23.110  13.510
  278BOLB   C1B 6657   9.450  23.370  14.160
  278BOLB   C2B 6658   9.280  23.840  14.150
  278BOLB   C3B 6659   8.880  23.870  14.390
  278BOLB   C4B 6660   8.620  24.190  14.550
  278BOLB   NC2 6661   6.950  24.900  12.790
  278BOLB   PO2 6662   6.610  24.790  12.510
  278BOLB   GL3 6663   6.900  24.400  12.670
  278BOLB   GL4 6664   7.230  24.420  12.620
  278BOLB   C1C 6665   7.080  23.900  12.930
  278BOLB   C2C 6666   7.120  23.900  13.350
  278BOLB   C3C 6667   7.450  23.690  13.560
  278BOLB   C4C 6668   7.660  23.400  13.580
  278BOLB   C1D 6669   7.610  24.150  12.680
  278BOLB   C2D 6670   7.950  24.210  12.870
  278BOLB   C3D 6671   8.200  24.510  13.140
  278BOLB   C4D 6672   8.640  24.480  13.190
  279BOLB   NC1 6673  23.300  13.700   9.880
  279BOLB   PO1 6674  23.440  13.470  10.300
  279BOLB   GL1 6675  23.700  13.410   9.950
  279BOLB   GL2 6676  23.600  13.230   9.680
  279BOLB   C1A 6677  24.080  13.220   9.910
  279BOLB   C2A 6678  24.530  13.090   9.960
  279BOLB   C3A 6679  25.050  12.860   9.880
  279BOLB   C4A 6680  25.360  13.070   9.890
  279BOLB   C1B 6681  23.870  13.250   9.400
  279BOLB   C2B 6682  24.160  13.220   9.170
  279BOLB   C3B 6683  24.480  12.980   9.060
  279BOLB   C4B 6684  24.840  12.650   8.960
  279BOLB   NC2 6685  27.470  12.180   9.150
  279BOLB   PO2 6686  27.700  12.510   9.360
  279BOLB   GL3 6687  27.260  12.550   9.440
  279BOLB   GL4 6688  27.200  12.630   9.100
  279BOLB   C1C 6689  26.870  12.680   9.630
  279BOLB   C2C 6690  26.580  12.890   9.880
  279BOLB   C3C 6691  26.170  12.950   9.990
  279BOLB   C4C 6692  25.730  13.140   9.960
  279BOLB   C1D 6693  26.780  12.450   9.200
  279BOLB   C2D 6694  26.470  12.160   9.320
  279BOLB   C3D 6695  26.340  11.890   9.620
  279BOLB   C4D 6696  26.010  11.600   9.830
  280BOLB   NC1 6697  15.380  22.830  19.430
  280BOLB   PO1 6698  15.810  22.820  19.330
  280BOLB   GL1 6699  15.760  23.100  19.640
  280BOLB   GL2 6700  15.930  23.440  19.490
  280BOLB   C1A 6701  16.130  23.200  19.860
  280BOLB   C2A 6702  16.240  23.380  20.190
  280BOLB   C3A 6703  16.260  23.570  20.630
  280BOLB   C4A 6704  16.380  24.050  20.680
  280BOLB   C1B 6705  15.610  23.740  19.670
  280BOLB   C2B 6706  15.610  24.240  19.790
  280BOLB   C3B 6707  15.560  24.510  20.170
  280BOLB   C4B 6708  15.830  24.830  20.380
  280BOLB   NC2 6709  17.150  26.740  21.180
  280BOLB   PO2 6710  17.160  26.270  21.180
  280BOLB   GL3 6711  16.930  25.930  21.080
  280BOLB   GL4 6712  17.210  25.820  20.970
  280BOLB   C1C 6713  16.950  25.430  20.900
  280BOLB   C2C 6714  16.760  25.190  20.860
  280BOLB   C3C 6715  16.570  24.800  20.840
  280BOLB   C4C 6716  16.270  24.410  20.800
  280BOLB   C1D 6717  17.040  25.790  20.550
  280BOLB   C2D 6718  17.000  25.870  20.080
  280BOLB   C3D 6719  16.780  25.890  19.650
  280BOLB   C4D 6720  17.070  25.900  19.330
  281BOLB   NC1 6721  19.290  19.960  19.150
  281BOLB   PO1 6722  19.660  19.620  18.930
  281BOLB   GL1 6723  19.760  19.750  19.320
  281BOLB   GL2 6724  19.710  20.040  19.360
  281BOLB   C1A 6725  19.940  19.750  19.730
  281BOLB   C2A 6726  20.280  19.990  20.020
  281BOLB   C3A 6727  20.340  20.180  20.480
  281BOLB   C4A 6728  20.600  20.290  20.920
  281BOLB   C1B 6729  19.710  20.130  19.830
  281BOLB   C2B 6730  19.850  20.080  20.240
  281BOLB   C3B 6731  19.860  19.750  20.570
  281BOLB   C4B 6732  20.180  19.750  20.950
  281BOLB   NC2 6733  21.410  21.670  23.090
  281BOLB   PO2 6734  21.390  21.660  22.670
  281BOLB   GL3 6735  21.250  21.530  22.330
  281BOLB   GL4 6736  21.500  21.220  22.350
  281BOLB   C1C 6737  21.050  21.510  21.990
  281BOLB   C2C 6738  20.710  21.250  21.730
  281BOLB   C3C 6739  20.650  20.890  21.530
  281BOLB   C4C 6740  20.550  20.560  21.250
  281BOLB   C1D 6741  21.180  20.990  22.180
  281BOLB   C2D 6742  20.740  20.850  22.130
  281BOLB   C3D 6743  20.600  20.510  22.240
  281BOLB   C4D 6744  20.210  20.320  22.210
  282BOLB   NC1 6745  17.840  18.120   4.320
  282BOLB   PO1 6746  17.770  17.650   4.370
  282BOLB   GL1 6747  17.980  17.630   3.950
  282BOLB   GL2 6748  18.140  17.320   3.810
  282BOLB   C1A 6749  17.820  17.800   3.580
  282BOLB   C2A 6750  18.060  17.960   3.260
  282BOLB   C3A 6751  18.030  18.210   2.780
  282BOLB   C4A 6752  17.930  18.070   2.300
  282BOLB   C1B 6753  18.290  17.550   3.410
  282BOLB   C2B 6754  18.120  17.550   2.980
  282BOLB   C3B 6755  18.250  17.600   2.520
  282BOLB   C4B 6756  18.350  17.790   2.100
  282BOLB   NC2 6757  18.810  19.110   0.550
  282BOLB   PO2 6758  19.120  19.030   0.480
  282BOLB   GL3 6759  19.260  18.890   0.840
  282BOLB   GL4 6760  19.420  18.630   0.820
  282BOLB   C1C 6761  19.090  18.640   1.270
  282BOLB   C2C 6762  18.880  18.380   1.590
  282BOLB   C3C 6763  18.450  18.210   1.650
  282BOLB   C4C 6764  18.050  18.140   1.920
  282BOLB   C1D 6765  19.630  18.470   1.150
  282BOLB   C2D 6766  19.500  18.680   1.660
  282BOLB   C3D 6767  19.100  18.810   1.790
  282BOLB   C4D 6768  18.700  18.790   1.830
  283BOLB   NC1 6769  16.100  15.270   0.190
  283BOLB   PO1 6770  15.850  14.950  31.290
  283BOLB   GL1 6771  15.690  15.000   0.340
  283BOLB   GL2 6772  15.700  15.230   0.500
  283BOLB   C1A 6773  15.490  14.900   0.830
  283BOLB   C2A 6774  15.170  14.650   1.040
  283BOLB   C3A 6775  15.010  14.470   1.360
  283BOLB   C4A 6776  14.720  14.210   1.530
  283BOLB   C1B 6777  15.570  15.410   0.950
  283BOLB   C2B 6778  15.640  15.350   1.410
  283BOLB   C3B 6779  15.400  15.290   1.760
  283BOLB   C4B 6780  15.050  15.130   1.960
  283BOLB   NC2 6781  14.030  12.400   0.940
  283BOLB   PO2 6782  14.150  11.950   1.070
  283BOLB   GL3 6783  14.320  12.180   1.390
  283BOLB   GL4 6784  14.680  12.290   1.480
  283BOLB   C1C 6785  14.430  12.730   1.330
  283BOLB   C2C 6786  14.500  13.120   1.470
  283BOLB   C3C 6787  14.600  13.480   1.720
  283BOLB   C4C 6788  14.800  13.760   1.740
  283BOLB   C1D 6789  14.890  12.190   1.890
  283BOLB   C2D 6790  14.750  11.900   2.300
  283BOLB   C3D 6791  14.540  11.460   2.270
  283BOLB   C4D 6792  14.760  11.140   2.130
  284BOLB   NC1 6793  19.130  10.870   7.100
  284BOLB   PO1 6794  19.490  11.040   6.980
  284BOLB   GL1 6795  19.540  10.530   6.740
  284BOLB   GL2 6796  19.750  10.270   6.890
  284BOLB   C1A 6797  19.600  10.310   6.260
  284BOLB   C2A 6798  19.640   9.970   6.000
  284BOLB   C3A 6799  19.540   9.590   5.910
  284BOLB   C4A 6800  19.800   9.270   5.980
  284BOLB   C1B 6801  20.050  10.150   6.580
  284BOLB   C2B 6802  20.220   9.750   6.330
  284BOLB   C3B 6803  20.290   9.330   6.070
  284BOLB   C4B 6804  20.710   9.100   5.940
  284BOLB   NC2 6805  20.710   7.060   5.650
  284BOLB   PO2 6806  20.830   7.250   6.080
  284BOLB   GL3 6807  20.360   7.550   6.000
  284BOLB   GL4 6808  20.210   7.370   6.180
  284BOLB   C1C 6809  20.140   7.990   6.150
  284BOLB   C2C 6810  20.340   8.260   6.330
  284BOLB   C3C 6811  20.290   8.750   6.380
  284BOLB   C4C 6812  20.120   8.910   6.000
  284BOLB   C1D 6813  19.840   7.650   6.160
  284BOLB   C2D 6814  19.560   7.780   6.420
  284BOLB   C3D 6815  19.330   8.170   6.610
  284BOLB   C4D 6816  19.460   8.530   6.730
  285BOLB   NC1 6817  20.680  23.160  10.200
  285BOLB   PO1 6818  20.690  23.360   9.740
  285BOLB   GL1 6819  20.780  23.720   9.600
  285BOLB   GL2 6820  20.580  23.930   9.810
  285BOLB   C1A 6821  21.130  24.070   9.680
  285BOLB   C2A 6822  21.340  24.370   9.490
  285BOLB   C3A 6823  21.430  24.610   9.170
  285BOLB   C4A 6824  21.520  25.050   9.200
  285BOLB   C1B 6825  20.770  24.290   9.560
  285BOLB   C2B 6826  20.910  24.680   9.480
  285BOLB   C3B 6827  21.040  25.080   9.360
  285BOLB   C4B 6828  21.250  25.480   9.210
  285BOLB   NC2 6829  21.820  27.030   8.320
  285BOLB   PO2 6830  22.190  26.950   8.410
  285BOLB   GL3 6831  22.080  26.610   8.590
  285BOLB   GL4 6832  21.780  26.560   8.540
  285BOLB   C1C 6833  21.960  26.250   8.230
  285BOLB   C2C 6834  21.650  25.920   8.390
  285BOLB   C3C 6835  21.690  25.670   8.740
  285BOLB   C4C 6836  21.810  25.410   9.070
  285BOLB   C1D 6837  21.680  26.200   8.820
  285BOLB   C2D 6838  21.350  26.020   8.850
  285BOLB   C3D 6839  21.180  25.700   8.740
  285BOLB   C4D 6840  21.370  25.280   8.700
  286BOLB   NC1 6841   8.810  18.730  10.450
  286BOLB   PO1 6842   8.550  19.080  10.210
  286BOLB   GL1 6843   8.240  19.360  10.010
  286BOLB   GL2 6844   8.200  19.690  10.110
  286BOLB   C1A 6845   8.010  19.430   9.700
  286BOLB   C2A 6846   7.610  19.260   9.470
  286BOLB   C3A 6847   7.220  19.310   9.440
  286BOLB   C4A 6848   6.800  19.380   9.300
  286BOLB   C1B 6849   7.980  19.880   9.830
  286BOLB   C2B 6850   7.600  20.080   9.890
  286BOLB   C3B 6851   7.280  20.400   9.930
  286BOLB   C4B 6852   6.960  20.590  10.120
  286BOLB   NC2 6853   5.300  20.120   7.800
  286BOLB   PO2 6854   5.550  20.000   7.460
  286BOLB   GL3 6855   5.830  20.090   7.760
  286BOLB   GL4 6856   6.030  20.480   7.830
  286BOLB   C1C 6857   6.060  20.100   8.140
  286BOLB   C2C 6858   6.260  19.930   8.520
  286BOLB   C3C 6859   6.390  19.850   8.910
  286BOLB   C4C 6860   6.450  19.440   9.040
  286BOLB   C1D 6861   6.300  20.650   8.150
  286BOLB   C2D 6862   6.740  20.520   8.330
  286BOLB   C3D 6863   7.240  20.490   8.470
  286BOLB   C4D 6864   7.570  20.530   8.880
  287BOLB   NC1 6865  21.890  11.530  10.750
  287BOLB   PO1 6866  22.310  11.530  10.490
  287BOLB   GL1 6867  22.720  11.440  10.480
  287BOLB   GL2 6868  22.780  11.470  10.770
  287BOLB   C1A 6869  22.810  10.990  10.420
  287BOLB   C2A 6870  22.940  10.770  10.100
  287BOLB   C3A 6871  23.020  10.330  10.050
  287BOLB   C4A 6872  22.910   9.910  10.330
  287BOLB   C1B 6873  23.180  11.600  10.810
  287BOLB   C2B 6874  23.510  11.210  10.710
  287BOLB   C3B 6875  23.290  10.810  10.500
  287BOLB   C4B 6876  23.440  10.420  10.320
  287BOLB   NC2 6877  23.830   7.470   9.160
  287BOLB   PO2 6878  23.800   7.870   9.330
  287BOLB   GL3 6879  23.430   8.140   9.510
  287BOLB   GL4 6880  23.620   8.370   9.680
  287BOLB   C1C 6881  23.150   8.280   9.860
  287BOLB   C2C 6882  22.890   8.640   9.980
  287BOLB   C3C 6883  22.850   9.080  10.160
  287BOLB   C4C 6884  23.070   9.550  10.220
  287BOLB   C1D 6885  23.540   8.680  10.090
  287BOLB   C2D 6886  23.360   9.090  10.210
  287BOLB   C3D 6887  23.510   9.580  10.430
  287BOLB   C4D 6888  23.730  10.000  10.410
  288BOLB   NC1 6889  17.330  18.650   4.420
  288BOLB   PO1 6890  17.050  18.820   4.640
  288BOLB   GL1 6891  17.070  18.980   4.120
  288BOLB   GL2 6892  16.970  18.770   3.870
  288BOLB   C1A 6893  17.150  19.390   3.870
  288BOLB   C2A 6894  17.240  19.600   3.540
  288BOLB   C3A 6895  17.410  19.810   3.210
  288BOLB   C4A 6896  17.860  20.130   3.150
  288BOLB   C1B 6897  16.910  19.020   3.520
  288BOLB   C2B 6898  16.790  19.420   3.220
  288BOLB   C3B 6899  16.880  19.740   3.030
  288BOLB   C4B 6900  17.000  20.100   3.190
  288BOLB   NC2 6901  19.310  21.130   1.350
  288BOLB   PO2 6902  18.890  21.250   1.310
  288BOLB   GL3 6903  18.850  21.020   1.690
  288BOLB   GL4 6904  19.090  20.860   1.760
  288BOLB   C1C 6905  18.520  21.220   1.980
  288BOLB   C2C 6906  18.440  21.060   2.430
  288BOLB   C3C 6907  18.180  20.680   2.650
  288BOLB   C4C 6908  18.000  20.430   2.950
  288BOLB   C1D 6909  19.170  20.820   2.120
  288BOLB   C2D 6910  19.270  20.520   2.430
  288BOLB   C3D 6911  19.690  20.300   2.500
  288BOLB   C4D 6912  20.120  20.280   2.320
  289BOLB   NC1 6913  21.720  16.000  17.230
  289BOLB   PO1 6914  21.810  16.380  17.040
  289BOLB   GL1 6915  22.170  16.180  17.380
  289BOLB   GL2 6916  22.420  16.180  17.120
  289BOLB   C1A 6917  22.490  16.020  17.770
  289BOLB   C2A 6918  22.710  15.870  18.040
  289BOLB   C3A 6919  22.920  15.720  18.280
  289BOLB   C4A 6920  23.110  15.430  18.560
  289BOLB   C1B 6921  22.800  16.050  17.340
  289BOLB   C2B 6922  23.170  16.160  17.530
  289BOLB   C3B 6923  23.590  16.330  17.640
  289BOLB   C4B 6924  23.910  16.590  17.790
  289BOLB   NC2 6925  25.450  15.110  19.930
  289BOLB   PO2 6926  25.310  15.430  19.610
  289BOLB   GL3 6927  24.950  15.300  19.330
  289BOLB   GL4 6928  25.100  15.250  19.080
  289BOLB   C1C 6929  24.660  15.670  19.120
  289BOLB   C2C 6930  24.250  15.530  18.870
  289BOLB   C3C 6931  23.970  15.530  18.500
  289BOLB   C4C 6932  23.560  15.300  18.610
  289BOLB   C1D 6933  24.710  15.200  18.910
  289BOLB   C2D 6934  24.420  15.270  18.480
  289BOLB   C3D 6935  24.210  15.330  18.070
  289BOLB   C4D 6936  23.820  15.090  18.240
  290BOLB   NC1 6937  18.170  24.780  12.840
  290BOLB   PO1 6938  18.570  24.920  12.610
  290BOLB   GL1 6939  18.660  25.350  12.600
  290BOLB   GL2 6940  18.490  25.610  12.770
  290BOLB   C1A 6941  18.910  25.650  12.520
  290BOLB   C2A 6942  19.200  26.010  12.710
  290BOLB   C3A 6943  19.440  26.420  12.510
  290BOLB   C4A 6944  19.750  26.810  12.660
  290BOLB   C1B 6945  18.510  26.080  12.770
  290BOLB   C2B 6946  18.600  26.570  12.600
  290BOLB   C3B 6947  18.570  26.960  12.830
  290BOLB   C4B 6948  18.390  27.340  12.830
  290BOLB   NC2 6949  20.600  29.120  13.540
  290BOLB   PO2 6950  20.740  28.970  13.210
  290BOLB   GL3 6951  20.460  28.640  13.360
  290BOLB   GL4 6952  20.180  28.780  13.460
  290BOLB   C1C 6953  20.200  28.270  13.170
  290BOLB   C2C 6954  20.210  27.780  13.150
  290BOLB   C3C 6955  19.980  27.400  13.170
  290BOLB   C4C 6956  19.800  27.040  13.060
  290BOLB   C1D 6957  19.830  28.540  13.330
  290BOLB   C2D 6958  19.660  28.150  13.210
  290BOLB   C3D 6959  19.710  27.790  12.930
  290BOLB   C4D 6960  20.080  27.560  12.690
  291BOLB   NC1 6961   9.650  17.660   8.800
  291BOLB   PO1 6962   9.480  17.650   8.250
  291BOLB   GL1 6963   9.010  17.780   7.880
  291BOLB   GL2 6964   8.930  17.530   7.650
  291BOLB   C1A 6965   8.610  17.920   7.650
  291BOLB   C2A 6966   8.170  17.980   7.550
  291BOLB   C3A 6967   7.710  18.030   7.560
  291BOLB   C4A 6968   7.390  17.910   7.810
  291BOLB   C1B 6969   8.650  17.450   7.360
  291BOLB   C2B 6970   8.400  17.760   7.120
  291BOLB   C3B 6971   8.000  17.940   6.950
  291BOLB   C4B 6972   7.710  18.000   6.760
  291BOLB   NC2 6973   5.000  17.810   7.120
  291BOLB   PO2 6974   5.000  17.440   7.450
  291BOLB   GL3 6975   5.400  17.500   7.700
  291BOLB   GL4 6976   5.290  17.550   8.070
  291BOLB   C1C 6977   5.840  17.310   7.720
  291BOLB   C2C 6978   6.190  17.490   7.900
  291BOLB   C3C 6979   6.540  17.680   8.090
  291BOLB   C4C 6980   6.980  17.750   8.030
  291BOLB   C1D 6981   5.640  17.440   8.170
  291BOLB   C2D 6982   6.000  17.730   8.370
  291BOLB   C3D 6983   6.360  17.890   8.550
  291BOLB   C4D 6984   6.690  17.730   8.680
  292BOLB   NC1 6985  21.080  14.780   6.520
  292BOLB   PO1 6986  21.330  14.750   6.000
  292BOLB   GL1 6987  21.530  14.910   5.610
  292BOLB   GL2 6988  21.510  15.130   5.410
  292BOLB   C1A 6989  21.840  14.550   5.610
  292BOLB   C2A 6990  22.180  14.250   5.440
  292BOLB   C3A 6991  22.260  13.800   5.300
  292BOLB   C4A 6992  22.380  13.710   4.960
  292BOLB   C1B 6993  21.700  15.050   4.920
  292BOLB   C2B 6994  21.880  15.180   4.540
  292BOLB   C3B 6995  22.050  14.930   4.150
  292BOLB   C4B 6996  22.230  14.630   3.940
  292BOLB   NC2 6997  24.450  12.580   4.200
  292BOLB   PO2 6998  24.190  12.470   3.910
  292BOLB   GL3 6999  23.860  12.720   3.920
  292BOLB   GL4 7000  23.920  13.040   3.850
  292BOLB   C1C 7001  23.520  12.890   4.080
  292BOLB   C2C 7002  23.330  12.980   4.420
  292BOLB   C3C 7003  23.010  13.090   4.650
  292BOLB   C4C 7004  22.810  13.500   4.820
  292BOLB   C1D 7005  23.630  13.360   3.960
  292BOLB   C2D 7006  23.390  13.490   4.290
  292BOLB   C3D 7007  23.010  13.800   4.400
  292BOLB   C4D 7008  22.870  14.130   4.200
  293BOLB   NC1 7009  23.610  13.890  10.530
  293BOLB   PO1 7010  23.500  14.310  10.540
  293BOLB   GL1 7011  23.850  14.460  10.320
  293BOLB   GL2 7012  23.990  14.220  10.400
  293BOLB   C1A 7013  24.310  14.610  10.390
  293BOLB   C2A 7014  24.750  14.530  10.320
  293BOLB   C3A 7015  25.240  14.580  10.280
  293BOLB   C4A 7016  25.590  14.410   9.970
  293BOLB   C1B 7017  24.400  14.100  10.340
  293BOLB   C2B 7018  24.810  13.940  10.240
  293BOLB   C3B 7019  25.330  14.070  10.390
  293BOLB   C4B 7020  25.730  14.170  10.480
  293BOLB   NC2 7021  27.330  12.940   8.740
  293BOLB   PO2 7022  27.120  13.400   8.580
  293BOLB   GL3 7023  27.020  13.760   8.880
  293BOLB   GL4 7024  26.950  14.040   8.850
  293BOLB   C1C 7025  26.650  13.760   9.180
  293BOLB   C2C 7026  26.300  13.920   9.270
  293BOLB   C3C 7027  25.830  13.940   9.540
  293BOLB   C4C 7028  25.620  14.060   9.930
  293BOLB   C1D 7029  26.580  14.110   8.860
  293BOLB   C2D 7030  26.280  14.250   8.690
  293BOLB   C3D 7031  25.850  14.460   8.580
  293BOLB   C4D 7032  25.530  14.170   8.490
  294BOLB   NC1 7033   9.090   6.280   9.570
  294BOLB   PO1 7034   9.510   6.430   9.910
  294BOLB   GL1 7035   9.950   6.720   9.980
  294BOLB   GL2 7036   9.870   7.150   9.820
  294BOLB   C1A 7037  10.090   7.040  10.290
  294BOLB   C2A 7038  10.350   7.370  10.480
  294BOLB   C3A 7039  10.570   7.630  10.790
  294BOLB   C4A 7040  10.720   7.720  11.220
  294BOLB   C1B 7041  10.220   6.940   9.630
  294BOLB   C2B 7042  10.710   6.960   9.590
  294BOLB   C3B 7043  11.020   7.150   9.380
  294BOLB   C4B 7044  11.310   7.410   9.100
  294BOLB   NC2 7045  10.810   5.190  11.480
  294BOLB   PO2 7046  10.670   5.250  11.850
  294BOLB   GL3 7047  10.600   5.670  11.670
  294BOLB   GL4 7048  10.420   5.840  11.570
  294BOLB   C1C 7049  10.710   6.240  11.830
  294BOLB   C2C 7050  10.760   6.690  11.740
  294BOLB   C3C 7051  10.870   7.130  11.620
  294BOLB   C4C 7052  10.900   7.520  11.550
  294BOLB   C1D 7053  10.720   6.140  11.310
  294BOLB   C2D 7054  10.830   6.580  11.200
  294BOLB   C3D 7055  11.230   6.840  11.230
  294BOLB   C4D 7056  11.640   6.900  11.400
  295BOLB   NC1 7057  17.630  23.650  17.490
  295BOLB   PO1 7058  17.230  23.820  17.610
  295BOLB   GL1 7059  17.170  24.020  17.990
  295BOLB   GL2 7060  16.930  23.950  18.210
  295BOLB   C1A 7061  17.160  24.330  18.350
  295BOLB   C2A 7062  17.370  24.380  18.780
  295BOLB   C3A 7063  17.470  24.510  19.170
  295BOLB   C4A 7064  17.600  24.780  19.570
  295BOLB   C1B 7065  17.280  23.900  18.640
  295BOLB   C2B 7066  17.430  23.950  19.080
  295BOLB   C3B 7067  17.330  24.120  19.530
  295BOLB   C4B 7068  17.280  24.340  19.880
  295BOLB   NC2 7069  18.910  25.420  21.370
  295BOLB   PO2 7070  18.570  25.710  21.490
  295BOLB   GL3 7071  18.320  25.610  21.100
  295BOLB   GL4 7072  18.270  25.750  20.780
  295BOLB   C1C 7073  18.320  25.250  20.850
  295BOLB   C2C 7074  17.910  25.090  20.590
  295BOLB   C3C 7075  17.580  25.100  20.380
  295BOLB   C4C 7076  17.440  24.830  20.010
  295BOLB   C1D 7077  17.950  25.560  20.700
  295BOLB   C2D 7078  17.570  25.580  20.530
  295BOLB   C3D 7079  17.160  25.330  20.430
  295BOLB   C4D 7080  16.840  25.050  20.340
  296BOLB   NC1 7081  11.570  28.490  15.370
  296BOLB   PO1 7082  11.850  28.650  15.010
  296BOLB   GL1 7083  11.980  28.230  15.160
  296BOLB   GL2 7084  11.960  28.120  15.500
  296BOLB   C1A 7085  11.980  27.750  14.910
  296BOLB   C2A 7086  11.970  27.390  14.660
  296BOLB   C3A 7087  12.190  27.200  14.250
  296BOLB   C4A 7088  12.160  27.040  13.780
  296BOLB   C1B 7089  11.920  27.770  15.690
  296BOLB   C2B 7090  12.020  27.380  15.500
  296BOLB   C3B 7091  11.710  27.040  15.470
  296BOLB   C4B 7092  11.350  26.950  15.700
  296BOLB   NC2 7093  11.670  28.490  12.350
  296BOLB   PO2 7094  11.640  28.560  12.800
  296BOLB   GL3 7095  11.680  28.080  12.840
  296BOLB   GL4 7096  11.400  27.950  12.860
  296BOLB   C1C 7097  11.760  27.690  13.090
  296BOLB   C2C 7098  11.770  27.210  12.920
  296BOLB   C3C 7099  11.980  26.930  13.090
  296BOLB   C4C 7100  12.170  26.830  13.420
  296BOLB   C1D 7101  11.380  27.540  12.840
  296BOLB   C2D 7102  11.240  27.020  12.960
  296BOLB   C3D 7103  11.490  26.640  12.850
  296BOLB   C4D 7104  11.710  26.270  13.040
  297BOLB   NC1 7105  16.590  19.580  20.460
  297BOLB   PO1 7106  16.660  19.900  20.760
  297BOLB   GL1 7107  16.780  19.950  21.110
  297BOLB   GL2 7108  16.810  19.690  21.350
  297BOLB   C1A 7109  17.020  20.110  21.490
  297BOLB   C2A 7110  17.140  20.040  21.960
  297BOLB   C3A 7111  17.140  19.890  22.270
  297BOLB   C4A 7112  17.230  19.590  22.630
  297BOLB   C1B 7113  16.580  19.980  21.610
  297BOLB   C2B 7114  16.510  20.250  21.970
  297BOLB   C3B 7115  16.320  20.510  22.300
  297BOLB   C4B 7116  16.130  20.830  22.390
  297BOLB   NC2 7117  18.120  20.380  24.660
  297BOLB   PO2 7118  18.260  20.020  24.670
  297BOLB   GL3 7119  18.080  19.620  24.480
  297BOLB   GL4 7120  18.260  19.560  24.270
  297BOLB   C1C 7121  17.810  19.380  24.280
  297BOLB   C2C 7122  17.690  19.370  23.830
  297BOLB   C3C 7123  17.500  19.380  23.400
  297BOLB   C4C 7124  17.370  19.310  22.890
  297BOLB   C1D 7125  18.350  19.270  23.850
  297BOLB   C2D 7126  18.070  19.290  23.560
  297BOLB   C3D 7127  18.250  19.070  23.130
  297BOLB   C4D 7128  18.090  18.900  22.750
  298BOLB   NC1 7129  19.490  21.320   7.310
  298BOLB   PO1 7130  19.300  21.650   7.040
  298BOLB   GL1 7131  19.490  21.820   6.620
  298BOLB   GL2 7132  19.780  21.630   6.410
  298BOLB   C1A 7133  19.360  22.290   6.460
  298BOLB   C2A 7134  19.470  22.690   6.280
  298BOLB   C3A 7135  19.610  22.940   5.890
  298BOLB   C4A 7136  19.530  23.020   5.520
  298BOLB   C1B 7137  19.530  21.940   6.140
  298BOLB   C2B 7138  19.390  22.230   5.910
  298BOLB   C3B 7139  19.290  22.440   5.530
  298BOLB   C4B 7140  19.010  22.350   5.230
  298BOLB   NC2 7141  18.970  24.710   4.220
  298BOLB   PO2 7142  19.420  24.570   4.070
  298BOLB   GL3 7143  19.220  24.190   4.150
  298BOLB   GL4 7144  19.410  23.840   4.170
  298BOLB   C1C 7145  18.900  24.040   4.370
  298BOLB   C2C 7146  19.100  24.000   4.830
  298BOLB   C3C 7147  19.370  23.590   4.960
  298BOLB   C4C 7148  19.540  23.190   5.150
  298BOLB   C1D 7149  19.500  23.740   4.500
  298BOLB   C2D 7150  19.900  23.730   4.750
  298BOLB   C3D 7151  19.970  23.550   5.110
  298BOLB   C4D 7152  20.110  23.230   5.400
  299BOLB   NC1 7153  10.240  11.040   9.520
  299BOLB   PO1 7154  10.150  11.450   9.390
  299BOLB   GL1 7155   9.830  11.230   9.340
  299BOLB   GL2 7156   9.610  11.390   9.490
  299BOLB   C1A 7157   9.610  10.880   9.310
  299BOLB   C2A 7158   9.200  10.850   9.290
  299BOLB   C3A 7159   8.690  11.040   9.100
  299BOLB   C4A 7160   8.520  11.000   8.730
  299BOLB   C1B 7161   9.240  11.370   9.250
  299BOLB   C2B 7162   9.210  11.210   8.890
  299BOLB   C3B 7163   8.880  11.300   8.480
  299BOLB   C4B 7164   8.540  11.050   8.210
  299BOLB   NC2 7165   6.610  10.050   8.250
  299BOLB   PO2 7166   6.650   9.750   7.920
  299BOLB   GL3 7167   6.930   9.920   7.920
  299BOLB   GL4 7168   7.070   9.850   8.270
  299BOLB   C1C 7169   7.180  10.340   8.030
  299BOLB   C2C 7170   7.560  10.440   8.200
  299BOLB   C3C 7171   8.000  10.570   8.210
  299BOLB   C4C 7172   8.290  10.780   8.520
  299BOLB   C1D 7173   7.350   9.900   8.500
  299BOLB   C2D 7174   7.740  10.100   8.560
  299BOLB   C3D 7175   8.170  10.120   8.590
  299BOLB   C4D 7176   8.600  10.180   8.800
  300BOLB   NC1 7177  21.870  14.180   6.590
  300BOLB   PO1 7178  21.930  14.570   6.550
  300BOLB   GL1 7179  21.970  14.610   6.140
  300BOLB   GL2 7180  22.000  14.850   6.000
  300BOLB   C1A 7181  22.310  14.250   5.990
  300BOLB   C2A 7182  22.740  14.180   6.040
  300BOLB   C3A 7183  23.240  14.010   5.910
  300BOLB   C4A 7184  23.610  13.670   5.950
  300BOLB   C1B 7185  22.280  14.720   5.760
  300BOLB   C2B 7186  22.680  14.560   5.690
  300BOLB   C3B 7187  22.880  14.880   5.520
  300BOLB   C4B 7188  22.770  14.910   5.100
  300BOLB   NC2 7189  24.930  11.940   4.820
  300BOLB   PO2 7190  24.720  12.290   4.920
  300BOLB   GL3 7191  24.480  12.520   5.070
  300BOLB   GL4 7192  24.530  12.820   5.170
  300BOLB   C1C 7193  24.060  12.540   5.170
  300BOLB   C2C 7194  23.870  12.910   5.190
  300BOLB   C3C 7195  23.710  13.100   5.460
  300BOLB   C4C 7196  23.840  13.450   5.700
  300BOLB   C1D 7197  24.230  13.060   5.540
  300BOLB   C2D 7198  24.030  13.020   5.840
  300BOLB   C3D 7199  23.830  12.890   6.230
  300BOLB   C4D 7200  23.470  13.010   6.550
  301BOLB   NC1 7201  17.900  10.030   8.520
  301BOLB   PO1 7202  18.070   9.870   8.170
  301BOLB   GL1 7203  18.260   9.430   8.040
  301BOLB   GL2 7204  18.050   9.240   8.190
  301BOLB   C1A 7205  18.350   9.000   7.810
  301BOLB   C2A 7206  18.610   8.600   7.590
  301BOLB   C3A 7207  18.800   8.280   7.440
  301BOLB   C4A 7208  19.130   8.220   7.540
  301BOLB   C1B 7209  17.920   8.800   8.210
  301BOLB   C2B 7210  17.640   8.490   8.090
  301BOLB   C3B 7211  17.510   8.260   7.780
  301BOLB   C4B 7212  17.580   7.830   8.010
  301BOLB   NC2 7213  21.190   6.740   7.650
  301BOLB   PO2 7214  20.850   6.730   7.280
  301BOLB   GL3 7215  20.630   7.150   7.240
  301BOLB   GL4 7216  20.560   7.410   7.060
  301BOLB   C1C 7217  20.570   7.510   7.520
  301BOLB   C2C 7218  20.360   7.890   7.640
  301BOLB   C3C 7219  20.000   8.200   7.530
  301BOLB   C4C 7220  19.540   8.150   7.450
  301BOLB   C1D 7221  20.290   7.820   7.160
  301BOLB   C2D 7222  20.000   8.180   7.050
  301BOLB   C3D 7223  19.850   8.560   7.030
  301BOLB   C4D 7224  19.770   8.920   7.160
  302BOLB   NC1 7225  18.890  21.830   6.810
  302BOLB   PO1 7226  18.490  21.890   6.660
  302BOLB   GL1 7227  18.440  22.280   6.500
  302BOLB   GL2 7228  18.730  22.370   6.510
  302BOLB   C1A 7229  18.500  22.570   6.140
  302BOLB   C2A 7230  18.680  22.940   6.030
  302BOLB   C3A 7231  18.750  23.170   5.670
  302BOLB   C4A 7232  19.070  23.530   5.540
  302BOLB   C1B 7233  19.020  22.660   6.480
  302BOLB   C2B 7234  19.290  22.790   6.770
  302BOLB   C3B 7235  19.710  22.660   6.680
  302BOLB   C4B 7236  19.980  22.600   6.310
  302BOLB   NC2 7237  20.190  25.380   4.660
  302BOLB   PO2 7238  20.180  25.110   4.250
  302BOLB   GL3 7239  20.130  24.840   4.530
  302BOLB   GL4 7240  20.340  24.830   4.830
  302BOLB   C1C 7241  19.870  24.550   4.710
  302BOLB   C2C 7242  19.520  24.620   5.070
  302BOLB   C3C 7243  19.230  24.280   5.180
  302BOLB   C4C 7244  19.060  23.890   5.340
  302BOLB   C1D 7245  20.100  24.640   5.190
  302BOLB   C2D 7246  19.890  24.380   5.360
  302BOLB   C3D 7247  19.970  24.020   5.590
  302BOLB   C4D 7248  20.020  23.680   5.930
  303BOLB   NC1 7249   7.830  26.040  15.650
  303BOLB   PO1 7250   7.670  25.810  15.970
  303BOLB   GL1 7251   7.800  25.380  16.070
  303BOLB   GL2 7252   8.020  25.460  15.750
  303BOLB   C1A 7253   7.930  25.030  16.090
  303BOLB   C2A 7254   8.380  24.800  16.210
  303BOLB   C3A 7255   8.540  24.640  16.610
  303BOLB   C4A 7256   8.860  24.720  16.880
  303BOLB   C1B 7257   8.240  25.130  15.660
  303BOLB   C2B 7258   8.520  24.730  15.710
  303BOLB   C3B 7259   8.850  24.430  15.870
  303BOLB   C4B 7260   9.130  24.070  15.980
  303BOLB   NC2 7261   8.780  27.120  17.350
  303BOLB   PO2 7262   8.570  26.820  17.100
  303BOLB   GL3 7263   8.820  26.500  17.030
  303BOLB   GL4 7264   8.730  26.330  17.280
  303BOLB   C1C 7265   8.840  26.050  16.820
  303BOLB   C2C 7266   9.130  25.750  16.680
  303BOLB   C3C 7267   9.180  25.300  16.480
  303BOLB   C4C 7268   9.190  24.870  16.720
  303BOLB   C1D 7269   8.840  25.970  17.320
  303BOLB   C2D 7270   8.980  25.590  17.170
  303BOLB   C3D 7271   9.060  25.230  17.040
  303BOLB   C4D 7272   9.290  25.120  17.460
  304BOLB   NC1 7273  15.660   9.010  11.150
  304BOLB   PO1 7274  15.300   8.790  11.210
  304BOLB   GL1 7275  15.340   8.410  11.110
  304BOLB   GL2 7276  15.330   8.430  10.800
  304BOLB   C1A 7277  15.220   8.000  11.130
  304BOLB   C2A 7278  14.940   7.690  11.020
  304BOLB   C3A 7279  15.020   7.330  10.930
  304BOLB   C4A 7280  14.620   7.060  10.820
  304BOLB   C1B 7281  14.990   8.100  10.670
  304BOLB   C2B 7282  14.930   7.720  10.490
  304BOLB   C3B 7283  14.870   7.340  10.470
  304BOLB   C4B 7284  15.030   6.890  10.200
  304BOLB   NC2 7285  14.520   4.560  10.290
  304BOLB   PO2 7286  14.520   4.850  10.600
  304BOLB   GL3 7287  14.530   5.300  10.530
  304BOLB   GL4 7288  14.860   5.440  10.500
  304BOLB   C1C 7289  14.390   5.690  10.700
  304BOLB   C2C 7290  14.440   6.120  10.570
  304BOLB   C3C 7291  14.260   6.580  10.420
  304BOLB   C4C 7292  14.400   6.950  10.560
  304BOLB   C1D 7293  15.030   5.640  10.900
  304BOLB   C2D 7294  15.400   5.880  11.040
  304BOLB   C3D 7295  15.510   6.230  11.100
  304BOLB   C4D 7296  15.430   6.550  11.330
  305BOLB   NC1 7297  24.480  23.340   4.740
  305BOLB   PO1 7298  24.230  23.080   5.010
  305BOLB   GL1 7299  23.850  22.980   5.300
  305BOLB   GL2 7300  23.780  23.190   5.600
  305BOLB   C1A 7301  23.360  23.030   5.350
  305BOLB   C2A 7302  23.130  22.830   5.720
  305BOLB   C3A 7303  22.810  22.660   5.820
  305BOLB   C4A 7304  22.500  22.550   5.620
  305BOLB   C1B 7305  23.630  22.810   5.910
  305BOLB   C2B 7306  23.640  22.470   6.140
  305BOLB   C3B 7307  23.570  22.310   6.440
  305BOLB   C4B 7308  23.270  21.900   6.580
  305BOLB   NC2 7309  22.300  23.980   4.030
  305BOLB   PO2 7310  22.100  23.690   3.800
  305BOLB   GL3 7311  22.120  23.240   3.870
  305BOLB   GL4 7312  22.190  23.370   4.220
  305BOLB   C1C 7313  22.200  22.820   4.170
  305BOLB   C2C 7314  22.210  22.550   4.550
  305BOLB   C3C 7315  22.140  22.440   5.040
  305BOLB   C4C 7316  22.160  22.320   5.380
  305BOLB   C1D 7317  22.350  23.090   4.560
  305BOLB   C2D 7318  22.230  22.990   5.010
  305BOLB   C3D 7319  22.310  22.960   5.420
  305BOLB   C4D 7320  22.700  23.170   5.610
  306BOLB   NC1 7321   9.640  13.820   8.860
  306BOLB   PO1 7322   9.580  13.340   9.010
  306BOLB   GL1 7323   9.190  13.080   8.990
  306BOLB   GL2 7324   8.920  13.140   8.880
  306BOLB   C1A 7325   8.830  12.630   8.890
  306BOLB   C2A 7326   8.590  12.460   8.620
  306BOLB   C3A 7327   8.550  12.270   8.140
  306BOLB   C4A 7328   8.280  11.970   8.050
  306BOLB   C1B 7329   8.450  12.920   8.920
  306BOLB   C2B 7330   8.150  12.670   8.770
  306BOLB   C3B 7331   7.810  12.770   9.030
  306BOLB   C4B 7332   7.530  13.140   9.180
  306BOLB   NC2 7333   6.170  11.610   7.710
  306BOLB   PO2 7334   5.900  11.230   7.730
  306BOLB   GL3 7335   6.340  11.150   7.930
  306BOLB   GL4 7336   6.420  10.830   8.100
  306BOLB   C1C 7337   6.820  11.240   8.020
  306BOLB   C2C 7338   7.180  11.290   8.170
  306BOLB   C3C 7339   7.540  11.450   8.000
  306BOLB   C4C 7340   7.950  11.690   7.930
  306BOLB   C1D 7341   6.830  10.750   8.310
  306BOLB   C2D 7342   7.270  10.860   8.380
  306BOLB   C3D 7343   7.690  10.930   8.180
  306BOLB   C4D 7344   7.970  11.200   8.010
  307BOLB   NC1 7345  20.020  12.970   5.980
  307BOLB   PO1 7346  19.860  12.570   6.240
  307BOLB   GL1 7347  20.000  12.360   5.790
  307BOLB   GL2 7348  19.760  12.160   5.560
  307BOLB   C1A 7349  20.300  12.230   5.480
  307BOLB   C2A 7350  20.650  12.170   5.170
  307BOLB   C3A 7351  21.080  12.280   5.040
  307BOLB   C4A 7352  21.380  12.260   4.690
  307BOLB   C1B 7353  19.920  12.010   5.270
  307BOLB   C2B 7354  20.350  11.830   5.080
  307BOLB   C3B 7355  20.640  11.640   4.850
  307BOLB   C4B 7356  20.790  11.380   4.460
  307BOLB   NC2 7357  22.480  12.000   2.960
  307BOLB   PO2 7358  22.830  11.810   3.300
  307BOLB   GL3 7359  22.880  11.840   3.710
  307BOLB   GL4 7360  22.880  11.600   3.980
  307BOLB   C1C 7361  22.840  12.080   4.110
  307BOLB   C2C 7362  22.470  12.280   4.260
  307BOLB   C3C 7363  21.990  12.320   4.200
  307BOLB   C4C 7364  21.630  12.130   4.340
  307BOLB   C1D 7365  22.530  11.690   4.080
  307BOLB   C2D 7366  22.120  11.800   4.300
  307BOLB   C3D 7367  21.960  12.030   4.680
  307BOLB   C4D 7368  21.610  11.840   5.030
  308BOLB   NC1 7369  16.960   8.480   1.810
  308BOLB   PO1 7370  16.880   8.730   2.150
  308BOLB   GL1 7371  16.880   9.150   2.410
  308BOLB   GL2 7372  16.740   9.100   2.710
  308BOLB   C1A 7373  16.810   9.550   2.540
  308BOLB   C2A 7374  16.540   9.740   2.720
  308BOLB   C3A 7375  16.230  10.100   3.000
  308BOLB   C4A 7376  16.060  10.470   3.030
  308BOLB   C1B 7377  16.500   9.340   3.020
  308BOLB   C2B 7378  16.160   9.640   3.160
  308BOLB   C3B 7379  16.250   9.880   3.450
  308BOLB   C4B 7380  16.560  10.060   3.780
  308BOLB   NC2 7381  16.650  10.810   1.100
  308BOLB   PO2 7382  16.550  10.440   1.310
  308BOLB   GL3 7383  16.590  10.770   1.610
  308BOLB   GL4 7384  16.800  11.080   1.590
  308BOLB   C1C 7385  16.600  11.050   2.020
  308BOLB   C2C 7386  16.710  11.110   2.420
  308BOLB   C3C 7387  16.560  11.120   2.800
  308BOLB   C4C 7388  16.270  10.850   2.980
  308BOLB   C1D 7389  16.690  11.520   1.680
  308BOLB   C2D 7390  16.470  11.820   2.060
  308BOLB   C3D 7391  16.790  12.120   2.170
  308BOLB   C4D 7392  16.740  12.470   2.400
  309BOLB   NC1 7393  16.400  21.900   7.580
  309BOLB   PO1 7394  16.340  22.390   7.490
  309BOLB   GL1 7395  16.170  22.750   7.420
  309BOLB   GL2 7396  16.350  23.020   7.200
  309BOLB   C1A 7397  15.860  22.890   7.080
  309BOLB   C2A 7398  15.760  23.310   7.020
  309BOLB   C3A 7399  15.700  23.680   6.730
  309BOLB   C4A 7400  15.620  23.920   6.540
  309BOLB   C1B 7401  16.320  23.190   6.890
  309BOLB   C2B 7402  16.160  23.380   6.560
  309BOLB   C3B 7403  15.820  23.510   6.250
  309BOLB   C4B 7404  15.850  23.950   6.000
  309BOLB   NC2 7405  15.150  25.580   4.680
  309BOLB   PO2 7406  15.210  25.270   4.450
  309BOLB   GL3 7407  15.280  25.110   4.860
  309BOLB   GL4 7408  15.510  24.850   4.730
  309BOLB   C1C 7409  15.220  24.870   5.200
  309BOLB   C2C 7410  15.500  24.540   5.360
  309BOLB   C3C 7411  15.590  24.280   5.750
  309BOLB   C4C 7412  15.510  24.240   6.200
  309BOLB   C1D 7413  15.770  24.840   5.040
  309BOLB   C2D 7414  15.930  24.790   5.300
  309BOLB   C3D 7415  16.060  24.580   5.650
  309BOLB   C4D 7416  16.200  24.290   6.140
  310BOLB   NC1 7417  15.520   9.330  14.040
  310BOLB   PO1 7418  15.180   9.080  14.140
  310BOLB   GL1 7419  15.080   8.630  14.250
  310BOLB   GL2 7420  14.790   8.460  14.060
  310BOLB   C1A 7421  15.160   8.210  14.170
  310BOLB   C2A 7422  15.240   7.860  14.150
  310BOLB   C3A 7423  15.190   7.440  14.340
  310BOLB   C4A 7424  15.160   7.040  14.300
  310BOLB   C1B 7425  14.720   7.990  14.090
  310BOLB   C2B 7426  14.790   7.580  13.950
  310BOLB   C3B 7427  15.130   7.330  13.820
  310BOLB   C4B 7428  15.430   7.070  13.760
  310BOLB   NC2 7429  16.610   5.120  14.350
  310BOLB   PO2 7430  16.360   4.980  14.670
  310BOLB   GL3 7431  16.140   5.410  14.560
  310BOLB   GL4 7432  16.200   5.480  14.930
  310BOLB   C1C 7433  16.000   5.670  14.310
  310BOLB   C2C 7434  15.840   6.060  14.030
  310BOLB   C3C 7435  15.630   6.380  14.040
  310BOLB   C4C 7436  15.430   6.780  14.180
  310BOLB   C1D 7437  16.240   5.830  14.800
  310BOLB   C2D 7438  16.400   6.310  14.680
  310BOLB   C3D 7439  16.610   6.470  14.190
  310BOLB   C4D 7440  16.770   6.740  13.790
  311BOLB   NC1 7441  17.970  25.040  21.730
  311BOLB   PO1 7442  17.640  25.140  22.010
  311BOLB   GL1 7443  17.370  24.980  21.660
  311BOLB   GL2 7444  17.530  25.030  21.340
  311BOLB   C1A 7445  17.210  24.590  21.500
  311BOLB   C2A 7446  17.020  24.200  21.460
  311BOLB   C3A 7447  17.070  23.720  21.520
  311BOLB   C4A 7448  17.190  23.320  21.560
  311BOLB   C1B 7449  17.530  24.690  20.970
  311BOLB   C2B 7450  17.650  24.630  20.590
  311BOLB   C3B 7451  17.930  24.510  20.160
  311BOLB   C4B 7452  18.250  24.260  19.940
  311BOLB   NC2 7453  17.380  23.430  23.560
  311BOLB   PO2 7454  17.260  23.560  23.160
  311BOLB   GL3 7455  17.160  23.390  22.780
  311BOLB   GL4 7456  16.950  23.110  22.860
  311BOLB   C1C 7457  16.990  23.450  22.440
  311BOLB   C2C 7458  16.790  23.150  22.210
  311BOLB   C3C 7459  16.740  23.080  21.850
  311BOLB   C4C 7460  16.940  23.000  21.550
  311BOLB   C1D 7461  16.590  23.160  22.670
  311BOLB   C2D 7462  16.390  23.350  22.380
  311BOLB   C3D 7463  16.270  23.420  21.950
  311BOLB   C4D 7464  16.160  23.580  21.620
  312BOLB   NC1 7465  18.840  21.190  19.910
  312BOLB   PO1 7466  18.400  21.020  20.060
  312BOLB   GL1 7467  18.520  21.550  20.140
  312BOLB   GL2 7468  18.650  21.780  19.800
  312BOLB   C1A 7469  18.650  21.840  20.280
  312BOLB   C2A 7470  18.510  22.000  20.630
  312BOLB   C3A 7471  18.370  22.320  20.700
  312BOLB   C4A 7472  18.380  22.800  20.730
  312BOLB   C1B 7473  19.090  21.890  19.910
  312BOLB   C2B 7474  19.460  22.120  20.060
  312BOLB   C3B 7475  19.800  22.000  20.370
  312BOLB   C4B 7476  20.030  21.910  20.670
  312BOLB   NC2 7477  20.060  23.800  22.210
  312BOLB   PO2 7478  19.560  23.760  22.170
  312BOLB   GL3 7479  19.410  23.460  22.000
  312BOLB   GL4 7480  19.340  23.280  22.150
  312BOLB   C1C 7481  19.220  23.400  21.660
  312BOLB   C2C 7482  19.070  23.220  21.420
  312BOLB   C3C 7483  18.990  23.170  21.090
  312BOLB   C4C 7484  18.590  23.200  20.870
  312BOLB   C1D 7485  19.130  23.020  21.900
  312BOLB   C2D 7486  18.790  22.840  21.750
  312BOLB   C3D 7487  18.560  22.870  21.260
  312BOLB   C4D 7488  18.100  23.020  21.060
  313BOLB   NC1 7489  10.040  12.300   9.580
  313BOLB   PO1 7490   9.960  12.410   9.150
  313BOLB   GL1 7491   9.650  12.110   9.170
  313BOLB   GL2 7492   9.430  11.840   9.280
  313BOLB   C1A 7493   9.310  12.000   8.810
  313BOLB   C2A 7494   9.270  11.700   8.430
  313BOLB   C3A 7495   9.240  11.530   8.130
  313BOLB   C4A 7496   8.880  11.210   7.860
  313BOLB   C1B 7497   9.060  12.120   9.230
  313BOLB   C2B 7498   8.750  12.060   8.890
  313BOLB   C3B 7499   8.370  11.930   8.750
  313BOLB   C4B 7500   8.180  12.200   8.540
  313BOLB   NC2 7501   6.750  10.700   7.380
  313BOLB   PO2 7502   6.630  10.320   7.290
  313BOLB   GL3 7503   7.090  10.440   7.530
  313BOLB   GL4 7504   7.270  10.080   7.570
  313BOLB   C1C 7505   7.490  10.500   7.650
  313BOLB   C2C 7506   7.980  10.460   7.750
  313BOLB   C3C 7507   8.250  10.800   7.830
  313BOLB   C4C 7508   8.580  11.010   7.670
  313BOLB   C1D 7509   7.540  10.060   7.860
  313BOLB   C2D 7510   7.880   9.810   8.170
  313BOLB   C3D 7511   8.080   9.380   8.000
  313BOLB   C4D 7512   8.080   9.380   7.570
  314BOLB   NC1 7513  15.530  24.730  10.770
  314BOLB   PO1 7514  15.140  24.630  10.630
  314BOLB   GL1 7515  15.140  24.930  10.350
  314BOLB   GL2 7516  15.370  25.200  10.480
  314BOLB   C1A 7517  15.260  25.270  10.040
  314BOLB   C2A 7518  15.370  25.630  10.010
  314BOLB   C3A 7519  15.220  26.020   9.860
  314BOLB   C4A 7520  15.130  26.460   9.790
  314BOLB   C1B 7521  15.330  25.540  10.640
  314BOLB   C2B 7522  15.290  25.990  10.530
  314BOLB   C3B 7523  15.230  26.460  10.310
  314BOLB   C4B 7524  15.290  26.800  10.520
  314BOLB   NC2 7525  13.940  28.240   8.630
  314BOLB   PO2 7526  14.210  28.410   8.470
  314BOLB   GL3 7527  14.370  27.970   8.730
  314BOLB   GL4 7528  14.430  27.630   8.530
  314BOLB   C1C 7529  14.630  27.670   8.950
  314BOLB   C2C 7530  14.730  27.460   9.260
  314BOLB   C3C 7531  15.020  27.170   9.460
  314BOLB   C4C 7532  15.330  26.830   9.630
  314BOLB   C1D 7533  14.500  27.190   8.420
  314BOLB   C2D 7534  14.590  26.780   8.080
  314BOLB   C3D 7535  14.590  26.440   8.090
  314BOLB   C4D 7536  14.780  26.280   8.370
  315BOLB   NC1 7537  18.230  10.380   6.410
  315BOLB   PO1 7538  18.590  10.530   6.280
  315BOLB   GL1 7539  18.530  10.260   5.970
  315BOLB   GL2 7540  18.800  10.070   6.100
  315BOLB   C1A 7541  18.700  10.170   5.640
  315BOLB   C2A 7542  18.820  10.210   5.190
  315BOLB   C3A 7543  18.960  10.420   4.870
  315BOLB   C4A 7544  18.820  10.560   4.380
  315BOLB   C1B 7545  18.970   9.720   5.900
  315BOLB   C2B 7546  19.080   9.350   5.730
  315BOLB   C3B 7547  18.990   8.990   5.950
  315BOLB   C4B 7548  18.660   8.760   5.820
  315BOLB   NC2 7549  20.500  10.050   2.540
  315BOLB   PO2 7550  20.570  10.260   2.880
  315BOLB   GL3 7551  20.370  10.260   3.230
  315BOLB   GL4 7552  20.370  10.200   3.540
  315BOLB   C1C 7553  19.950  10.230   3.280
  315BOLB   C2C 7554  19.470  10.160   3.390
  315BOLB   C3C 7555  19.250  10.360   3.710
  315BOLB   C4C 7556  18.980  10.550   3.930
  315BOLB   C1D 7557  20.070  10.390   3.740
  315BOLB   C2D 7558  19.720  10.520   3.600
  315BOLB   C3D 7559  19.460  10.790   3.870
  315BOLB   C4D 7560  19.380  10.680   4.280
  316BOLB   NC1 7561  18.050  11.260  16.960
  316BOLB   PO1 7562  17.650  11.060  17.090
  316BOLB   GL1 7563  17.970  10.870  17.270
  316BOLB   GL2 7564  18.010  10.520  17.190
  316BOLB   C1A 7565  18.170  10.660  17.670
  316BOLB   C2A 7566  18.430  10.410  17.760
  316BOLB   C3A 7567  18.500  10.050  18.030
  316BOLB   C4A 7568  18.350   9.650  18.110
  316BOLB   C1B 7569  18.230  10.180  17.340
  316BOLB   C2B 7570  18.630   9.960  17.370
  316BOLB   C3B 7571  18.760   9.710  17.770
  316BOLB   C4B 7572  18.820   9.610  18.190
  316BOLB   NC2 7573  19.180   7.200  17.920
  316BOLB   PO2 7574  19.010   7.350  18.260
  316BOLB   GL3 7575  18.990   7.790  18.270
  316BOLB   GL4 7576  19.300   7.740  18.040
  316BOLB   C1C 7577  19.020   8.250  18.300
  316BOLB   C2C 7578  18.730   8.510  18.360
  316BOLB   C3C 7579  18.560   8.850  18.350
  316BOLB   C4C 7580  18.500   9.240  18.160
  316BOLB   C1D 7581  18.980   7.930  17.760
  316BOLB   C2D 7582  18.610   7.940  17.600
  316BOLB   C3D 7583  18.320   8.050  17.460
  316BOLB   C4D 7584  18.340   8.500  17.530
  317BOLB   NC1 7585  20.510  20.540   6.460
  317BOLB   PO1 7586  20.510  20.180   6.260
  317BOLB   GL1 7587  20.770  20.400   6.050
  317BOLB   GL2 7588  20.740  20.640   6.040
  317BOLB   C1A 7589  21.230  20.400   5.960
  317BOLB   C2A 7590  21.430  20.380   5.530
  317BOLB   C3A 7591  21.810  20.700   5.470
  317BOLB   C4A 7592  22.260  20.670   5.260
  317BOLB   C1B 7593  20.990  20.770   5.640
  317BOLB   C2B 7594  21.350  20.830   5.320
  317BOLB   C3B 7595  21.600  21.050   5.040
  317BOLB   C4B 7596  22.010  21.070   4.880
  317BOLB   NC2 7597  23.180  22.950   4.030
  317BOLB   PO2 7598  23.430  22.520   3.890
  317BOLB   GL3 7599  23.150  22.350   4.170
  317BOLB   GL4 7600  22.980  22.530   4.320
  317BOLB   C1C 7601  23.090  21.950   4.330
  317BOLB   C2C 7602  23.000  21.660   4.600
  317BOLB   C3C 7603  22.900  21.290   5.010
  317BOLB   C4C 7604  22.510  21.010   5.270
  317BOLB   C1D 7605  23.090  22.280   4.730
  317BOLB   C2D 7606  22.970  22.060   5.060
  317BOLB   C3D 7607  22.780  21.730   5.040
  317BOLB   C4D 7608  22.540  21.530   5.480
  318BOLB   NC1 7609  17.970  11.760  17.010
  318BOLB   PO1 7610  18.190  11.550  17.330
  318BOLB   GL1 7611  18.260  11.230  17.530
  318BOLB   GL2 7612  18.560  11.320  17.670
  318BOLB   C1A 7613  18.430  10.940  18.000
  318BOLB   C2A 7614  18.680  10.630  18.120
  318BOLB   C3A 7615  18.860  10.320  18.290
  318BOLB   C4A 7616  18.910  10.000  18.540
  318BOLB   C1B 7617  18.750  11.410  18.060
  318BOLB   C2B 7618  18.620  11.120  18.430
  318BOLB   C3B 7619  18.620  10.820  18.770
  318BOLB   C4B 7620  18.660  10.340  18.790
  318BOLB   NC2 7621  19.550   7.900  19.690
  318BOLB   PO2 7622  19.470   8.260  19.970
  318BOLB   GL3 7623  19.400   8.430  19.620
  318BOLB   GL4 7624  19.330   8.230  19.410
  318BOLB   C1C 7625  19.460   8.730  19.350
  318BOLB   C2C 7626  19.210   9.040  19.110
  318BOLB   C3C 7627  19.120   9.270  18.850
  318BOLB   C4C 7628  19.060   9.590  18.610
  318BOLB   C1D 7629  19.260   8.270  18.860
  318BOLB   C2D 7630  19.250   8.610  18.640
  318BOLB   C3D 7631  19.060   8.880  18.390
  318BOLB   C4D 7632  18.980   8.950  17.950
  319BOLB   NC1 7633  20.300   5.360   9.740
  319BOLB   PO1 7634  20.390   5.700  10.030
  319BOLB   GL1 7635  20.260   5.890   9.740
  319BOLB   GL2 7636  19.940   5.820   9.780
  319BOLB   C1A 7637  20.280   6.300   9.620
  319BOLB   C2A 7638  20.200   6.610   9.900
  319BOLB   C3A 7639  19.810   6.780  10.020
  319BOLB   C4A 7640  19.490   6.920  10.220
  319BOLB   C1B 7641  20.010   6.210  10.110
  319BOLB   C2B 7642  20.360   6.400  10.330
  319BOLB   C3B 7643  20.240   6.780  10.370
  319BOLB   C4B 7644  19.950   7.090  10.400
  319BOLB   NC2 7645  18.660   4.600  10.330
  319BOLB   PO2 7646  18.500   4.960  10.710
  319BOLB   GL3 7647  18.560   5.340  10.810
  319BOLB   GL4 7648  18.610   5.520  11.100
  319BOLB   C1C 7649  18.580   5.790  10.650
  319BOLB   C2C 7650  18.610   6.240  10.600
  319BOLB   C3C 7651  18.700   6.670  10.390
  319BOLB   C4C 7652  19.140   6.850  10.290
  319BOLB   C1D 7653  18.480   5.970  11.140
  319BOLB   C2D 7654  18.260   6.290  11.030
  319BOLB   C3D 7655  18.230   6.640  10.720
  319BOLB   C4D 7656  17.880   6.830  10.800
  320BOLB   NC1 7657  15.320  22.110  19.120
  320BOLB   PO1 7658  15.620  22.280  19.440
  320BOLB   GL1 7659  15.700  22.550  19.760
  320BOLB   GL2 7660  16.050  22.710  19.780
  320BOLB   C1A 7661  15.610  22.870  20.050
  320BOLB   C2A 7662  15.610  22.930  20.450
  320BOLB   C3A 7663  15.590  23.280  20.700
  320BOLB   C4A 7664  15.380  23.410  21.040
  320BOLB   C1B 7665  16.100  22.870  20.260
  320BOLB   C2B 7666  16.060  23.110  20.640
  320BOLB   C3B 7667  16.350  23.190  20.980
  320BOLB   C4B 7668  16.500  23.070  21.360
  320BOLB   NC2 7669  16.080  24.520  23.100
  320BOLB   PO2 7670  16.060  24.540  22.610
  320BOLB   GL3 7671  15.860  24.160  22.550
  320BOLB   GL4 7672  16.150  24.110  22.400
  320BOLB   C1C 7673  15.530  23.920  22.430
  320BOLB   C2C 7674  15.350  23.520  22.200
  320BOLB   C3C 7675  15.360  23.140  21.850
  320BOLB   C4C 7676  15.420  23.130  21.390
  320BOLB   C1D 7677  16.000  23.790  22.240
  320BOLB   C2D 7678  15.720  23.380  22.470
  320BOLB   C3D 7679  15.560  22.920  22.370
  320BOLB   C4D 7680  15.380  22.410  22.280
  321BOLB   NC1 7681   3.100  24.410  17.950
  321BOLB   PO1 7682   3.470  24.450  18.130
  321BOLB   GL1 7683   3.750  24.120  18.270
  321BOLB   GL2 7684   4.110  24.240  18.150
  321BOLB   C1A 7685   3.690  23.710  18.090
  321BOLB   C2A 7686   4.040  23.430  18.190
  321BOLB   C3A 7687   4.370  23.320  17.810
  321BOLB   C4A 7688   4.680  23.050  17.540
  321BOLB   C1B 7689   4.360  23.920  18.110
  321BOLB   C2B 7690   4.780  23.810  18.000
  321BOLB   C3B 7691   5.050  23.460  17.910
  321BOLB   C4B 7692   5.230  23.000  17.820
  321BOLB   NC2 7693   4.210  24.610  16.220
  321BOLB   PO2 7694   4.530  24.490  15.880
  321BOLB   GL3 7695   4.820  24.370  16.190
  321BOLB   GL4 7696   5.100  24.300  16.010
  321BOLB   C1C 7697   5.000  24.260  16.630
  321BOLB   C2C 7698   5.220  23.960  16.930
  321BOLB   C3C 7699   5.270  23.580  17.200
  321BOLB   C4C 7700   5.090  23.160  17.330
  321BOLB   C1D 7701   4.830  23.910  15.850
  321BOLB   C2D 7702   4.850  23.490  16.000
  321BOLB   C3D 7703   4.870  23.370  16.450
  321BOLB   C4D 7704   5.250  23.420  16.790
  322BOLB   NC1 7705  15.640   9.110   9.970
  322BOLB   PO1 7706  16.030   9.160  10.240
  322BOLB   GL1 7707  16.240   8.700  10.210
  322BOLB   GL2 7708  16.050   8.810   9.930
  322BOLB   C1A 7709  16.150   8.370  10.490
  322BOLB   C2A 7710  16.060   8.010  10.490
  322BOLB   C3A 7711  16.010   7.610  10.610
  322BOLB   C4A 7712  16.020   7.230  10.800
  322BOLB   C1B 7713  15.930   8.370  10.020
  322BOLB   C2B 7714  15.830   7.990  10.080
  322BOLB   C3B 7715  15.950   7.580   9.970
  322BOLB   C4B 7716  16.050   7.160   9.960
  322BOLB   NC2 7717  15.600   4.320  11.210
  322BOLB   PO2 7718  15.810   4.730  11.170
  322BOLB   GL3 7719  15.790   5.170  11.160
  322BOLB   GL4 7720  15.400   5.250  11.280
  322BOLB   C1C 7721  15.760   5.540  10.930
  322BOLB   C2C 7722  15.910   6.040  10.930
  322BOLB   C3C 7723  15.910   6.540  11.160
  322BOLB   C4C 7724  15.850   6.870  11.110
  322BOLB   C1D 7725  15.420   5.600  11.450
  322BOLB   C2D 7726  15.350   5.990  11.610
  322BOLB   C3D 7727  15.380   6.330  11.840
  322BOLB   C4D 7728  15.530   6.780  11.840
  323BOLB   NC1 7729  18.600  14.440  19.660
  323BOLB   PO1 7730  18.330  14.100  19.850
  323BOLB   GL1 7731  18.750  13.960  20.030
  323BOLB   GL2 7732  18.800  14.000  19.740
  323BOLB   C1A 7733  18.990  13.680  20.120
  323BOLB   C2A 7734  19.160  13.250  20.140
  323BOLB   C3A 7735  19.550  13.010  20.320
  323BOLB   C4A 7736  19.890  12.850  20.270
  323BOLB   C1B 7737  19.030  13.480  19.640
  323BOLB   C2B 7738  19.330  13.220  19.380
  323BOLB   C3B 7739  19.580  12.780  19.420
  323BOLB   C4B 7740  19.870  12.590  19.740
  323BOLB   NC2 7741  21.920  12.830  21.420
  323BOLB   PO2 7742  21.660  12.380  21.530
  323BOLB   GL3 7743  21.370  12.750  21.460
  323BOLB   GL4 7744  21.050  12.780  21.560
  323BOLB   C1C 7745  21.240  12.860  20.990
  323BOLB   C2C 7746  20.920  12.700  20.800
  323BOLB   C3C 7747  20.570  12.470  20.740
  323BOLB   C4C 7748  20.170  12.680  20.660
  323BOLB   C1D 7749  20.890  13.160  21.210
  323BOLB   C2D 7750  20.540  13.470  21.120
  323BOLB   C3D 7751  20.180  13.660  20.830
  323BOLB   C4D 7752  20.040  13.830  20.410
  324BOLB   NC1 7753  15.540  13.620   4.490
  324BOLB   PO1 7754  15.740  13.090   4.450
  324BOLB   GL1 7755  15.750  12.970   4.020
  324BOLB   GL2 7756  15.740  12.590   4.090
  324BOLB   C1A 7757  15.620  12.860   3.620
  324BOLB   C2A 7758  15.400  12.850   3.210
  324BOLB   C3A 7759  15.310  13.110   2.870
  324BOLB   C4A 7760  15.550  13.270   2.650
  324BOLB   C1B 7761  16.040  12.670   3.770
  324BOLB   C2B 7762  16.070  12.870   3.340
  324BOLB   C3B 7763  15.910  12.780   2.940
  324BOLB   C4B 7764  15.620  12.760   2.780
  324BOLB   NC2 7765  14.740  12.280   0.370
  324BOLB   PO2 7766  14.920  12.490   0.600
  324BOLB   GL3 7767  15.060  12.610   0.990
  324BOLB   GL4 7768  14.920  12.710   1.270
  324BOLB   C1C 7769  15.350  12.880   1.280
  324BOLB   C2C 7770  15.490  13.030   1.710
  324BOLB   C3C 7771  15.710  13.000   2.040
  324BOLB   C4C 7772  15.750  13.080   2.410
  324BOLB   C1D 7773  14.950  12.850   1.610
  324BOLB   C2D 7774  14.810  13.040   1.920
  324BOLB   C3D 7775  14.820  13.460   2.170
  324BOLB   C4D 7776  15.060  13.810   2.180
  325BOLB   NC1 7777   8.970  11.020   4.560
  325BOLB   PO1 7778   9.300  10.580   4.540
  325BOLB   GL1 7779   9.410  10.490   4.940
  325BOLB   GL2 7780   9.710  10.410   5.080
  325BOLB   C1A 7781   9.640  10.840   5.250
  325BOLB   C2A 7782   9.730  11.250   5.390
  325BOLB   C3A 7783   9.800  11.590   5.340
  325BOLB   C4A 7784  10.060  11.950   5.340
  325BOLB   C1B 7785  10.050  10.550   5.260
  325BOLB   C2B 7786  10.370  10.820   5.160
  325BOLB   C3B 7787  10.530  11.180   4.960
  325BOLB   C4B 7788  10.470  11.570   4.630
  325BOLB   NC2 7789   8.870  12.200   2.930
  325BOLB   PO2 7790   8.840  12.270   3.480
  325BOLB   GL3 7791   9.040  12.180   3.780
  325BOLB   GL4 7792   8.920  12.290   4.100
  325BOLB   C1C 7793   9.460  11.980   4.010
  325BOLB   C2C 7794   9.780  12.010   4.330
  325BOLB   C3C 7795   9.880  12.260   4.670
  325BOLB   C4C 7796   9.950  12.300   5.040
  325BOLB   C1D 7797   8.900  12.450   4.580
  325BOLB   C2D 7798   8.690  12.540   5.030
  325BOLB   C3D 7799   8.570  12.960   5.230
  325BOLB   C4D 7800   8.530  13.360   5.550
  326BOLB   NC1 7801  14.060  23.800   3.580
  326BOLB   PO1 7802  14.280  23.670   3.140
  326BOLB   GL1 7803  14.360  23.330   3.420
  326BOLB   GL2 7804  14.060  23.350   3.700
  326BOLB   C1A 7805  14.760  23.020   3.360
  326BOLB   C2A 7806  14.840  22.780   3.710
  326BOLB   C3A 7807  15.000  22.630   4.120
  326BOLB   C4A 7808  15.200  22.600   4.540
  326BOLB   C1B 7809  14.050  23.230   3.980
  326BOLB   C2B 7810  14.100  22.860   4.200
  326BOLB   C3B 7811  14.390  22.680   4.580
  326BOLB   C4B 7812  14.640  22.440   4.770
  326BOLB   NC2 7813  15.910  20.740   6.190
  326BOLB   PO2 7814  15.540  20.620   5.970
  326BOLB   GL3 7815  15.670  20.720   5.530
  326BOLB   GL4 7816  15.830  20.490   5.230
  326BOLB   C1C 7817  15.760  21.010   5.200
  326BOLB   C2C 7818  15.500  21.350   5.030
  326BOLB   C3C 7819  15.350  21.790   4.820
  326BOLB   C4C 7820  15.100  22.250   4.820
  326BOLB   C1D 7821  15.790  20.460   4.790
  326BOLB   C2D 7822  15.900  20.570   4.380
  326BOLB   C3D 7823  16.000  20.740   4.030
  326BOLB   C4D 7824  16.130  21.020   3.620
  327BOLB   NC1 7825  17.080  13.000  19.220
  327BOLB   PO1 7826  17.450  13.010  19.190
  327BOLB   GL1 7827  17.570  12.820  19.570
  327BOLB   GL2 7828  17.890  12.900  19.770
  327BOLB   C1A 7829  17.520  12.450  19.860
  327BOLB   C2A 7830  17.700  12.100  19.930
  327BOLB   C3A 7831  17.580  11.660  20.190
  327BOLB   C4A 7832  17.860  11.290  20.270
  327BOLB   C1B 7833  18.100  12.540  19.920
  327BOLB   C2B 7834  17.980  12.320  20.300
  327BOLB   C3B 7835  18.070  11.760  20.260
  327BOLB   C4B 7836  18.310  11.310  20.180
  327BOLB   NC2 7837  20.050  11.150  22.120
  327BOLB   PO2 7838  19.670  11.130  22.120
  327BOLB   GL3 7839  19.370  11.000  21.720
  327BOLB   GL4 7840  19.190  10.830  21.940
  327BOLB   C1C 7841  19.040  11.000  21.390
  327BOLB   C2C 7842  18.730  10.980  21.150
  327BOLB   C3C 7843  18.280  10.930  20.920
  327BOLB   C4C 7844  18.010  10.940  20.530
  327BOLB   C1D 7845  18.780  10.830  21.800
  327BOLB   C2D 7846  18.350  10.940  21.770
  327BOLB   C3D 7847  17.910  11.130  21.800
  327BOLB   C4D 7848  17.560  11.250  21.610
  328BOLB   NC1 7849  16.390   9.950  16.260
  328BOLB   PO1 7850  15.960  10.070  16.230
  328BOLB   GL1 7851  15.940   9.770  16.470
  328BOLB   GL2 7852  15.610   9.740  16.520
  328BOLB   C1A 7853  15.780   9.330  16.700
  328BOLB   C2A 7854  15.700   8.970  17.020
  328BOLB   C3A 7855  15.580   8.850  17.420
  328BOLB   C4A 7856  15.550   8.450  17.730
  328BOLB   C1B 7857  15.350   9.490  16.820
  328BOLB   C2B 7858  15.350   9.330  17.240
  328BOLB   C3B 7859  15.470   9.270  17.690
  328BOLB   C4B 7860  15.380   9.320  18.130
  328BOLB   NC2 7861  16.130   5.890  18.390
  328BOLB   PO2 7862  15.840   5.850  18.070
  328BOLB   GL3 7863  15.910   6.370  18.200
  328BOLB   GL4 7864  16.110   6.600  17.830
  328BOLB   C1C 7865  15.630   6.680  18.230
  328BOLB   C2C 7866  15.480   7.120  18.160
  328BOLB   C3C 7867  15.440   7.480  17.890
  328BOLB   C4C 7868  15.510   7.940  17.800
  328BOLB   C1D 7869  16.030   7.020  17.630
  328BOLB   C2D 7870  15.820   7.420  17.510
  328BOLB   C3D 7871  15.670   7.800  17.360
  328BOLB   C4D 7872  15.180   7.840  17.270
  329BOLB   NC1 7873  15.000  25.140  11.990
  329BOLB   PO1 7874  15.430  25.240  12.050
  329BOLB   GL1 7875  15.300  25.570  11.870
  329BOLB   GL2 7876  15.410  25.880  11.960
  329BOLB   C1A 7877  15.100  25.820  11.520
  329BOLB   C2A 7878  14.900  26.150  11.340
  329BOLB   C3A 7879  15.100  26.490  11.300
  329BOLB   C4A 7880  15.320  26.900  11.210
  329BOLB   C1B 7881  15.480  26.100  11.520
  329BOLB   C2B 7882  15.650  26.400  11.250
  329BOLB   C3B 7883  16.050  26.540  10.990
  329BOLB   C4B 7884  16.250  26.850  10.710
  329BOLB   NC2 7885  15.520  28.860   9.470
  329BOLB   PO2 7886  15.230  29.100   9.760
  329BOLB   GL3 7887  15.200  28.620   9.840
  329BOLB   GL4 7888  14.960  28.370   9.760
  329BOLB   C1C 7889  15.140  28.350  10.200
  329BOLB   C2C 7890  15.270  27.970  10.420
  329BOLB   C3C 7891  15.380  27.530  10.570
  329BOLB   C4C 7892  15.360  27.240  10.890
  329BOLB   C1D 7893  15.260  28.010   9.840
  329BOLB   C2D 7894  15.650  27.780   9.690
  329BOLB   C3D 7895  16.030  27.400   9.870
  329BOLB   C4D 7896  16.140  27.040  10.240
  330BOLB   NC1 7897  16.110  14.720   4.590
  330BOLB   PO1 7898  15.910  14.600   4.210
  330BOLB   GL1 7899  15.740  14.690   3.820
  330BOLB   GL2 7900  15.530  14.420   3.830
  330BOLB   C1A 7901  15.760  14.730   3.390
  330BOLB   C2A 7902  16.140  14.800   3.060
  330BOLB   C3A 7903  16.170  14.720   2.630
  330BOLB   C4A 7904  16.260  14.430   2.380
  330BOLB   C1B 7905  15.320  14.180   3.520
  330BOLB   C2B 7906  15.290  13.950   3.270
  330BOLB   C3B 7907  15.200  13.610   2.980
  330BOLB   C4B 7908  15.090  13.510   2.580
  330BOLB   NC2 7909  15.320  13.820  31.260
  330BOLB   PO2 7910  15.330  13.920   0.270
  330BOLB   GL3 7911  15.500  13.950   0.770
  330BOLB   GL4 7912  15.520  14.210   0.790
  330BOLB   C1C 7913  15.730  13.820   1.150
  330BOLB   C2C 7914  16.090  13.820   1.350
  330BOLB   C3C 7915  16.100  13.930   1.840
  330BOLB   C4C 7916  16.140  14.220   2.140
  330BOLB   C1D 7917  15.470  14.250   1.250
  330BOLB   C2D 7918  15.640  14.250   1.690
  330BOLB   C3D 7919  15.820  14.530   1.920
  330BOLB   C4D 7920  16.070  14.740   2.030
  331BOLB   NC1 7921  21.390  12.250  13.050
  331BOLB   PO1 7922  21.730  12.110  13.080
  331BOLB   GL1 7923  21.980  11.740  13.130
  331BOLB   GL2 7924  22.170  11.720  13.120
  331BOLB   C1A 7925  21.990  11.310  13.300
  331BOLB   C2A 7926  22.200  10.930  13.290
  331BOLB   C3A 7927  22.580  10.640  13.480
  331BOLB   C4A 7928  22.970  10.450  13.610
  331BOLB   C1B 7929  22.480  11.520  13.280
  331BOLB   C2B 7930  22.620  11.160  13.460
  331BOLB   C3B 7931  22.960  10.920  13.540
  331BOLB   C4B 7932  23.360  10.760  13.420
  331BOLB   NC2 7933  25.020   9.390  14.180
  331BOLB   PO2 7934  25.040   9.260  13.800
  331BOLB   GL3 7935  24.780   9.370  13.540
  331BOLB   GL4 7936  24.640   9.080  13.410
  331BOLB   C1C 7937  24.470   9.720  13.500
  331BOLB   C2C 7938  24.160   9.950  13.360
  331BOLB   C3C 7939  23.770  10.120  13.300
  331BOLB   C4C 7940  23.380  10.230  13.400
  331BOLB   C1D 7941  24.210   8.990  13.210
  331BOLB   C2D 7942  23.700   8.910  13.330
  331BOLB   C3D 7943  23.320   9.150  13.200
  331BOLB   C4D 7944  23.000   9.470  13.300
  332BOLB   NC1 7945  24.590  25.190   7.460
  332BOLB   PO1 7946  24.800  25.210   7.870
  332BOLB   GL1 7947  24.490  24.850   8.110
  332BOLB   GL2 7948  24.500  24.690   8.310
  332BOLB   C1A 7949  24.080  24.690   8.020
  332BOLB   C2A 7950  23.690  24.770   7.950
  332BOLB   C3A 7951  23.310  24.620   7.910
  332BOLB   C4A 7952  22.900  24.500   7.690
  332BOLB   C1B 7953  24.110  24.680   8.510
  332BOLB   C2B 7954  23.760  24.570   8.400
  332BOLB   C3B 7955  23.580  24.280   8.130
  332BOLB   C4B 7956  23.340  24.170   7.710
  332BOLB   NC2 7957  24.400  24.670   6.130
  332BOLB   PO2 7958  23.960  24.810   6.320
  332BOLB   GL3 7959  23.540  24.490   6.170
  332BOLB   GL4 7960  23.470  24.230   5.990
  332BOLB   C1C 7961  23.200  24.320   6.420
  332BOLB   C2C 7962  23.000  24.010   6.750
  332BOLB   C3C 7963  22.750  24.010   7.100
  332BOLB   C4C 7964  22.720  24.310   7.410
  332BOLB   C1D 7965  23.300  23.820   6.120
  332BOLB   C2D 7966  23.230  23.540   6.450
  332BOLB   C3D 7967  22.960  23.210   6.650
  332BOLB   C4D 7968  22.660  22.930   6.800
  333BOLB   NC1 7969  15.100  23.210   8.270
  333BOLB   PO1 7970  15.590  23.090   8.160
  333BOLB   GL1 7971  15.580  23.440   7.990
  333BOLB   GL2 7972  15.930  23.530   7.880
  333BOLB   C1A 7973  15.490  23.830   7.780
  333BOLB   C2A 7974  15.460  24.200   7.470
  333BOLB   C3A 7975  15.690  24.530   7.160
  333BOLB   C4A 7976  15.410  24.870   6.930
  333BOLB   C1B 7977  15.990  23.940   7.740
  333BOLB   C2B 7978  16.130  24.280   7.570
  333BOLB   C3B 7979  16.270  24.520   7.170
  333BOLB   C4B 7980  16.410  24.890   6.980
  333BOLB   NC2 7981  14.000  26.940   6.160
  333BOLB   PO2 7982  14.210  26.540   6.220
  333BOLB   GL3 7983  14.470  26.270   6.290
  333BOLB   GL4 7984  14.270  26.160   6.570
  333BOLB   C1C 7985  14.760  25.940   6.350
  333BOLB   C2C 7986  15.200  25.940   6.420
  333BOLB   C3C 7987  15.490  25.640   6.420
  333BOLB   C4C 7988  15.520  25.310   6.800
  333BOLB   C1D 7989  14.450  25.860   6.690
  333BOLB   C2D 7990  14.530  25.500   6.970
  333BOLB   C3D 7991  14.820  25.280   7.150
  333BOLB   C4D 7992  15.100  24.980   7.270
  334BOLB   NC1 7993  16.770  25.620  11.860
  334BOLB   PO1 7994  16.320  25.420  11.760
  334BOLB   GL1 7995  16.320  25.870  11.720
  334BOLB   GL2 7996  16.480  25.990  11.890
  334BOLB   C1A 7997  16.010  26.130  11.540
  334BOLB   C2A 7998  16.120  26.530  11.580
  334BOLB   C3A 7999  15.800  26.840  11.440
  334BOLB   C4A 8000  15.580  27.230  11.460
  334BOLB   C1B 8001  16.630  26.440  11.730
  334BOLB   C2B 8002  16.500  26.840  11.720
  334BOLB   C3B 8003  16.150  27.070  11.750
  334BOLB   C4B 8004  15.860  26.960  11.890
  334BOLB   NC2 8005  14.950  29.230  11.850
  334BOLB   PO2 8006  15.420  29.270  11.910
  334BOLB   GL3 8007  15.480  28.940  12.150
  334BOLB   GL4 8008  15.240  29.000  12.320
  334BOLB   C1C 8009  15.580  28.600  12.410
  334BOLB   C2C 8010  15.400  28.210  12.290
  334BOLB   C3C 8011  15.460  27.950  12.000
  334BOLB   C4C 8012  15.490  27.680  11.670
  334BOLB   C1D 8013  15.060  28.640  12.200
  334BOLB   C2D 8014  14.780  28.160  12.290
  334BOLB   C3D 8015  14.480  28.020  11.980
  334BOLB   C4D 8016  14.120  28.310  11.880
  335BOLB   NC1 8017  23.870  17.620   9.910
  335BOLB   PO1 8018  24.130  17.760   9.650
  335BOLB   GL1 8019  24.540  17.780   9.580
  335BOLB   GL2 8020  24.500  17.440   9.400
  335BOLB   C1A 8021  24.930  17.830   9.710
  335BOLB   C2A 8022  25.410  17.860   9.670
  335BOLB   C3A 8023  25.860  17.910   9.420
  335BOLB   C4A 8024  26.310  18.010   9.490
  335BOLB   C1B 8025  24.960  17.520   9.370
  335BOLB   C2B 8026  25.430  17.320   9.420
  335BOLB   C3B 8027  25.680  16.970   9.520
  335BOLB   C4B 8028  25.850  16.610   9.480
  335BOLB   NC2 8029  28.470  16.780  10.320
  335BOLB   PO2 8030  28.470  16.840  10.710
  335BOLB   GL3 8031  28.040  16.870  10.520
  335BOLB   GL4 8032  27.890  16.620  10.540
  335BOLB   C1C 8033  27.710  17.210  10.410
  335BOLB   C2C 8034  27.360  17.390  10.250
  335BOLB   C3C 8035  26.990  17.630  10.030
  335BOLB   C4C 8036  26.700  17.820   9.720
  335BOLB   C1D 8037  27.420  16.380  10.660
  335BOLB   C2D 8038  27.120  16.420  10.950
  335BOLB   C3D 8039  26.910  16.610  11.210
  335BOLB   C4D 8040  26.720  16.540  11.490
  336BOLB   NC1 8041  13.840  25.200  15.470
  336BOLB   PO1 8042  13.560  24.970  15.850
  336BOLB   GL1 8043  13.610  25.410  15.910
  336BOLB   GL2 8044  13.870  25.620  15.670
  336BOLB   C1A 8045  13.670  25.780  16.120
  336BOLB   C2A 8046  13.580  26.160  16.210
  336BOLB   C3A 8047  13.600  26.600  16.330
  336BOLB   C4A 8048  13.670  26.960  16.240
  336BOLB   C1B 8049  13.850  25.970  15.720
  336BOLB   C2B 8050  14.130  26.250  15.980
  336BOLB   C3B 8051  14.080  26.420  16.300
  336BOLB   C4B 8052  14.010  26.660  16.670
  336BOLB   NC2 8053  11.900  29.020  16.790
  336BOLB   PO2 8054  12.170  28.630  16.480
  336BOLB   GL3 8055  12.370  28.320  16.400
  336BOLB   GL4 8056  12.570  28.260  16.660
  336BOLB   C1C 8057  12.700  28.240  16.180
  336BOLB   C2C 8058  13.020  27.910  16.260
  336BOLB   C3C 8059  13.360  27.650  16.190
  336BOLB   C4C 8060  13.390  27.200  16.150
  336BOLB   C1D 8061  12.610  27.830  16.680
  336BOLB   C2D 8062  12.900  27.590  16.610
  336BOLB   C3D 8063  13.180  27.330  16.630
  336BOLB   C4D 8064  13.590  27.350  16.570
  337BOLB   NC1 8065  16.660  11.060  17.550
  337BOLB   PO1 8066  16.680  10.550  17.590
  337BOLB   GL1 8067  16.910  10.140  17.600
  337BOLB   GL2 8068  17.140  10.330  17.800
  337BOLB   C1A 8069  17.060   9.790  17.500
  337BOLB   C2A 8070  17.000   9.370  17.520
  337BOLB   C3A 8071  17.140   9.040  17.440
  337BOLB   C4A 8072  17.550   8.990  17.620
  337BOLB   C1B 8073  17.090   9.990  18.150
  337BOLB   C2B 8074  16.840   9.750  18.420
  337BOLB   C3B 8075  16.650   9.450  18.630
  337BOLB   C4B 8076  16.520   9.110  18.700
  337BOLB   NC2 8077  18.760   6.610  18.730
  337BOLB   PO2 8078  18.370   6.870  18.800
  337BOLB   GL3 8079  18.070   7.120  18.450
  337BOLB   GL4 8080  18.090   7.150  18.010
  337BOLB   C1C 8081  18.000   7.550  18.450
  337BOLB   C2C 8082  18.030   7.920  18.040
  337BOLB   C3C 8083  17.980   8.260  17.810
  337BOLB   C4C 8084  17.910   8.640  17.670
  337BOLB   C1D 8085  17.830   7.470  18.000
  337BOLB   C2D 8086  17.570   7.780  17.990
  337BOLB   C3D 8087  17.190   8.070  18.010
  337BOLB   C4D 8088  16.850   8.270  17.990
  338BOLB   NC1 8089  23.630  20.860  11.650
  338BOLB   PO1 8090  23.780  20.890  12.050
  338BOLB   GL1 8091  24.050  21.190  11.840
  338BOLB   GL2 8092  24.160  21.080  11.550
  338BOLB   C1A 8093  24.460  21.340  12.000
  338BOLB   C2A 8094  24.660  21.270  12.160
  338BOLB   C3A 8095  24.830  21.530  12.500
  338BOLB   C4A 8096  25.010  21.870  12.470
  338BOLB   C1B 8097  24.560  21.040  11.520
  338BOLB   C2B 8098  25.000  21.350  11.560
  338BOLB   C3B 8099  25.260  21.630  11.590
  338BOLB   C4B 8100  25.670  21.910  11.610
  338BOLB   NC2 8101  27.360  23.260  13.010
  338BOLB   PO2 8102  27.120  22.920  12.970
  338BOLB   GL3 8103  26.800  22.860  12.670
  338BOLB   GL4 8104  26.690  22.660  12.370
  338BOLB   C1C 8105  26.400  22.720  12.880
  338BOLB   C2C 8106  25.980  22.640  12.710
  338BOLB   C3C 8107  25.720  22.450  12.490
  338BOLB   C4C 8108  25.300  22.260  12.500
  338BOLB   C1D 8109  26.570  22.270  12.320
  338BOLB   C2D 8110  26.120  22.140  12.400
  338BOLB   C3D 8111  25.800  21.930  12.500
  338BOLB   C4D 8112  25.460  21.680  12.700
  339BOLB   NC1 8113  20.980  23.760  10.690
  339BOLB   PO1 8114  21.220  23.760  11.090
  339BOLB   GL1 8115  21.520  24.020  11.240
  339BOLB   GL2 8116  21.510  23.990  11.560
  339BOLB   C1A 8117  21.890  24.160  11.070
  339BOLB   C2A 8118  22.220  24.500  10.880
  339BOLB   C3A 8119  22.560  24.810  10.820
  339BOLB   C4A 8120  22.670  25.200  10.590
  339BOLB   C1B 8121  21.720  24.360  11.560
  339BOLB   C2B 8122  21.910  24.760  11.390
  339BOLB   C3B 8123  21.990  25.070  11.170
  339BOLB   C4B 8124  22.350  25.420  11.210
  339BOLB   NC2 8125  24.560  26.520  10.210
  339BOLB   PO2 8126  24.230  26.480   9.890
  339BOLB   GL3 8127  24.060  26.160   9.680
  339BOLB   GL4 8128  24.340  25.910   9.630
  339BOLB   C1C 8129  23.590  26.200   9.770
  339BOLB   C2C 8130  23.210  26.000   9.880
  339BOLB   C3C 8131  23.050  25.600   9.970
  339BOLB   C4C 8132  22.760  25.300  10.230
  339BOLB   C1D 8133  23.960  25.700   9.870
  339BOLB   C2D 8134  23.550  25.630  10.070
  339BOLB   C3D 8135  23.440  25.300  10.220
  339BOLB   C4D 8136  23.290  24.910  10.330
  340BOLB   NC1 8137  19.750  20.320   6.780
  340BOLB   PO1 8138  20.050  20.630   6.490
  340BOLB   GL1 8139  20.260  20.760   6.110
  340BOLB   GL2 8140  20.290  20.570   5.850
  340BOLB   C1A 8141  20.600  21.050   5.870
  340BOLB   C2A 8142  20.870  21.240   5.480
  340BOLB   C3A 8143  21.250  21.310   5.320
  340BOLB   C4A 8144  21.620  21.540   5.270
  340BOLB   C1B 8145  20.510  20.750   5.410
  340BOLB   C2B 8146  20.900  20.830   5.130
  340BOLB   C3B 8147  21.180  20.860   4.870
  340BOLB   C4B 8148  21.240  20.660   4.460
  340BOLB   NC2 8149  22.020  22.990   3.440
  340BOLB   PO2 8150  22.310  22.780   3.490
  340BOLB   GL3 8151  22.010  22.610   3.760
  340BOLB   GL4 8152  21.720  22.680   3.790
  340BOLB   C1C 8153  22.010  22.330   4.070
  340BOLB   C2C 8154  22.050  21.870   4.290
  340BOLB   C3C 8155  22.000  21.570   4.580
  340BOLB   C4C 8156  21.890  21.530   4.990
  340BOLB   C1D 8157  21.520  22.260   3.700
  340BOLB   C2D 8158  21.120  22.070   3.680
  340BOLB   C3D 8159  20.960  22.050   4.070
  340BOLB   C4D 8160  20.910  21.800   4.470
  341BOLB   NC1 8161  18.930  13.350  25.760
  341BOLB   PO1 8162  18.800  13.700  25.440
  341BOLB   GL1 8163  18.610  13.820  24.990
  341BOLB   GL2 8164  18.780  14.000  24.630
  341BOLB   C1A 8165  18.250  13.630  24.640
  341BOLB   C2A 8166  18.190  13.410  24.290
  341BOLB   C3A 8167  17.940  13.430  23.920
  341BOLB   C4A 8168  17.960  13.210  23.550
  341BOLB   C1B 8169  18.300  14.130  24.570
  341BOLB   C2B 8170  17.970  14.370  24.260
  341BOLB   C3B 8171  17.780  14.560  23.920
  341BOLB   C4B 8172  17.590  14.420  23.490
  341BOLB   NC2 8173  18.780  11.140  24.150
  341BOLB   PO2 8174  18.960  11.450  24.290
  341BOLB   GL3 8175  18.600  11.610  24.230
  341BOLB   GL4 8176  18.570  11.840  24.540
  341BOLB   C1C 8177  18.420  11.920  23.960
  341BOLB   C2C 8178  18.660  12.300  23.850
  341BOLB   C3C 8179  18.310  12.600  23.620
  341BOLB   C4C 8180  18.000  12.940  23.390
  341BOLB   C1D 8181  18.200  12.070  24.380
  341BOLB   C2D 8182  17.670  11.970  24.260
  341BOLB   C3D 8183  17.430  12.110  24.450
  341BOLB   C4D 8184  17.040  12.350  24.720
  342BOLB   NC1 8185  21.630  15.240   5.990
  342BOLB   PO1 8186  21.540  15.620   5.810
  342BOLB   GL1 8187  21.830  15.510   5.550
  342BOLB   GL2 8188  21.980  15.200   5.660
  342BOLB   C1A 8189  22.050  15.470   5.140
  342BOLB   C2A 8190  22.310  15.190   4.830
  342BOLB   C3A 8191  22.730  15.160   4.690
  342BOLB   C4A 8192  22.880  14.660   4.510
  342BOLB   C1B 8193  22.000  14.970   5.300
  342BOLB   C2B 8194  22.240  14.690   5.270
  342BOLB   C3B 8195  22.680  14.370   5.240
  342BOLB   C4B 8196  23.030  14.260   5.570
  342BOLB   NC2 8197  24.200  13.440   2.760
  342BOLB   PO2 8198  23.940  13.230   3.020
  342BOLB   GL3 8199  23.950  13.350   3.390
  342BOLB   GL4 8200  24.180  13.400   3.580
  342BOLB   C1C 8201  23.630  13.720   3.580
  342BOLB   C2C 8202  23.370  13.810   3.900
  342BOLB   C3C 8203  23.360  14.220   4.120
  342BOLB   C4C 8204  23.210  14.440   4.370
  342BOLB   C1D 8205  24.110  13.640   3.960
  342BOLB   C2D 8206  23.890  13.850   4.320
  342BOLB   C3D 8207  23.990  14.010   4.750
  342BOLB   C4D 8208  24.210  14.360   4.750
  343BOLB   NC1 8209  14.160  21.530   6.500
  343BOLB   PO1 8210  13.800  21.530   6.720
  343BOLB   GL1 8211  13.670  21.690   6.280
  343BOLB   GL2 8212  13.990  21.790   6.030
  343BOLB   C1A 8213  13.430  22.080   6.000
  343BOLB   C2A 8214  13.040  22.000   5.770
  343BOLB   C3A 8215  12.960  22.430   5.490
  343BOLB   C4A 8216  13.010  22.600   5.220
  343BOLB   C1B 8217  13.810  21.930   5.600
  343BOLB   C2B 8218  13.440  22.300   5.290
  343BOLB   C3B 8219  13.250  22.240   4.880
  343BOLB   C4B 8220  12.880  22.000   4.790
  343BOLB   NC2 8221  14.200  24.610   4.190
  343BOLB   PO2 8222  13.880  24.660   4.440
  343BOLB   GL3 8223  13.580  24.240   4.560
  343BOLB   GL4 8224  13.410  24.090   4.860
  343BOLB   C1C 8225  13.320  23.870   4.420
  343BOLB   C2C 8226  12.990  23.590   4.340
  343BOLB   C3C 8227  12.900  23.080   4.380
  343BOLB   C4C 8228  12.980  22.760   4.740
  343BOLB   C1D 8229  13.230  24.010   5.180
  343BOLB   C2D 8230  13.080  23.580   5.270
  343BOLB   C3D 8231  13.200  23.190   5.210
  343BOLB   C4D 8232  13.700  23.150   5.110
  344BOLB   NC1 8233  11.960  23.930  13.610
  344BOLB   PO1 8234  11.640  23.830  13.760
  344BOLB   GL1 8235  11.270  23.970  13.950
  344BOLB   GL2 8236  11.170  23.750  14.080
  344BOLB   C1A 8237  11.000  24.210  13.960
  344BOLB   C2A 8238  10.610  24.390  14.270
  344BOLB   C3A 8239  10.240  24.630  14.290
  344BOLB   C4A 8240  10.180  24.970  14.360
  344BOLB   C1B 8241  10.760  23.850  14.220
  344BOLB   C2B 8242  10.330  23.950  14.210
  344BOLB   C3B 8243  10.150  24.190  14.480
  344BOLB   C4B 8244  10.020  24.520  14.690
  344BOLB   NC2 8245   9.680  27.440  14.730
  344BOLB   PO2 8246   9.290  27.210  14.760
  344BOLB   GL3 8247   9.290  26.720  14.770
  344BOLB   GL4 8248   9.490  26.740  14.450
  344BOLB   C1C 8249   9.500  26.400  14.830
  344BOLB   C2C 8250   9.600  25.950  14.810
  344BOLB   C3C 8251   9.650  25.680  14.510
  344BOLB   C4C 8252   9.900  25.330  14.430
  344BOLB   C1D 8253   9.740  26.390  14.300
  344BOLB   C2D 8254  10.070  26.150  14.390
  344BOLB   C3D 8255  10.170  25.790  14.390
  344BOLB   C4D 8256  10.580  25.670  14.390
  345BOLB   NC1 8257  22.160  12.710  14.140
  345BOLB   PO1 8258  22.370  13.140  14.070
  345BOLB   GL1 8259  22.650  12.790  14.350
  345BOLB   GL2 8260  22.950  12.750  14.250
  345BOLB   C1A 8261  22.760  12.490  14.600
  345BOLB   C2A 8262  23.220  12.510  14.790
  345BOLB   C3A 8263  23.530  12.270  14.960
  345BOLB   C4A 8264  24.020  12.230  14.780
  345BOLB   C1B 8265  23.290  12.450  14.300
  345BOLB   C2B 8266  23.570  12.380  14.450
  345BOLB   C3B 8267  24.000  12.470  14.350
  345BOLB   C4B 8268  24.450  12.300  14.150
  345BOLB   NC2 8269  25.840  11.220  15.860
  345BOLB   PO2 8270  26.160  11.550  15.800
  345BOLB   GL3 8271  25.970  11.650  15.540
  345BOLB   GL4 8272  26.010  11.990  15.620
  345BOLB   C1C 8273  25.670  11.840  15.130
  345BOLB   C2C 8274  25.240  11.930  15.060
  345BOLB   C3C 8275  24.750  11.910  14.820
  345BOLB   C4C 8276  24.470  12.110  14.640
  345BOLB   C1D 8277  25.580  12.080  15.550
  345BOLB   C2D 8278  25.200  12.340  15.360
  345BOLB   C3D 8279  24.810  12.340  15.250
  345BOLB   C4D 8280  24.440  12.320  15.070
  346BOLB   NC1 8281  15.380  23.870   8.720
  346BOLB   PO1 8282  15.420  23.600   8.560
  346BOLB   GL1 8283  15.280  23.800   8.210
  346BOLB   GL2 8284  15.030  23.620   8.010
  346BOLB   C1A 8285  15.150  24.200   7.900
  346BOLB   C2A 8286  15.260  24.610   7.810
  346BOLB   C3A 8287  15.440  25.070   7.720
  346BOLB   C4A 8288  15.440  25.560   7.900
  346BOLB   C1B 8289  14.760  23.850   7.870
  346BOLB   C2B 8290  14.570  24.090   7.620
  346BOLB   C3B 8291  14.590  24.220   7.210
  346BOLB   C4B 8292  14.540  24.620   7.020
  346BOLB   NC2 8293  15.180  28.020   7.790
  346BOLB   PO2 8294  15.210  27.950   8.090
  346BOLB   GL3 8295  15.100  27.550   8.090
  346BOLB   GL4 8296  14.870  27.630   8.010
  346BOLB   C1C 8297  14.990  27.120   8.290
  346BOLB   C2C 8298  15.110  26.590   8.270
  346BOLB   C3C 8299  15.250  26.200   8.210
  346BOLB   C4C 8300  15.460  25.910   8.040
  346BOLB   C1D 8301  14.670  27.310   7.960
  346BOLB   C2D 8302  14.170  27.310   7.880
  346BOLB   C3D 8303  13.730  27.280   7.840
  346BOLB   C4D 8304  13.530  27.400   8.150
  347BOLB   NC1 8305  22.960  21.170  13.900
  347BOLB   PO1 8306  23.310  20.850  13.810
  347BOLB   GL1 8307  23.530  21.110  14.110
  347BOLB   GL2 8308  23.340  21.440  14.180
  347BOLB   C1A 8309  23.990  21.250  14.320
  347BOLB   C2A 8310  24.310  21.360  14.500
  347BOLB   C3A 8311  24.450  21.840  14.530
  347BOLB   C4A 8312  24.930  21.980  14.440
  347BOLB   C1B 8313  23.700  21.550  14.040
  347BOLB   C2B 8314  24.140  21.640  14.020
  347BOLB   C3B 8315  24.570  21.650  14.150
  347BOLB   C4B 8316  24.830  21.480  14.430
  347BOLB   NC2 8317  27.460  22.270  13.630
  347BOLB   PO2 8318  27.160  21.890  13.660
  347BOLB   GL3 8319  26.780  21.920  13.910
  347BOLB   GL4 8320  26.670  22.050  14.260
  347BOLB   C1C 8321  26.340  21.930  13.950
  347BOLB   C2C 8322  25.910  22.170  14.030
  347BOLB   C3C 8323  25.630  22.020  14.280
  347BOLB   C4C 8324  25.260  22.090  14.270
  347BOLB   C1D 8325  26.230  22.120  14.360
  347BOLB   C2D 8326  25.970  22.310  14.570
  347BOLB   C3D 8327  25.990  22.720  14.640
  347BOLB   C4D 8328  26.240  22.850  14.820
  348BOLB   NC1 8329  13.120  24.760  15.580
  348BOLB   PO1 8330  12.740  24.560  15.470
  348BOLB   GL1 8331  12.680  24.980  15.330
  348BOLB   GL2 8332  12.390  25.050  15.460
  348BOLB   C1A 8333  12.560  25.370  15.150
  348BOLB   C2A 8334  12.330  25.780  14.990
  348BOLB   C3A 8335  12.050  26.020  14.930
  348BOLB   C4A 8336  11.790  26.320  14.900
  348BOLB   C1B 8337  12.610  25.430  15.620
  348BOLB   C2B 8338  12.650  25.880  15.500
  348BOLB   C3B 8339  12.240  26.170  15.430
  348BOLB   C4B 8340  11.910  26.470  15.370
  348BOLB   NC2 8341  10.970  28.410  14.660
  348BOLB   PO2 8342  10.710  28.170  14.880
  348BOLB   GL3 8343  10.980  27.870  14.860
  348BOLB   GL4 8344  11.020  27.700  14.490
  348BOLB   C1C 8345  11.190  27.570  15.020
  348BOLB   C2C 8346  11.100  27.220  15.270
  348BOLB   C3C 8347  11.280  26.840  15.250
  348BOLB   C4C 8348  11.480  26.570  15.110
  348BOLB   C1D 8349  11.070  27.290  14.310
  348BOLB   C2D 8350  11.390  27.290  14.660
  348BOLB   C3D 8351  11.600  27.200  14.980
  348BOLB   C4D 8352  11.890  26.840  14.950
  349BOLB   NC1 8353  21.240  14.130  17.290
  349BOLB   PO1 8354  21.150  14.500  17.130
  349BOLB   GL1 8355  21.470  14.500  17.490
  349BOLB   GL2 8356  21.590  14.230  17.610
  349BOLB   C1A 8357  21.900  14.650  17.680
  349BOLB   C2A 8358  22.250  14.870  17.800
  349BOLB   C3A 8359  22.590  14.870  18.040
  349BOLB   C4A 8360  22.790  14.670  18.310
  349BOLB   C1B 8361  21.880  14.090  17.950
  349BOLB   C2B 8362  22.050  13.940  18.340
  349BOLB   C3B 8363  22.480  13.710  18.360
  349BOLB   C4B 8364  22.590  13.530  18.750
  349BOLB   NC2 8365  24.630  14.560  19.810
  349BOLB   PO2 8366  24.810  14.420  19.520
  349BOLB   GL3 8367  24.680  14.380  19.090
  349BOLB   GL4 8368  24.730  14.680  19.020
  349BOLB   C1C 8369  24.270  14.450  19.020
  349BOLB   C2C 8370  23.880  14.750  19.030
  349BOLB   C3C 8371  23.410  14.900  18.920
  349BOLB   C4C 8372  23.030  14.690  18.690
  349BOLB   C1D 8373  24.330  14.820  18.710
  349BOLB   C2D 8374  24.030  15.060  18.660
  349BOLB   C3D 8375  23.860  15.210  19.030
  349BOLB   C4D 8376  23.860  15.050  19.450
  350BOLB   NC1 8377  21.220  11.700  13.490
  350BOLB   PO1 8378  21.540  11.840  13.430
  350BOLB   GL1 8379  21.870  11.570  13.670
  350BOLB   GL2 8380  22.240  11.700  13.650
  350BOLB   C1A 8381  22.150  11.210  13.750
  350BOLB   C2A 8382  22.530  10.930  13.870
  350BOLB   C3A 8383  22.800  10.680  14.080
  350BOLB   C4A 8384  23.080  10.510  14.410
  350BOLB   C1B 8385  22.550  11.620  13.960
  350BOLB   C2B 8386  22.860  11.610  14.370
  350BOLB   C3B 8387  23.150  11.430  14.620
  350BOLB   C4B 8388  23.280  11.040  14.500
  350BOLB   NC2 8389  25.570  10.310  15.380
  350BOLB   PO2 8390  25.170  10.190  15.380
  350BOLB   GL3 8391  24.880  10.190  15.130
  350BOLB   GL4 8392  24.700   9.960  15.010
  350BOLB   C1C 8393  24.510  10.420  15.010
  350BOLB   C2C 8394  24.160  10.360  14.740
  350BOLB   C3C 8395  23.640  10.350  14.660
  350BOLB   C4C 8396  23.340  10.500  14.710
  350BOLB   C1D 8397  24.190   9.900  14.990
  350BOLB   C2D 8398  23.680   9.980  14.980
  350BOLB   C3D 8399  23.240   9.930  14.840
  350BOLB   C4D 8400  22.990   9.620  14.770
  351BOLB   NC1 8401  19.280  13.090   5.870
  351BOLB   PO1 8402  19.670  13.250   5.750
  351BOLB   GL1 8403  19.870  13.340   5.410
  351BOLB   GL2 8404  19.770  12.950   5.260
  351BOLB   C1A 8405  20.110  13.460   5.020
  351BOLB   C2A 8406  20.410  13.680   4.770
  351BOLB   C3A 8407  20.770  13.490   4.510
  351BOLB   C4A 8408  21.070  13.540   4.290
  351BOLB   C1B 8409  19.960  12.600   5.280
  351BOLB   C2B 8410  20.170  12.320   4.950
  351BOLB   C3B 8411  20.430  12.170   4.700
  351BOLB   C4B 8412  20.920  12.070   4.550
  351BOLB   NC2 8413  22.120  11.740   2.070
  351BOLB   PO2 8414  21.740  11.980   2.370
  351BOLB   GL3 8415  21.490  12.310   2.610
  351BOLB   GL4 8416  21.200  12.590   2.410
  351BOLB   C1C 8417  21.510  12.640   2.920
  351BOLB   C2C 8418  21.510  13.040   3.260
  351BOLB   C3C 8419  21.520  13.450   3.560
  351BOLB   C4C 8420  21.250  13.640   3.890
  351BOLB   C1D 8421  20.840  12.860   2.590
  351BOLB   C2D 8422  20.630  13.040   2.930
  351BOLB   C3D 8423  20.510  13.270   3.330
  351BOLB   C4D 8424  20.500  13.610   3.640
  352BOLB   NC1 8425  21.520  17.900   6.430
  352BOLB   PO1 8426  21.820  18.140   6.540
  352BOLB   GL1 8427  22.150  18.000   6.180
  352BOLB   GL2 8428  22.420  17.770   6.260
  352BOLB   C1A 8429  22.500  17.910   5.710
  352BOLB   C2A 8430  22.280  18.000   5.250
  352BOLB   C3A 8431  22.170  17.650   4.950
  352BOLB   C4A 8432  22.330  17.650   4.610
  352BOLB   C1B 8433  22.760  17.920   6.140
  352BOLB   C2B 8434  22.970  18.080   5.780
  352BOLB   C3B 8435  23.330  17.910   5.590
  352BOLB   C4B 8436  23.530  17.920   5.140
  352BOLB   NC2 8437  23.200  16.970   2.050
  352BOLB   PO2 8438  23.370  17.340   2.180
  352BOLB   GL3 8439  23.280  17.380   2.630
  352BOLB   GL4 8440  23.570  17.220   2.780
  352BOLB   C1C 8441  23.060  17.590   2.920
  352BOLB   C2C 8442  22.980  17.470   3.390
  352BOLB   C3C 8443  22.880  17.310   3.910
  352BOLB   C4C 8444  22.590  17.380   4.270
  352BOLB   C1D 8445  23.090  16.930   3.030
  352BOLB   C2D 8446  22.700  16.730   3.080
  352BOLB   C3D 8447  22.310  16.790   3.260
  352BOLB   C4D 8448  22.230  16.580   3.700
  353BOLB   NC1 8449  18.440  12.160   5.850
  353BOLB   PO1 8450  18.380  12.500   5.440
  353BOLB   GL1 8451  18.610  12.350   5.120
  353BOLB   GL2 8452  18.420  12.280   4.860
  353BOLB   C1A 8453  18.930  12.110   5.120
  353BOLB   C2A 8454  19.170  11.900   4.860
  353BOLB   C3A 8455  19.470  11.710   4.640
  353BOLB   C4A 8456  19.860  11.790   4.610
  353BOLB   C1B 8457  18.320  12.150   4.510
  353BOLB   C2B 8458  18.610  12.280   4.130
  353BOLB   C3B 8459  18.960  12.000   3.940
  353BOLB   C4B 8460  19.110  11.590   3.810
  353BOLB   NC2 8461  21.180  10.870   2.850
  353BOLB   PO2 8462  20.930  11.190   2.850
  353BOLB   GL3 8463  20.600  11.190   3.100
  353BOLB   GL4 8464  20.690  11.110   3.430
  353BOLB   C1C 8465  20.510  11.600   3.310
  353BOLB   C2C 8466  20.590  11.960   3.720
  353BOLB   C3C 8467  20.620  11.800   4.150
  353BOLB   C4C 8468  20.250  11.700   4.420
  353BOLB   C1D 8469  20.860  11.430   3.710
  353BOLB   C2D 8470  21.120  11.480   4.030
  353BOLB   C3D 8471  21.630  11.640   4.110
  353BOLB   C4D 8472  21.970  11.570   3.820
  354BOLB   NC1 8473  16.520  15.480   4.150
  354BOLB   PO1 8474  16.750  15.920   3.940
  354BOLB   GL1 8475  16.850  15.990   3.560
  354BOLB   GL2 8476  16.660  16.280   3.510
  354BOLB   C1A 8477  17.060  15.970   3.250
  354BOLB   C2A 8478  17.270  15.650   3.040
  354BOLB   C3A 8479  17.300  15.520   2.670
  354BOLB   C4A 8480  17.380  15.310   2.320
  354BOLB   C1B 8481  16.590  16.720   3.320
  354BOLB   C2B 8482  16.800  16.970   3.090
  354BOLB   C3B 8483  16.860  17.280   2.950
  354BOLB   C4B 8484  17.200  17.420   2.590
  354BOLB   NC2 8485  16.820  14.060   0.110
  354BOLB   PO2 8486  16.720  14.570   0.150
  354BOLB   GL3 8487  16.860  14.580   0.510
  354BOLB   GL4 8488  17.210  14.690   0.660
  354BOLB   C1C 8489  16.800  14.690   0.940
  354BOLB   C2C 8490  16.970  14.660   1.320
  354BOLB   C3C 8491  17.040  14.920   1.760
  354BOLB   C4C 8492  17.140  15.270   2.000
  354BOLB   C1D 8493  17.000  15.110   0.760
  354BOLB   C2D 8494  16.850  15.460   1.010
  354BOLB   C3D 8495  16.710  15.800   1.230
  354BOLB   C4D 8496  16.540  15.840   1.560
  355BOLB   NC1 8497  23.790  19.150  13.100
  355BOLB   PO1 8498  23.830  18.740  13.230
  355BOLB   GL1 8499  24.210  18.870  13.590
  355BOLB   GL2 8500  24.220  18.570  13.690
  355BOLB   C1A 8501  24.650  19.150  13.680
  355BOLB   C2A 8502  24.850  19.480  13.740
  355BOLB   C3A 8503  25.280  19.660  13.680
  355BOLB   C4A 8504  25.660  19.650  13.600
  355BOLB   C1B 8505  24.630  18.560  13.760
  355BOLB   C2B 8506  24.990  18.740  13.500
  355BOLB   C3B 8507  25.150  19.090  13.470
  355BOLB   C4B 8508  25.550  19.120  13.580
  355BOLB   NC2 8509  27.750  20.460  13.000
  355BOLB   PO2 8510  27.910  20.260  13.430
  355BOLB   GL3 8511  27.470  20.150  13.620
  355BOLB   GL4 8512  27.390  20.280  13.360
  355BOLB   C1C 8513  27.270  19.850  13.810
  355BOLB   C2C 8514  26.970  19.520  13.710
  355BOLB   C3C 8515  26.540  19.500  13.570
  355BOLB   C4C 8516  26.080  19.590  13.530
  355BOLB   C1D 8517  27.070  19.960  13.310
  355BOLB   C2D 8518  26.650  19.980  13.400
  355BOLB   C3D 8519  26.280  20.060  13.440
  355BOLB   C4D 8520  25.980  20.010  13.870
  356BOLB   NC1 8521  26.820  25.450  12.890
  356BOLB   PO1 8522  26.360  25.250  12.880
  356BOLB   GL1 8523  26.140  24.890  13.110
  356BOLB   GL2 8524  25.810  25.040  13.110
  356BOLB   C1A 8525  25.900  24.480  13.110
  356BOLB   C2A 8526  25.740  24.010  13.020
  356BOLB   C3A 8527  25.620  23.630  12.950
  356BOLB   C4A 8528  25.340  23.370  12.800
  356BOLB   C1B 8529  25.480  24.810  12.970
  356BOLB   C2B 8530  25.150  24.600  12.800
  356BOLB   C3B 8531  24.860  24.200  12.770
  356BOLB   C4B 8532  24.500  24.090  12.580
  356BOLB   NC2 8533  25.990  24.540  11.610
  356BOLB   PO2 8534  26.440  24.330  11.430
  356BOLB   GL3 8535  26.080  24.050  11.430
  356BOLB   GL4 8536  26.080  23.770  11.160
  356BOLB   C1C 8537  25.810  23.830  11.780
  356BOLB   C2C 8538  25.500  23.390  11.730
  356BOLB   C3C 8539  25.280  23.140  12.000
  356BOLB   C4C 8540  25.190  23.250  12.460
  356BOLB   C1D 8541  25.710  23.730  11.250
  356BOLB   C2D 8542  25.390  23.460  11.260
  356BOLB   C3D 8543  24.960  23.170  11.250
  356BOLB   C4D 8544  24.640  23.100  11.030
  357BOLB   NC1 8545  18.790  17.800  20.110
  357BOLB   PO1 8546  18.470  18.080  20.210
  357BOLB   GL1 8547  18.750  18.320  20.440
  357BOLB   GL2 8548  18.820  18.550  20.350
  357BOLB   C1A 8549  18.800  18.340  20.810
  357BOLB   C2A 8550  19.080  18.500  21.090
  357BOLB   C3A 8551  19.290  18.570  21.480
  357BOLB   C4A 8552  19.550  18.740  21.760
  357BOLB   C1B 8553  19.190  18.650  20.580
  357BOLB   C2B 8554  19.430  18.940  20.870
  357BOLB   C3B 8555  19.860  19.200  20.990
  357BOLB   C4B 8556  20.240  19.320  21.100
  357BOLB   NC2 8557  20.750  19.670  24.030
  357BOLB   PO2 8558  20.960  19.810  23.640
  357BOLB   GL3 8559  20.670  19.770  23.190
  357BOLB   GL4 8560  20.390  19.980  23.200
  357BOLB   C1C 8561  20.510  19.640  22.810
  357BOLB   C2C 8562  20.360  19.350  22.620
  357BOLB   C3C 8563  20.040  19.210  22.250
  357BOLB   C4C 8564  19.790  19.070  21.940
  357BOLB   C1D 8565  20.070  19.920  22.920
  357BOLB   C2D 8566  19.930  19.450  22.840
  357BOLB   C3D 8567  19.630  19.240  22.580
  357BOLB   C4D 8568  19.290  19.280  22.190
  358BOLB   NC1 8569  17.210  24.490  17.020
  358BOLB   PO1 8570  17.180  24.890  17.010
  358BOLB   GL1 8571  17.460  25.070  17.310
  358BOLB   GL2 8572  17.430  24.910  17.560
  358BOLB   C1A 8573  17.350  25.400  17.480
  358BOLB   C2A 8574  17.000  25.630  17.730
  358BOLB   C3A 8575  16.720  25.750  18.080
  358BOLB   C4A 8576  16.240  26.050  18.200
  358BOLB   C1B 8577  17.610  25.030  17.870
  358BOLB   C2B 8578  17.760  25.370  17.840
  358BOLB   C3B 8579  17.480  25.640  17.850
  358BOLB   C4B 8580  17.160  26.100  17.920
  358BOLB   NC2 8581  15.180  27.600  20.190
  358BOLB   PO2 8582  15.160  27.460  19.810
  358BOLB   GL3 8583  15.180  27.330  19.470
  358BOLB   GL4 8584  15.330  27.550  19.180
  358BOLB   C1C 8585  15.560  27.010  19.440
  358BOLB   C2C 8586  15.850  26.800  19.030
  358BOLB   C3C 8587  16.090  26.760  18.690
  358BOLB   C4C 8588  16.070  26.390  18.430
  358BOLB   C1D 8589  15.420  27.250  18.970
  358BOLB   C2D 8590  15.600  26.980  18.660
  358BOLB   C3D 8591  15.570  26.650  18.570
  358BOLB   C4D 8592  15.730  26.350  18.850
  359BOLB   NC1 8593  17.770  16.390  20.920
  359BOLB   PO1 8594  17.720  16.850  21.010
  359BOLB   GL1 8595  18.000  16.720  21.260
  359BOLB   GL2 8596  17.760  16.550  21.400
  359BOLB   C1A 8597  18.370  16.470  21.370
  359BOLB   C2A 8598  18.780  16.510  21.650
  359BOLB   C3A 8599  19.060  16.110  21.790
  359BOLB   C4A 8600  19.300  15.780  22.030
  359BOLB   C1B 8601  18.150  16.590  21.800
  359BOLB   C2B 8602  18.230  16.460  22.230
  359BOLB   C3B 8603  18.350  16.250  22.560
  359BOLB   C4B 8604  18.450  15.850  22.510
  359BOLB   NC2 8605  19.930  15.220  23.850
  359BOLB   PO2 8606  20.330  15.150  24.010
  359BOLB   GL3 8607  20.330  15.030  23.580
  359BOLB   GL4 8608  20.350  14.650  23.490
  359BOLB   C1C 8609  20.110  15.170  23.200
  359BOLB   C2C 8610  19.980  15.290  22.830
  359BOLB   C3C 8611  19.710  15.470  22.600
  359BOLB   C4C 8612  19.420  15.650  22.400
  359BOLB   C1D 8613  20.000  14.670  23.120
  359BOLB   C2D 8614  19.660  14.890  22.770
  359BOLB   C3D 8615  19.540  15.030  22.330
  359BOLB   C4D 8616  19.380  15.240  21.930
  360BOLB   NC1 8617  18.300  23.750  16.920
  360BOLB   PO1 8618  18.640  24.160  16.990
  360BOLB   GL1 8619  18.800  24.390  17.270
  360BOLB   GL2 8620  18.700  24.670  17.010
  360BOLB   C1A 8621  18.990  24.760  17.490
  360BOLB   C2A 8622  19.080  25.110  17.530
  360BOLB   C3A 8623  19.320  25.560  17.520
  360BOLB   C4A 8624  19.490  25.900  17.310
  360BOLB   C1B 8625  18.600  24.960  17.320
  360BOLB   C2B 8626  18.580  25.200  17.650
  360BOLB   C3B 8627  18.900  25.520  17.810
  360BOLB   C4B 8628  19.170  26.020  17.670
  360BOLB   NC2 8629  20.820  27.490  18.850
  360BOLB   PO2 8630  20.570  27.610  18.590
  360BOLB   GL3 8631  20.500  27.180  18.540
  360BOLB   GL4 8632  20.840  27.150  18.460
  360BOLB   C1C 8633  20.110  26.940  18.490
  360BOLB   C2C 8634  19.990  26.590  18.180
  360BOLB   C3C 8635  19.780  26.400  17.910
  360BOLB   C4C 8636  19.610  26.190  17.510
  360BOLB   C1D 8637  20.470  26.960  18.090
  360BOLB   C2D 8638  20.530  26.920  17.650
  360BOLB   C3D 8639  20.550  26.560  17.340
  360BOLB   C4D 8640  20.450  26.210  17.020
  361BOLB   NC1 8641  23.310  18.750  14.860
  361BOLB   PO1 8642  23.370  19.030  15.170
  361BOLB   GL1 8643  23.780  19.270  15.240
  361BOLB   GL2 8644  23.750  19.590  15.400
  361BOLB   C1A 8645  24.030  19.260  15.640
  361BOLB   C2A 8646  24.340  19.050  15.790
  361BOLB   C3A 8647  24.610  18.830  16.080
  361BOLB   C4A 8648  24.550  18.440  16.380
  361BOLB   C1B 8649  24.130  19.700  15.530
  361BOLB   C2B 8650  24.550  19.540  15.770
  361BOLB   C3B 8651  24.950  19.700  15.680
  361BOLB   C4B 8652  25.350  19.920  16.030
  361BOLB   NC2 8653  26.780  18.550  17.190
  361BOLB   PO2 8654  26.820  18.150  17.140
  361BOLB   GL3 8655  26.360  18.180  17.110
  361BOLB   GL4 8656  26.190  18.170  17.450
  361BOLB   C1C 8657  26.110  18.240  16.770
  361BOLB   C2C 8658  25.700  18.340  16.680
  361BOLB   C3C 8659  25.230  18.410  16.810
  361BOLB   C4C 8660  24.850  18.190  16.660
  361BOLB   C1D 8661  25.710  18.370  17.460
  361BOLB   C2D 8662  25.390  18.240  17.400
  361BOLB   C3D 8663  25.000  18.190  17.220
  361BOLB   C4D 8664  24.720  18.480  17.120
  362BOLB   NC1 8665  16.160  13.330   4.640
  362BOLB   PO1 8666  16.020  13.760   4.420
  362BOLB   GL1 8667  16.010  13.450   4.130
  362BOLB   GL2 8668  15.800  13.410   3.740
  362BOLB   C1A 8669  16.230  13.110   3.860
  362BOLB   C2A 8670  16.570  12.880   3.540
  362BOLB   C3A 8671  16.560  12.650   3.150
  362BOLB   C4A 8672  16.400  12.530   2.750
  362BOLB   C1B 8673  15.690  13.760   3.540
  362BOLB   C2B 8674  15.850  14.240   3.440
  362BOLB   C3B 8675  15.990  14.320   3.060
  362BOLB   C4B 8676  15.900  14.200   2.640
  362BOLB   NC2 8677  16.430  11.960   0.730
  362BOLB   PO2 8678  16.530  12.380   0.670
  362BOLB   GL3 8679  16.380  12.550   1.000
  362BOLB   GL4 8680  16.640  12.380   1.170
  362BOLB   C1C 8681  16.310  12.660   1.380
  362BOLB   C2C 8682  15.990  12.810   1.650
  362BOLB   C3C 8683  16.120  12.760   1.990
  362BOLB   C4C 8684  16.340  12.770   2.420
  362BOLB   C1D 8685  16.890  12.540   1.520
  362BOLB   C2D 8686  17.210  12.360   1.890
  362BOLB   C3D 8687  17.320  12.390   2.330
  362BOLB   C4D 8688  17.380  12.390   2.730
  363BOLB   NC1 8689  24.250  17.210  11.950
  363BOLB   PO1 8690  24.100  17.520  12.280
  363BOLB   GL1 8691  24.550  17.600  12.140
  363BOLB   GL2 8692  24.750  17.330  12.100
  363BOLB   C1A 8693  25.030  17.840  12.100
  363BOLB   C2A 8694  25.510  17.790  11.990
  363BOLB   C3A 8695  25.930  17.850  11.950
  363BOLB   C4A 8696  26.240  17.730  11.750
  363BOLB   C1B 8697  25.220  17.240  11.960
  363BOLB   C2B 8698  25.500  16.880  11.710
  363BOLB   C3B 8699  25.850  16.990  11.470
  363BOLB   C4B 8700  26.320  16.810  11.380
  363BOLB   NC2 8701  28.440  17.400  11.490
  363BOLB   PO2 8702  28.420  17.690  11.130
  363BOLB   GL3 8703  27.940  17.770  11.230
  363BOLB   GL4 8704  28.010  17.900  11.530
  363BOLB   C1C 8705  27.520  17.670  11.030
  363BOLB   C2C 8706  27.130  17.790  11.040
  363BOLB   C3C 8707  26.650  17.760  10.990
  363BOLB   C4C 8708  26.350  17.800  11.280
  363BOLB   C1D 8709  27.620  17.630  11.630
  363BOLB   C2D 8710  27.290  17.570  11.490
  363BOLB   C3D 8711  26.920  17.400  11.270
  363BOLB   C4D 8712  26.830  17.050  11.390
  364BOLB   NC1 8713  12.670  15.990   4.390
  364BOLB   PO1 8714  12.770  16.370   4.620
  364BOLB   GL1 8715  12.830  16.490   4.150
  364BOLB   GL2 8716  12.450  16.520   4.240
  364BOLB   C1A 8717  12.750  16.390   3.700
  364BOLB   C2A 8718  12.580  15.930   3.510
  364BOLB   C3A 8719  12.570  15.640   3.080
  364BOLB   C4A 8720  12.340  15.180   3.040
  364BOLB   C1B 8721  12.220  16.310   3.980
  364BOLB   C2B 8722  12.040  16.260   3.660
  364BOLB   C3B 8723  11.560  16.340   3.520
  364BOLB   C4B 8724  11.430  16.190   3.080
  364BOLB   NC2 8725  12.120  14.970   0.630
  364BOLB   PO2 8726  12.180  15.390   0.780
  364BOLB   GL3 8727  12.010  15.480   1.240
  364BOLB   GL4 8728  11.690  15.730   1.290
  364BOLB   C1C 8729  12.090  15.310   1.580
  364BOLB   C2C 8730  12.140  14.950   1.790
  364BOLB   C3C 8731  12.190  14.790   2.180
  364BOLB   C4C 8732  12.220  14.840   2.750
  364BOLB   C1D 8733  11.940  15.840   1.570
  364BOLB   C2D 8734  12.230  15.840   1.910
  364BOLB   C3D 8735  12.630  15.800   2.160
  364BOLB   C4D 8736  12.840  15.750   2.690
  365BOLB   NC1 8737  10.130  22.260  14.490
  365BOLB   PO1 8738  10.230  22.460  14.860
  365BOLB   GL1 8739   9.780  22.530  14.730
  365BOLB   GL2 8740   9.860  22.740  15.040
  365BOLB   C1A 8741   9.370  22.680  14.670
  365BOLB   C2A 8742   9.130  22.980  14.420
  365BOLB   C3A 8743   8.920  23.150  14.040
  365BOLB   C4A 8744   8.570  23.210  13.920
  365BOLB   C1B 8745   9.510  23.030  15.000
  365BOLB   C2B 8746   9.230  23.300  15.170
  365BOLB   C3B 8747   8.720  23.270  15.260
  365BOLB   C4B 8748   8.530  22.830  15.330
  365BOLB   NC2 8749   7.550  25.190  13.470
  365BOLB   PO2 8750   7.880  25.430  13.230
  365BOLB   GL3 8751   8.020  24.980  13.440
  365BOLB   GL4 8752   7.980  24.950  13.830
  365BOLB   C1C 8753   8.340  24.720  13.570
  365BOLB   C2C 8754   8.460  24.350  13.630
  365BOLB   C3C 8755   8.340  23.940  13.540
  365BOLB   C4C 8756   8.370  23.450  13.620
  365BOLB   C1D 8757   8.060  24.990  14.190
  365BOLB   C2D 8758   7.880  24.660  14.460
  365BOLB   C3D 8759   8.010  24.520  14.880
  365BOLB   C4D 8760   8.220  24.160  15.010
  366BOLB   NC1 8761  19.220   9.460  10.650
  366BOLB   PO1 8762  19.630   9.620  10.430
  366BOLB   GL1 8763  19.960   9.360  10.330
  366BOLB   GL2 8764  19.900   9.220  10.040
  366BOLB   C1A 8765  20.270   8.970  10.200
  366BOLB   C2A 8766  20.350   8.550  10.170
  366BOLB   C3A 8767  20.480   8.120  10.270
  366BOLB   C4A 8768  20.780   7.770  10.230
  366BOLB   C1B 8769  20.040   8.770   9.720
  366BOLB   C2B 8770  20.240   8.460   9.370
  366BOLB   C3B 8771  20.170   8.210   8.980
  366BOLB   C4B 8772  20.440   8.190   8.610
  366BOLB   NC2 8773  20.820   5.410   9.810
  366BOLB   PO2 8774  20.950   5.730   9.380
  366BOLB   GL3 8775  20.690   6.060   9.590
  366BOLB   GL4 8776  20.710   6.160   9.950
  366BOLB   C1C 8777  20.680   6.520   9.560
  366BOLB   C2C 8778  20.690   6.720   9.900
  366BOLB   C3C 8779  20.780   6.990  10.170
  366BOLB   C4C 8780  20.900   7.370  10.210
  366BOLB   C1D 8781  20.990   6.370  10.250
  366BOLB   C2D 8782  20.750   6.650  10.480
  366BOLB   C3D 8783  20.450   6.770  10.870
  366BOLB   C4D 8784  20.040   6.920  10.890
  367BOLB   NC1 8785  21.910  15.010   6.870
  367BOLB   PO1 8786  21.870  15.270   7.230
  367BOLB   GL1 8787  22.350  15.190   7.020
  367BOLB   GL2 8788  22.570  15.310   7.160
  367BOLB   C1A 8789  22.630  15.290   6.610
  367BOLB   C2A 8790  22.940  15.080   6.460
  367BOLB   C3A 8791  23.320  14.870   6.210
  367BOLB   C4A 8792  23.510  14.640   5.850
  367BOLB   C1B 8793  22.770  14.980   6.960
  367BOLB   C2B 8794  23.040  14.790   6.840
  367BOLB   C3B 8795  23.020  14.560   6.470
  367BOLB   C4B 8796  23.090  14.500   6.000
  367BOLB   NC2 8797  24.940  12.700   4.450
  367BOLB   PO2 8798  24.550  12.750   4.630
  367BOLB   GL3 8799  24.260  13.110   4.780
  367BOLB   GL4 8800  24.480  13.270   4.950
  367BOLB   C1C 8801  24.040  13.440   5.030
  367BOLB   C2C 8802  23.770  13.670   5.200
  367BOLB   C3C 8803  23.470  13.810   5.490
  367BOLB   C4C 8804  23.590  14.230   5.620
  367BOLB   C1D 8805  24.410  13.760   4.980
  367BOLB   C2D 8806  24.300  14.180   5.270
  367BOLB   C3D 8807  23.830  14.260   5.160
  367BOLB   C4D 8808  23.380  14.190   5.190
  368BOLB   NC1 8809  18.030   9.140  12.790
  368BOLB   PO1 8810  17.890   9.130  13.250
  368BOLB   GL1 8811  18.110   8.820  13.230
  368BOLB   GL2 8812  17.960   8.700  13.000
  368BOLB   C1A 8813  18.280   8.430  13.280
  368BOLB   C2A 8814  18.290   7.950  13.220
  368BOLB   C3A 8815  18.220   7.570  12.970
  368BOLB   C4A 8816  18.030   7.150  12.820
  368BOLB   C1B 8817  18.050   8.270  12.880
  368BOLB   C2B 8818  17.830   7.910  12.810
  368BOLB   C3B 8819  17.560   7.550  12.720
  368BOLB   C4B 8820  17.220   7.240  12.550
  368BOLB   NC2 8821  18.320   5.100  14.600
  368BOLB   PO2 8822  17.940   5.200  14.410
  368BOLB   GL3 8823  17.860   5.700  14.140
  368BOLB   GL4 8824  17.900   5.690  13.850
  368BOLB   C1C 8825  17.790   6.150  14.110
  368BOLB   C2C 8826  17.860   6.540  13.790
  368BOLB   C3C 8827  17.960   6.630  13.450
  368BOLB   C4C 8828  17.990   6.880  13.150
  368BOLB   C1D 8829  17.660   5.900  13.670
  368BOLB   C2D 8830  17.450   6.320  13.720
  368BOLB   C3D 8831  17.190   6.560  13.770
  368BOLB   C4D 8832  17.040   6.740  14.230
  369BOLB   NC1 8833  17.550  15.530  20.740
  369BOLB   PO1 8834  17.360  16.020  20.810
  369BOLB   GL1 8835  17.690  15.970  21.170
  369BOLB   GL2 8836  17.720  15.580  21.230
  369BOLB   C1A 8837  17.910  16.060  21.560
  369BOLB   C2A 8838  18.200  15.990  21.870
  369BOLB   C3A 8839  18.010  16.000  22.230
  369BOLB   C4A 8840  17.850  16.270  22.620
  369BOLB   C1B 8841  17.810  15.550  21.580
  369BOLB   C2B 8842  17.890  15.550  21.990
  369BOLB   C3B 8843  18.150  15.500  22.390
  369BOLB   C4B 8844  18.620  15.420  22.560
  369BOLB   NC2 8845  18.940  16.350  24.840
  369BOLB   PO2 8846  18.590  16.600  24.920
  369BOLB   GL3 8847  18.300  16.670  24.580
  369BOLB   GL4 8848  18.100  16.470  24.570
  369BOLB   C1C 8849  18.170  16.720  24.040
  369BOLB   C2C 8850  17.840  16.770  23.740
  369BOLB   C3C 8851  17.760  16.570  23.420
  369BOLB   C4C 8852  17.900  16.440  22.990
  369BOLB   C1D 8853  17.910  16.350  24.300
  369BOLB   C2D 8854  17.540  16.480  24.030
  369BOLB   C3D 8855  17.350  16.620  23.670
  369BOLB   C4D 8856  17.300  16.370  23.330
  370BOLB   NC1 8857  10.600  21.740  10.090
  370BOLB   PO1 8858  10.520  21.900  10.490
  370BOLB   GL1 8859  10.200  22.080  10.320
  370BOLB   GL2 8860  10.190  22.120   9.980
  370BOLB   C1A 8861   9.790  22.240  10.350
  370BOLB   C2A 8862   9.590  22.550  10.640
  370BOLB   C3A 8863   9.200  22.730  10.780
  370BOLB   C4A 8864   9.000  22.950  10.910
  370BOLB   C1B 8865  10.360  22.470  10.130
  370BOLB   C2B 8866  10.230  22.810   9.970
  370BOLB   C3B 8867   9.790  22.960   9.860
  370BOLB   C4B 8868   9.420  23.040   9.780
  370BOLB   NC2 8869   6.340  24.120  10.330
  370BOLB   PO2 8870   6.490  23.960  10.700
  370BOLB   GL3 8871   6.840  23.830  10.970
  370BOLB   GL4 8872   6.820  23.990  11.270
  370BOLB   C1C 8873   7.170  23.500  10.930
  370BOLB   C2C 8874   7.690  23.400  10.900
  370BOLB   C3C 8875   8.210  23.200  10.910
  370BOLB   C4C 8876   8.650  23.070  10.870
  370BOLB   C1D 8877   7.150  23.800  11.410
  370BOLB   C2D 8878   7.440  23.480  11.380
  370BOLB   C3D 8879   7.650  23.170  11.720
  370BOLB   C4D 8880   7.910  23.000  11.940
  371BOLB   NC1 8881  12.550  13.610   5.480
  371BOLB   PO1 8882  12.060  13.460   5.590
  371BOLB   GL1 8883  11.750  13.320   5.260
  371BOLB   GL2 8884  11.910  13.070   5.250
  371BOLB   C1A 8885  11.630  13.300   4.880
  371BOLB   C2A 8886  11.440  13.230   4.450
  371BOLB   C3A 8887  11.120  13.100   4.320
  371BOLB   C4A 8888  11.000  12.790   3.960
  371BOLB   C1B 8889  11.670  12.790   5.050
  371BOLB   C2B 8890  11.460  12.490   4.910
  371BOLB   C3B 8891  11.260  12.570   4.430
  371BOLB   C4B 8892  10.900  12.360   4.090
  371BOLB   NC2 8893   9.570  11.830   2.670
  371BOLB   PO2 8894   9.900  11.620   2.560
  371BOLB   GL3 8895  10.100  11.780   2.880
  371BOLB   GL4 8896  10.450  11.690   2.780
  371BOLB   C1C 8897  10.330  12.120   3.000
  371BOLB   C2C 8898  10.670  12.200   3.270
  371BOLB   C3C 8899  10.980  12.470   3.350
  371BOLB   C4C 8900  10.950  12.750   3.550
  371BOLB   C1D 8901  10.540  11.740   3.310
  371BOLB   C2D 8902  10.690  11.800   3.740
  371BOLB   C3D 8903  10.540  11.960   4.140
  371BOLB   C4D 8904  10.280  12.070   4.470
  372BOLB   NC1 8905  12.500  18.630   5.920
  372BOLB   PO1 8906  12.510  18.430   5.530
  372BOLB   GL1 8907  12.360  18.580   5.180
  372BOLB   GL2 8908  12.050  18.510   5.140
  372BOLB   C1A 8909  12.210  18.750   4.710
  372BOLB   C2A 8910  11.940  18.690   4.360
  372BOLB   C3A 8911  11.910  18.550   3.970
  372BOLB   C4A 8912  11.650  18.710   3.800
  372BOLB   C1B 8913  11.690  18.600   4.940
  372BOLB   C2B 8914  11.380  18.810   4.760
  372BOLB   C3B 8915  11.040  19.040   4.620
  372BOLB   C4B 8916  10.830  19.520   4.630
  372BOLB   NC2 8917   9.990  17.820   1.870
  372BOLB   PO2 8918   9.940  18.190   2.190
  372BOLB   GL3 8919   9.850  18.210   2.560
  372BOLB   GL4 8920   9.680  17.950   2.860
  372BOLB   C1C 8921  10.020  18.540   2.920
  372BOLB   C2C 8922  10.470  18.510   3.080
  372BOLB   C3C 8923  10.910  18.470   3.270
  372BOLB   C4C 8924  11.290  18.630   3.460
  372BOLB   C1D 8925   9.980  17.990   3.080
  372BOLB   C2D 8926  10.540  18.050   3.260
  372BOLB   C3D 8927  10.870  17.990   3.520
  372BOLB   C4D 8928  11.140  17.730   3.710
  373BOLB   NC1 8929  26.240  24.870  10.780
  373BOLB   PO1 8930  26.350  24.520  10.510
  373BOLB   GL1 8931  26.140  24.070  10.480
  373BOLB   GL2 8932  25.960  23.840  10.270
  373BOLB   C1A 8933  25.800  23.870  10.780
  373BOLB   C2A 8934  25.340  23.840  10.930
  373BOLB   C3A 8935  24.990  23.520  10.840
  373BOLB   C4A 8936  24.580  23.580  11.000
  373BOLB   C1B 8937  25.910  23.450  10.470
  373BOLB   C2B 8938  25.740  23.030  10.530
  373BOLB   C3B 8939  25.400  22.750  10.410
  373BOLB   C4B 8940  25.180  22.500  10.620
  373BOLB   NC2 8941  25.920  25.100  12.660
  373BOLB   PO2 8942  26.040  25.110  12.300
  373BOLB   GL3 8943  25.680  24.890  12.150
  373BOLB   GL4 8944  25.540  24.830  12.430
  373BOLB   C1C 8945  25.300  24.630  12.010
  373BOLB   C2C 8946  25.070  24.330  11.750
  373BOLB   C3C 8947  24.750  24.060  11.570
  373BOLB   C4C 8948  24.450  23.860  11.250
  373BOLB   C1D 8949  25.580  24.340  12.690
  373BOLB   C2D 8950  25.350  23.980  12.760
  373BOLB   C3D 8951  24.990  23.740  12.630
  373BOLB   C4D 8952  24.630  23.620  12.590
  374BOLB   NC1 8953  17.000   8.950  12.030
  374BOLB   PO1 8954  16.860   8.870  11.530
  374BOLB   GL1 8955  16.760   8.480  11.590
  374BOLB   GL2 8956  16.400   8.330  11.450
  374BOLB   C1A 8957  16.730   8.010  11.600
  374BOLB   C2A 8958  16.650   7.590  11.520
  374BOLB   C3A 8959  16.630   7.130  11.530
  374BOLB   C4A 8960  16.420   6.750  11.750
  374BOLB   C1B 8961  16.230   7.920  11.550
  374BOLB   C2B 8962  16.050   7.520  11.750
  374BOLB   C3B 8963  16.000   7.110  11.770
  374BOLB   C4B 8964  15.930   6.730  11.590
  374BOLB   NC2 8965  15.610   4.570  12.370
  374BOLB   PO2 8966  15.610   4.540  11.900
  374BOLB   GL3 8967  15.490   5.070  12.080
  374BOLB   GL4 8968  15.410   5.310  11.870
  374BOLB   C1C 8969  15.770   5.450  12.200
  374BOLB   C2C 8970  16.200   5.600  12.060
  374BOLB   C3C 8971  16.250   5.960  11.840
  374BOLB   C4C 8972  16.250   6.420  11.850
  374BOLB   C1D 8973  15.130   5.610  11.930
  374BOLB   C2D 8974  14.910   5.880  11.970
  374BOLB   C3D 8975  14.880   6.330  11.670
  374BOLB   C4D 8976  15.020   6.700  11.820
  375BOLB   NC1 8977  17.440  25.110  13.310
  375BOLB   PO1 8978  17.030  25.200  13.570
  375BOLB   GL1 8979  16.880  25.690  13.660
  375BOLB   GL2 8980  16.540  25.780  13.610
  375BOLB   C1A 8981  16.880  26.200  13.570
  375BOLB   C2A 8982  16.670  26.660  13.530
  375BOLB   C3A 8983  16.490  27.110  13.400
  375BOLB   C4A 8984  16.260  27.270  13.190
  375BOLB   C1B 8985  16.380  26.130  13.740
  375BOLB   C2B 8986  16.170  26.480  13.550
  375BOLB   C3B 8987  15.940  26.860  13.380
  375BOLB   C4B 8988  15.810  27.130  12.970
  375BOLB   NC2 8989  14.840  29.330  14.070
  375BOLB   PO2 8990  15.020  29.540  13.680
  375BOLB   GL3 8991  15.110  29.070  13.620
  375BOLB   GL4 8992  15.090  28.950  13.890
  375BOLB   C1C 8993  15.150  28.610  13.590
  375BOLB   C2C 8994  15.410  28.210  13.560
  375BOLB   C3C 8995  15.560  27.840  13.430
  375BOLB   C4C 8996  15.910  27.610  13.210
  375BOLB   C1D 8997  15.330  28.630  14.060
  375BOLB   C2D 8998  15.440  28.190  14.140
  375BOLB   C3D 8999  15.740  28.030  13.910
  375BOLB   C4D 9000  15.990  27.920  13.650
  376BOLB   NC1 9001   4.010  22.710  13.460
  376BOLB   PO1 9002   4.100  22.500  12.940
  376BOLB   GL1 9003   4.250  22.350  13.240
  376BOLB   GL2 9004   4.550  22.310  13.210
  376BOLB   C1A 9005   4.270  21.920  13.420
  376BOLB   C2A 9006   4.520  21.680  13.710
  376BOLB   C3A 9007   4.670  21.460  14.010
  376BOLB   C4A 9008   4.600  21.060  14.070
  376BOLB   C1B 9009   4.890  21.950  13.270
  376BOLB   C2B 9010   4.980  21.660  12.990
  376BOLB   C3B 9011   5.270  21.380  12.830
  376BOLB   C4B 9012   5.490  21.060  12.920
  376BOLB   NC2 9013   2.500  21.100  13.180
  376BOLB   PO2 9014   2.590  21.450  13.220
  376BOLB   GL3 9015   2.880  21.410  13.460
  376BOLB   GL4 9016   2.630  21.250  13.680
  376BOLB   C1C 9017   3.270  21.260  13.590
  376BOLB   C2C 9018   3.600  21.270  13.930
  376BOLB   C3C 9019   3.750  21.120  14.260
  376BOLB   C4C 9020   4.190  20.900  14.140
  376BOLB   C1D 9021   2.820  20.930  13.820
  376BOLB   C2D 9022   3.250  20.880  13.870
  376BOLB   C3D 9023   3.490  20.700  14.180
  376BOLB   C4D 9024   3.770  20.680  14.500
  377BOLB   NC1 9025  20.520  21.120   7.060
  377BOLB   PO1 9026  20.460  21.680   7.160
  377BOLB   GL1 9027  20.830  21.820   6.940
  377BOLB   GL2 9028  20.670  22.190   6.920
  377BOLB   C1A 9029  21.200  22.040   6.710
  377BOLB   C2A 9030  21.520  22.310   6.470
  377BOLB   C3A 9031  21.970  22.350   6.370
  377BOLB   C4A 9032  22.010  22.560   6.020
  377BOLB   C1B 9033  20.530  22.350   6.620
  377BOLB   C2B 9034  20.350  22.320   6.200
  377BOLB   C3B 9035  20.410  22.140   5.760
  377BOLB   C4B 9036  20.370  22.220   5.320
  377BOLB   NC2 9037  22.520  24.670   4.610
  377BOLB   PO2 9038  22.550  24.250   4.530
  377BOLB   GL3 9039  22.660  23.910   4.850
  377BOLB   GL4 9040  22.730  23.850   5.250
  377BOLB   C1C 9041  22.450  23.510   5.040
  377BOLB   C2C 9042  22.340  23.490   5.480
  377BOLB   C3C 9043  22.320  23.290   5.880
  377BOLB   C4C 9044  22.290  22.870   5.940
  377BOLB   C1D 9045  22.810  23.690   5.660
  377BOLB   C2D 9046  22.830  23.340   6.120
  377BOLB   C3D 9047  22.490  23.210   6.410
  377BOLB   C4D 9048  22.180  23.210   6.790
  378BOLB   NC1 9049  17.840  10.040  16.250
  378BOLB   PO1 9050  17.640  10.370  16.420
  378BOLB   GL1 9051  17.950  10.220  16.690
  378BOLB   GL2 9052  18.300  10.250  16.640
  378BOLB   C1A 9053  17.950   9.940  17.050
  378BOLB   C2A 9054  17.990   9.600  17.230
  378BOLB   C3A 9055  18.260   9.590  17.610
  378BOLB   C4A 9056  18.130   9.280  17.780
  378BOLB   C1B 9057  18.420   9.830  16.900
  378BOLB   C2B 9058  18.400   9.520  17.000
  378BOLB   C3B 9059  18.230   9.170  17.270
  378BOLB   C4B 9060  18.550   8.920  17.450
  378BOLB   NC2 9061  19.090   7.320  19.350
  378BOLB   PO2 9062  19.420   7.740  19.200
  378BOLB   GL3 9063  19.020   7.900  19.030
  378BOLB   GL4 9064  18.730   8.090  19.200
  378BOLB   C1C 9065  18.770   7.920  18.700
  378BOLB   C2C 9066  18.490   8.110  18.290
  378BOLB   C3C 9067  18.300   8.460  18.140
  378BOLB   C4C 9068  18.310   8.860  17.860
  378BOLB   C1D 9069  18.580   8.380  18.810
  378BOLB   C2D 9070  18.290   8.460  18.630
  378BOLB   C3D 9071  17.980   8.680  18.440
  378BOLB   C4D 9072  17.800   8.740  18.130
  379BOLB   NC1 9073  17.690  10.260   6.410
  379BOLB   PO1 9074  17.500  10.210   6.700
  379BOLB   GL1 9075  17.650   9.820   6.620
  379BOLB   GL2 9076  17.450   9.560   6.430
  379BOLB   C1A 9077  17.970   9.540   6.600
  379BOLB   C2A 9078  18.080   9.230   6.330
  379BOLB   C3A 9079  18.180   8.940   6.050
  379BOLB   C4A 9080  17.920   8.910   5.750
  379BOLB   C1B 9081  17.610   9.240   6.140
  379BOLB   C2B 9082  17.480   8.810   5.930
  379BOLB   C3B 9083  17.510   8.440   5.750
  379BOLB   C4B 9084  17.360   8.250   5.390
  379BOLB   NC2 9085  18.930   7.540   3.950
  379BOLB   PO2 9086  18.880   7.180   4.240
  379BOLB   GL3 9087  18.730   7.560   4.430
  379BOLB   GL4 9088  18.480   7.520   4.640
  379BOLB   C1C 9089  18.680   7.960   4.600
  379BOLB   C2C 9090  18.430   8.250   4.800
  379BOLB   C3C 9091  18.130   8.430   5.010
  379BOLB   C4C 9092  17.810   8.640   5.280
  379BOLB   C1D 9093  18.340   7.750   4.980
  379BOLB   C2D 9094  18.350   8.180   5.340
  379BOLB   C3D 9095  18.240   8.000   5.770
  379BOLB   C4D 9096  18.680   7.810   6.050
  380BOLB   NC1 9097   8.990  20.910  13.230
  380BOLB   PO1 9098   8.660  21.200  13.340
  380BOLB   GL1 9099   8.490  21.560  13.380
  380BOLB   GL2 9100   8.560  21.900  13.330
  380BOLB   C1A 9101   8.210  21.600  13.680
  380BOLB   C2A 9102   8.000  21.940  13.900
  380BOLB   C3A 9103   7.630  22.030  14.140
  380BOLB   C4A 9104   7.360  22.390  14.330
  380BOLB   C1B 9105   8.000  22.010  13.330
  380BOLB   C2B 9106   7.590  22.060  13.580
  380BOLB   C3B 9107   7.320  22.310  13.800
  380BOLB   C4B 9108   7.040  22.560  13.670
  380BOLB   NC2 9109   6.100  24.040  13.160
  380BOLB   PO2 9110   5.700  23.780  13.400
  380BOLB   GL3 9111   6.080  23.520  13.590
  380BOLB   GL4 9112   6.340  23.620  13.810
  380BOLB   C1C 9113   6.270  23.190  13.580
  380BOLB   C2C 9114   6.650  22.880  13.730
  380BOLB   C3C 9115   7.010  22.900  14.060
  380BOLB   C4C 9116   7.270  22.820  14.420
  380BOLB   C1D 9117   6.630  23.320  14.020
  380BOLB   C2D 9118   6.980  23.440  14.140
  380BOLB   C3D 9119   7.470  23.210  14.110
  380BOLB   C4D 9120   7.600  22.760  13.980
  381BOLB   NC1 9121  23.410  14.300  12.960
  381BOLB   PO1 9122  23.420  13.940  13.240
  381BOLB   GL1 9123  23.640  13.610  13.430
  381BOLB   GL2 9124  23.660  13.470  13.810
  381BOLB   C1A 9125  24.040  13.500  13.520
  381BOLB   C2A 9126  24.480  13.590  13.630
  381BOLB   C3A 9127  24.850  13.710  13.950
  381BOLB   C4A 9128  25.030  13.510  14.320
  381BOLB   C1B 9129  23.890  13.210  14.110
  381BOLB   C2B 9130  24.280  12.970  14.050
  381BOLB   C3B 9131  24.600  12.690  13.850
  381BOLB   C4B 9132  24.820  12.380  13.730
  381BOLB   NC2 9133  27.900  13.110  15.280
  381BOLB   PO2 9134  27.430  13.220  15.300
  381BOLB   GL3 9135  26.980  13.220  15.190
  381BOLB   GL4 9136  26.940  13.460  15.190
  381BOLB   C1C 9137  26.590  13.270  14.910
  381BOLB   C2C 9138  26.180  13.170  14.720
  381BOLB   C3C 9139  25.800  13.200  14.620
  381BOLB   C4C 9140  25.370  13.360  14.570
  381BOLB   C1D 9141  26.540  13.470  15.360
  381BOLB   C2D 9142  26.250  13.560  15.070
  381BOLB   C3D 9143  25.750  13.470  15.000
  381BOLB   C4D 9144  25.480  13.150  15.060
  382BOLB   NC1 9145   5.970  21.800  23.890
  382BOLB   PO1 9146   5.850  22.150  23.660
  382BOLB   GL1 9147   6.140  22.170  23.310
  382BOLB   GL2 9148   6.100  22.130  22.940
  382BOLB   C1A 9149   6.570  22.120  23.190
  382BOLB   C2A 9150   6.800  21.800  23.090
  382BOLB   C3A 9151   7.140  21.640  22.830
  382BOLB   C4A 9152   7.330  21.270  22.790
  382BOLB   C1B 9153   6.280  21.740  23.000
  382BOLB   C2B 9154   6.360  21.380  22.830
  382BOLB   C3B 9155   6.310  21.250  22.360
  382BOLB   C4B 9156   6.340  21.050  21.940
  382BOLB   NC2 9157   5.930  19.770  23.990
  382BOLB   PO2 9158   5.670  20.120  23.810
  382BOLB   GL3 9159   5.920  20.100  23.580
  382BOLB   GL4 9160   5.860  19.760  23.380
  382BOLB   C1C 9161   6.200  20.310  23.240
  382BOLB   C2C 9162   6.310  20.560  22.990
  382BOLB   C3C 9163   6.710  20.680  22.610
  382BOLB   C4C 9164   7.140  20.840  22.770
  382BOLB   C1D 9165   6.230  19.770  23.060
  382BOLB   C2D 9166   6.560  20.100  22.920
  382BOLB   C3D 9167   6.870  20.280  22.830
  382BOLB   C4D 9168   7.080  20.300  22.460
  383BOLB   NC1 9169  21.140  12.870  15.450
  383BOLB   PO1 9170  21.670  12.980  15.320
  383BOLB   GL1 9171  22.010  12.790  15.520
  383BOLB   GL2 9172  22.270  12.810  15.370
  383BOLB   C1A 9173  22.300  12.510  15.850
  383BOLB   C2A 9174  22.650  12.340  16.120
  383BOLB   C3A 9175  22.990  12.150  16.340
  383BOLB   C4A 9176  23.480  12.090  16.470
  383BOLB   C1B 9177  22.650  12.740  15.420
  383BOLB   C2B 9178  22.880  12.440  15.670
  383BOLB   C3B 9179  23.160  12.110  15.850
  383BOLB   C4B 9180  23.280  11.740  16.140
  383BOLB   NC2 9181  26.250  11.600  17.210
  383BOLB   PO2 9182  25.860  11.750  17.310
  383BOLB   GL3 9183  25.350  11.800  17.290
  383BOLB   GL4 9184  25.220  12.060  17.230
  383BOLB   C1C 9185  25.000  11.580  17.200
  383BOLB   C2C 9186  24.600  11.630  17.090
  383BOLB   C3C 9187  24.260  11.820  16.870
  383BOLB   C4C 9188  23.920  12.100  16.760
  383BOLB   C1D 9189  24.790  12.000  17.390
  383BOLB   C2D 9190  24.370  12.110  17.230
  383BOLB   C3D 9191  23.840  12.300  17.270
  383BOLB   C4D 9192  23.460  12.380  17.180
  384BOLB   NC1 9193  22.510  15.890  14.560
  384BOLB   PO1 9194  22.710  16.160  14.970
  384BOLB   GL1 9195  23.190  16.120  15.120
  384BOLB   GL2 9196  23.340  16.390  15.210
  384BOLB   C1A 9197  23.510  15.890  15.430
  384BOLB   C2A 9198  23.920  15.810  15.490
  384BOLB   C3A 9199  24.270  15.490  15.260
  384BOLB   C4A 9200  24.590  15.410  15.570
  384BOLB   C1B 9201  23.780  16.300  15.310
  384BOLB   C2B 9202  24.030  16.330  15.630
  384BOLB   C3B 9203  24.470  16.470  15.600
  384BOLB   C4B 9204  24.870  16.450  15.540
  384BOLB   NC2 9205  26.370  13.830  17.320
  384BOLB   PO2 9206  26.380  14.230  17.050
  384BOLB   GL3 9207  26.020  14.350  16.750
  384BOLB   GL4 9208  25.860  14.650  16.810
  384BOLB   C1C 9209  25.720  14.330  16.380
  384BOLB   C2C 9210  25.410  14.700  16.330
  384BOLB   C3C 9211  25.220  15.060  16.050
  384BOLB   C4C 9212  24.970  15.340  15.950
  384BOLB   C1D 9213  25.440  14.780  16.820
  384BOLB   C2D 9214  25.040  15.030  16.590
  384BOLB   C3D 9215  24.750  15.060  16.310
  384BOLB   C4D 9216  24.460  15.250  16.390
  385BOLB   NC1 9217  23.220  20.420  12.350
  385BOLB   PO1 9218  23.460  20.740  12.420
  385BOLB   GL1 9219  23.870  20.750  12.640
  385BOLB   GL2 9220  24.020  20.860  12.970
  385BOLB   C1A 9221  24.250  20.770  12.460
  385BOLB   C2A 9222  24.500  21.080  12.640
  385BOLB   C3A 9223  24.740  21.250  12.880
  385BOLB   C4A 9224  24.960  21.400  13.140
  385BOLB   C1B 9225  24.450  20.880  13.090
  385BOLB   C2B 9226  24.700  21.020  13.410
  385BOLB   C3B 9227  25.180  21.080  13.490
  385BOLB   C4B 9228  25.430  21.330  13.740
  385BOLB   NC2 9229  26.950  22.370  13.760
  385BOLB   PO2 9230  27.040  22.490  13.400
  385BOLB   GL3 9231  26.600  22.560  13.330
  385BOLB   GL4 9232  26.450  22.790  13.630
  385BOLB   C1C 9233  26.190  22.420  13.170
  385BOLB   C2C 9234  25.910  22.200  12.990
  385BOLB   C3C 9235  25.560  21.970  13.100
  385BOLB   C4C 9236  25.300  21.620  13.360
  385BOLB   C1D 9237  26.150  22.460  13.680
  385BOLB   C2D 9238  25.680  22.270  13.480
  385BOLB   C3D 9239  25.220  22.140  13.420
  385BOLB   C4D 9240  24.910  21.870  13.530
  386BOLB   NC1 9241  24.280  18.910   9.890
  386BOLB   PO1 9242  24.220  18.480  10.040
  386BOLB   GL1 9243  24.680  18.310   9.740
  386BOLB   GL2 9244  24.350  18.210   9.630
  386BOLB   C1A 9245  25.160  18.360   9.750
  386BOLB   C2A 9246  25.530  18.690   9.920
  386BOLB   C3A 9247  25.700  19.100   9.880
  386BOLB   C4A 9248  26.040  19.360   9.820
  386BOLB   C1B 9249  24.730  18.160   9.250
  386BOLB   C2B 9250  25.140  18.100   9.280
  386BOLB   C3B 9251  25.380  17.780   9.140
  386BOLB   C4B 9252  25.700  17.600   9.060
  386BOLB   NC2 9253  27.880  19.820   8.410
  386BOLB   PO2 9254  27.840  20.060   8.740
  386BOLB   GL3 9255  27.410  20.250   8.840
  386BOLB   GL4 9256  27.270  20.480   8.680
  386BOLB   C1C 9257  27.210  20.210   9.290
  386BOLB   C2C 9258  26.860  20.230   9.590
  386BOLB   C3C 9259  26.440  20.080   9.620
  386BOLB   C4C 9260  26.180  19.740   9.640
  386BOLB   C1D 9261  27.030  20.770   8.840
  386BOLB   C2D 9262  26.740  20.960   8.980
  386BOLB   C3D 9263  26.290  20.890   8.940
  386BOLB   C4D 9264  25.870  20.850   9.060
  387BOLB   NC1 9265  20.740  10.100  10.910
  387BOLB   PO1 9266  21.050  10.180  11.220
  387BOLB   GL1 9267  21.010   9.750  11.160
  387BOLB   GL2 9268  21.360   9.650  11.130
  387BOLB   C1A 9269  21.020   9.400  11.380
  387BOLB   C2A 9270  21.310   9.110  11.350
  387BOLB   C3A 9271  21.320   8.750  11.320
  387BOLB   C4A 9272  21.200   8.320  11.260
  387BOLB   C1B 9273  21.710   9.570  10.830
  387BOLB   C2B 9274  22.160   9.330  10.870
  387BOLB   C3B 9275  22.280   9.220  11.250
  387BOLB   C4B 9276  22.550   9.390  11.670
  387BOLB   NC2 9277  23.240   7.190  11.860
  387BOLB   PO2 9278  23.030   6.800  12.000
  387BOLB   GL3 9279  22.670   7.040  11.990
  387BOLB   GL4 9280  22.730   7.260  11.790
  387BOLB   C1C 9281  22.390   7.300  12.160
  387BOLB   C2C 9282  22.260   7.620  11.870
  387BOLB   C3C 9283  21.700   7.820  11.720
  387BOLB   C4C 9284  21.560   7.980  11.340
  387BOLB   C1D 9285  22.540   7.350  11.390
  387BOLB   C2D 9286  22.410   7.430  10.930
  387BOLB   C3D 9287  22.150   7.740  10.910
  387BOLB   C4D 9288  21.940   8.070  10.870
  388BOLB   NC1 9289  18.850  20.690   6.020
  388BOLB   PO1 9290  18.960  20.390   5.650
  388BOLB   GL1 9291  18.980  20.570   5.200
  388BOLB   GL2 9292  18.790  20.450   4.880
  388BOLB   C1A 9293  19.280  20.800   4.830
  388BOLB   C2A 9294  19.680  20.940   5.050
  388BOLB   C3A 9295  19.950  21.300   4.930
  388BOLB   C4A 9296  20.400  21.590   4.870
  388BOLB   C1B 9297  18.880  20.770   4.550
  388BOLB   C2B 9298  18.730  21.220   4.420
  388BOLB   C3B 9299  19.090  21.590   4.300
  388BOLB   C4B 9300  19.400  21.890   4.250
  388BOLB   NC2 9301  20.910  22.860   2.850
  388BOLB   PO2 9302  21.050  22.490   2.630
  388BOLB   GL3 9303  20.700  22.470   3.010
  388BOLB   GL4 9304  20.410  22.250   2.990
  388BOLB   C1C 9305  20.680  22.250   3.480
  388BOLB   C2C 9306  20.420  22.080   3.860
  388BOLB   C3C 9307  20.450  22.050   4.270
  388BOLB   C4C 9308  20.320  21.880   4.570
  388BOLB   C1D 9309  20.510  21.790   3.140
  388BOLB   C2D 9310  20.340  21.430   3.240
  388BOLB   C3D 9311  20.110  21.080   3.550
  388BOLB   C4D 9312  19.960  20.720   3.680
  389BOLB   NC1 9313   0.690  15.050  15.030
  389BOLB   PO1 9314   1.060  15.310  15.040
  389BOLB   GL1 9315   1.480  15.220  14.880
  389BOLB   GL2 9316   1.600  15.310  15.200
  389BOLB   C1A 9317   1.870  15.320  14.610
  389BOLB   C2A 9318   2.200  15.600  14.670
  389BOLB   C3A 9319   2.670  15.530  14.620
  389BOLB   C4A 9320   2.770  15.820  14.350
  389BOLB   C1B 9321   2.010  15.480  15.190
  389BOLB   C2B 9322   2.290  15.740  15.200
  389BOLB   C3B 9323   2.570  15.830  15.000
  389BOLB   C4B 9324   2.690  16.090  14.780
  389BOLB   NC2 9325   0.400  16.700  13.880
  389BOLB   PO2 9326   0.730  16.860  14.090
  389BOLB   GL3 9327   1.080  16.650  14.000
  389BOLB   GL4 9328   1.370  16.820  14.110
  389BOLB   C1C 9329   1.330  16.350  13.800
  389BOLB   C2C 9330   1.700  16.170  13.890
  389BOLB   C3C 9331   2.070  16.040  13.950
  389BOLB   C4C 9332   2.510  15.980  14.000
  389BOLB   C1D 9333   1.480  16.640  14.480
  389BOLB   C2D 9334   1.580  16.450  14.820
  389BOLB   C3D 9335   1.840  16.190  15.000
  389BOLB   C4D 9336   2.260  16.270  15.130
  390BOLB   NC1 9337  15.820  10.340  15.530
  390BOLB   PO1 9338  15.980   9.940  15.520
  390BOLB   GL1 9339  15.840   9.580  15.660
  390BOLB   GL2 9340  15.820   9.420  15.450
  390BOLB   C1A 9341  15.800   9.360  16.150
  390BOLB   C2A 9342  15.860   8.920  16.220
  390BOLB   C3A 9343  15.810   8.480  16.320
  390BOLB   C4A 9344  15.620   8.070  16.410
  390BOLB   C1B 9345  15.810   9.000  15.650
  390BOLB   C2B 9346  15.830   8.570  15.740
  390BOLB   C3B 9347  15.690   8.130  15.860
  390BOLB   C4B 9348  15.630   7.660  15.940
  390BOLB   NC2 9349  16.100   5.540  17.210
  390BOLB   PO2 9350  16.250   6.020  17.260
  390BOLB   GL3 9351  16.180   6.420  17.290
  390BOLB   GL4 9352  15.820   6.410  17.250
  390BOLB   C1C 9353  16.020   6.760  17.050
  390BOLB   C2C 9354  16.020   7.240  16.940
  390BOLB   C3C 9355  15.920   7.330  16.560
  390BOLB   C4C 9356  15.660   7.660  16.410
  390BOLB   C1D 9357  15.690   6.620  17.590
  390BOLB   C2D 9358  15.430   6.970  17.550
  390BOLB   C3D 9359  15.090   7.330  17.470
  390BOLB   C4D 9360  15.040   7.640  17.710
  391BOLB   NC1 9361  19.080  18.100   5.210
  391BOLB   PO1 9362  19.070  18.230   4.740
  391BOLB   GL1 9363  18.820  18.570   4.380
  391BOLB   GL2 9364  18.790  18.800   4.510
  391BOLB   C1A 9365  18.880  18.530   3.870
  391BOLB   C2A 9366  19.060  18.670   3.570
  391BOLB   C3A 9367  19.000  18.950   3.230
  391BOLB   C4A 9368  19.110  19.380   3.120
  391BOLB   C1B 9369  18.970  18.970   4.080
  391BOLB   C2B 9370  19.090  19.250   3.690
  391BOLB   C3B 9371  19.410  19.060   3.490
  391BOLB   C4B 9372  19.880  19.130   3.590
  391BOLB   NC2 9373  18.550  19.920   0.980
  391BOLB   PO2 9374  18.570  20.310   1.240
  391BOLB   GL3 9375  18.380  20.080   1.610
  391BOLB   GL4 9376  18.130  19.820   1.400
  391BOLB   C1C 9377  18.570  20.210   2.020
  391BOLB   C2C 9378  18.830  20.170   2.410
  391BOLB   C3C 9379  18.930  20.140   2.810
  391BOLB   C4C 9380  19.030  19.730   3.090
  391BOLB   C1D 9381  17.990  19.630   1.640
  391BOLB   C2D 9382  17.860  19.450   1.970
  391BOLB   C3D 9383  17.580  19.180   2.280
  391BOLB   C4D 9384  17.420  18.760   2.330
  392BOLB   NC1 9385  22.330  12.150  12.180
  392BOLB   PO1 9386  22.690  12.410  12.350
  392BOLB   GL1 9387  23.050  12.140  12.460
  392BOLB   GL2 9388  22.920  12.170  12.790
  392BOLB   C1A 9389  23.130  11.770  12.390
  392BOLB   C2A 9390  23.260  11.430  12.410
  392BOLB   C3A 9391  23.520  11.070  12.530
  392BOLB   C4A 9392  23.830  10.690  12.280
  392BOLB   C1B 9393  23.290  11.910  12.850
  392BOLB   C2B 9394  23.550  11.640  13.120
  392BOLB   C3B 9395  23.610  11.110  13.080
  392BOLB   C4B 9396  23.880  10.920  12.820
  392BOLB   NC2 9397  25.390   8.820  12.210
  392BOLB   PO2 9398  25.600   9.060  11.830
  392BOLB   GL3 9399  25.290   9.440  11.750
  392BOLB   GL4 9400  25.260   9.410  11.300
  392BOLB   C1C 9401  24.870   9.580  11.850
  392BOLB   C2C 9402  24.570   9.780  12.120
  392BOLB   C3C 9403  24.240  10.090  12.240
  392BOLB   C4C 9404  24.210  10.460  12.360
  392BOLB   C1D 9405  25.240   9.810  11.420
  392BOLB   C2D 9406  24.940  10.120  11.230
  392BOLB   C3D 9407  24.660  10.420  11.300
  392BOLB   C4D 9408  24.350  10.560  11.560
  393BOLB   NC1 9409   1.080  15.070  14.620
  393BOLB   PO1 9410   0.970  14.630  14.790
  393BOLB   GL1 9411   1.370  14.640  14.720
  393BOLB   GL2 9412   1.500  14.840  14.410
  393BOLB   C1A 9413   1.780  14.840  15.000
  393BOLB   C2A 9414   2.040  14.990  15.070
  393BOLB   C3A 9415   2.360  15.230  15.010
  393BOLB   C4A 9416   2.610  15.400  15.260
  393BOLB   C1B 9417   1.650  15.060  14.150
  393BOLB   C2B 9418   1.740  15.480  14.080
  393BOLB   C3B 9419   1.760  15.770  14.380
  393BOLB   C4B 9420   1.760  16.190  14.400
  393BOLB   NC2 9421   1.110  16.440  15.330
  393BOLB   PO2 9422   1.060  16.120  15.550
  393BOLB   GL3 9423   1.560  16.140  15.530
  393BOLB   GL4 9424   1.640  15.830  15.370
  393BOLB   C1C 9425   1.910  16.320  15.480
  393BOLB   C2C 9426   2.180  16.060  15.680
  393BOLB   C3C 9427   2.550  16.020  15.590
  393BOLB   C4C 9428   2.790  15.750  15.400
  393BOLB   C1D 9429   1.820  15.660  15.650
  393BOLB   C2D 9430   2.160  15.560  15.660
  393BOLB   C3D 9431   2.560  15.610  15.950
  393BOLB   C4D 9432   2.920  15.920  16.030
  394BOLB   NC1 9433  14.560   9.140   9.340
  394BOLB   PO1 9434  14.870   9.110   9.750
  394BOLB   GL1 9435  14.900   8.720   9.920
  394BOLB   GL2 9436  14.980   8.510   9.650
  394BOLB   C1A 9437  14.730   8.380  10.130
  394BOLB   C2A 9438  14.650   7.950  10.090
  394BOLB   C3A 9439  14.550   7.460  10.000
  394BOLB   C4A 9440  14.620   7.090  10.040
  394BOLB   C1B 9441  15.020   8.070   9.390
  394BOLB   C2B 9442  14.680   7.750   9.540
  394BOLB   C3B 9443  14.610   7.340   9.500
  394BOLB   C4B 9444  14.810   6.980   9.330
  394BOLB   NC2 9445  14.710   4.930   9.410
  394BOLB   PO2 9446  14.590   4.780   9.860
  394BOLB   GL3 9447  14.490   5.120   9.880
  394BOLB   GL4 9448  14.730   5.320   9.690
  394BOLB   C1C 9449  14.400   5.450  10.130
  394BOLB   C2C 9450  14.570   5.920  10.140
  394BOLB   C3C 9451  14.680   6.300  10.150
  394BOLB   C4C 9452  14.530   6.720  10.060
  394BOLB   C1D 9453  15.000   5.410   9.910
  394BOLB   C2D 9454  15.190   5.780  10.060
  394BOLB   C3D 9455  15.010   5.880  10.340
  394BOLB   C4D 9456  14.920   6.060  10.600
  395BOLB   NC1 9457  19.400  11.770  16.600
  395BOLB   PO1 9458  19.130  11.470  16.320
  395BOLB   GL1 9459  19.450  11.290  16.580
  395BOLB   GL2 9460  19.760  11.340  16.810
  395BOLB   C1A 9461  19.250  10.950  16.940
  395BOLB   C2A 9462  19.240  10.510  16.910
  395BOLB   C3A 9463  19.550  10.260  16.970
  395BOLB   C4A 9464  19.700   9.910  17.260
  395BOLB   C1B 9465  19.810  10.940  17.050
  395BOLB   C2B 9466  19.910  10.530  17.230
  395BOLB   C3B 9467  20.040  10.190  17.440
  395BOLB   C4B 9468  20.230   9.970  17.750
  395BOLB   NC2 9469  20.270   8.000  18.530
  395BOLB   PO2 9470  20.720   8.080  18.250
  395BOLB   GL3 9471  20.480   8.300  17.960
  395BOLB   GL4 9472  20.350   8.000  17.910
  395BOLB   C1C 9473  20.430   8.800  17.840
  395BOLB   C2C 9474  20.410   9.180  17.850
  395BOLB   C3C 9475  20.140   9.410  17.640
  395BOLB   C4C 9476  19.790   9.510  17.340
  395BOLB   C1D 9477  20.170   8.220  17.480
  395BOLB   C2D 9478  20.160   8.620  17.200
  395BOLB   C3D 9479  19.950   8.880  16.820
  395BOLB   C4D 9480  19.790   8.640  16.390
  396BOLB   NC1 9481  20.320  18.040   5.250
  396BOLB   PO1 9482  20.130  18.160   4.910
  396BOLB   GL1 9483  20.190  18.290   4.520
  396BOLB   GL2 9484  20.180  18.670   4.480
  396BOLB   C1A 9485  20.510  18.470   4.190
  396BOLB   C2A 9486  20.970  18.570   4.020
  396BOLB   C3A 9487  21.260  18.640   3.690
  396BOLB   C4A 9488  21.670  18.650   3.400
  396BOLB   C1B 9489  20.120  18.940   4.090
  396BOLB   C2B 9490  20.330  19.100   3.750
  396BOLB   C3B 9491  20.390  19.110   3.220
  396BOLB   C4B 9492  19.970  18.970   3.080
  396BOLB   NC2 9493  23.000  18.330   1.880
  396BOLB   PO2 9494  22.850  18.830   1.880
  396BOLB   GL3 9495  22.640  18.550   2.160
  396BOLB   GL4 9496  22.390  18.530   2.090
  396BOLB   C1C 9497  22.480  18.610   2.550
  396BOLB   C2C 9498  22.580  18.780   2.950
  396BOLB   C3C 9499  22.440  18.940   3.340
  396BOLB   C4C 9500  22.110  18.760   3.300
  396BOLB   C1D 9501  22.070  18.090   2.000
  396BOLB   C2D 9502  21.800  17.770   2.170
  396BOLB   C3D 9503  21.540  17.400   1.990
  396BOLB   C4D 9504  21.530  16.890   1.940
  397BOLB   NC1 9505  21.750  22.230  14.520
  397BOLB   PO1 9506  22.010  22.580  14.320
  397BOLB   GL1 9507  22.400  22.870  14.410
  397BOLB   GL2 9508  22.280  23.200  14.540
  397BOLB   C1A 9509  22.820  22.830  14.320
  397BOLB   C2A 9510  23.120  22.890  14.470
  397BOLB   C3A 9511  23.550  22.730  14.630
  397BOLB   C4A 9512  23.940  22.600  14.740
  397BOLB   C1B 9513  22.720  23.210  14.560
  397BOLB   C2B 9514  23.110  23.320  14.730
  397BOLB   C3B 9515  23.470  23.560  14.700
  397BOLB   C4B 9516  23.610  23.820  15.020
  397BOLB   NC2 9517  25.900  23.340  15.690
  397BOLB   PO2 9518  25.630  23.670  16.060
  397BOLB   GL3 9519  25.280  23.610  15.830
  397BOLB   GL4 9520  25.030  23.740  15.980
  397BOLB   C1C 9521  25.260  23.390  15.420
  397BOLB   C2C 9522  24.910  23.220  15.330
  397BOLB   C3C 9523  24.710  22.800  15.200
  397BOLB   C4C 9524  24.400  22.500  14.960
  397BOLB   C1D 9525  24.990  23.190  15.910
  397BOLB   C2D 9526  25.080  22.790  16.170
  397BOLB   C3D 9527  24.780  22.390  16.180
  397BOLB   C4D 9528  24.350  22.610  16.310
  398BOLB   NC1 9529  22.220  13.590  15.900
  398BOLB   PO1 9530  22.270  13.330  15.460
  398BOLB   GL1 9531  22.480  13.140  15.760
  398BOLB   GL2 9532  22.320  13.080  15.990
  398BOLB   C1A 9533  22.690  12.800  15.900
  398BOLB   C2A 9534  23.020  12.700  16.160
  398BOLB   C3A 9535  23.510  12.490  16.130
  398BOLB   C4A 9536  23.690  12.110  15.980
  398BOLB   C1B 9537  22.410  12.710  16.360
  398BOLB   C2B 9538  22.820  12.620  16.610
  398BOLB   C3B 9539  22.950  12.740  17.030
  398BOLB   C4B 9540  23.040  12.920  17.430
  398BOLB   NC2 9541  26.110  10.940  15.090
  398BOLB   PO2 9542  26.170  11.190  15.450
  398BOLB   GL3 9543  25.630  11.270  15.420
  398BOLB   GL4 9544  25.560  11.370  15.090
  398BOLB   C1C 9545  25.300  11.610  15.500
  398BOLB   C2C 9546  24.970  11.620  15.870
  398BOLB   C3C 9547  24.570  11.790  15.910
  398BOLB   C4C 9548  24.170  11.870  15.990
  398BOLB   C1D 9549  25.130  11.420  14.900
  398BOLB   C2D 9550  24.820  11.440  14.530
  398BOLB   C3D 9551  24.770  11.880  14.270
  398BOLB   C4D 9552  24.540  11.910  13.880
  399BOLB   NC1 9553  21.110  11.410  11.400
  399BOLB   PO1 9554  21.390  11.080  11.390
  399BOLB   GL1 9555  21.620  10.740  11.480
  399BOLB   GL2 9556  21.560  10.430  11.430
  399BOLB   C1A 9557  22.060  10.560  11.610
  399BOLB   C2A 9558  22.370  10.280  11.710
  399BOLB   C3A 9559  22.720   9.870  11.730
  399BOLB   C4A 9560  23.020   9.630  11.860
  399BOLB   C1B 9561  21.790   9.980  11.320
  399BOLB   C2B 9562  21.880   9.530  11.320
  399BOLB   C3B 9563  21.780   9.010  11.260
  399BOLB   C4B 9564  21.780   8.510  11.170
  399BOLB   NC2 9565  24.670   7.320  11.400
  399BOLB   PO2 9566  24.300   7.680  11.380
  399BOLB   GL3 9567  23.990   8.050  11.340
  399BOLB   GL4 9568  23.720   8.180  11.250
  399BOLB   C1C 9569  24.020   8.550  11.480
  399BOLB   C2C 9570  24.030   8.920  11.830
  399BOLB   C3C 9571  23.910   9.330  11.990
  399BOLB   C4C 9572  23.390   9.370  12.000
  399BOLB   C1D 9573  23.680   8.700  11.130
  399BOLB   C2D 9574  23.930   9.070  11.310
  399BOLB   C3D 9575  23.800   9.460  11.540
  399BOLB   C4D 9576  23.490   9.780  11.700
  400BOLB   NC1 9577  13.160  16.680   4.510
  400BOLB   PO1 9578  13.510  16.600   4.160
  400BOLB   GL1 9579  13.720  16.830   3.780
  400BOLB   GL2 9580  14.040  17.030   3.670
  400BOLB   C1A 9581  13.600  16.860   3.340
  400BOLB   C2A 9582  13.500  16.850   2.910
  400BOLB   C3A 9583  13.560  16.490   2.460
  400BOLB   C4A 9584  13.530  16.390   2.080
  400BOLB   C1B 9585  13.870  17.290   3.350
  400BOLB   C2B 9586  13.520  17.310   3.150
  400BOLB   C3B 9587  13.150  17.220   2.940
  400BOLB   C4B 9588  12.720  17.160   2.960
  400BOLB   NC2 9589  13.820  15.890  31.320
  400BOLB   PO2 9590  14.250  15.800  31.370
  400BOLB   GL3 9591  14.040  15.890   0.390
  400BOLB   GL4 9592  14.110  16.180   0.390
  400BOLB   C1C 9593  13.840  15.860   0.730
  400BOLB   C2C 9594  13.550  15.800   1.070
  400BOLB   C3C 9595  13.380  15.950   1.430
  400BOLB   C4C 9596  13.500  16.170   1.850
  400BOLB   C1D 9597  14.320  15.960   0.810
  400BOLB   C2D 9598  14.200  15.760   1.200
  400BOLB   C3D 9599  14.180  15.600   1.600
  400BOLB   C4D 9600  14.120  15.420   2.050
  401BOLB   NC1 9601  15.350   9.740   8.820
  401BOLB   PO1 9602  15.260   9.720   8.250
  401BOLB   GL1 9603  15.260   9.300   8.120
  401BOLB   GL2 9604  15.560   9.170   8.050
  401BOLB   C1A 9605  15.110   8.800   8.100
  401BOLB   C2A 9606  14.730   8.540   8.050
  401BOLB   C3A 9607  14.500   8.370   7.830
  401BOLB   C4A 9608  14.390   7.920   7.570
  401BOLB   C1B 9609  15.570   8.710   8.270
  401BOLB   C2B 9610  15.650   8.200   8.290
  401BOLB   C3B 9611  15.540   7.740   8.220
  401BOLB   C4B 9612  15.270   7.470   7.960
  401BOLB   NC2 9613  12.600   6.350   7.270
  401BOLB   PO2 9614  12.860   6.150   6.990
  401BOLB   GL3 9615  13.030   6.560   7.080
  401BOLB   GL4 9616  13.130   6.620   7.390
  401BOLB   C1C 9617  13.310   6.930   6.920
  401BOLB   C2C 9618  13.410   7.350   7.060
  401BOLB   C3C 9619  13.670   7.610   7.260
  401BOLB   C4C 9620  14.020   7.770   7.440
  401BOLB   C1D 9621  13.360   7.070   7.500
  401BOLB   C2D 9622  13.640   7.360   7.660
  401BOLB   C3D 9623  14.040   7.520   7.830
  401BOLB   C4D 9624  14.380   7.740   8.040
  402BOLB   NC1 9625  14.440  10.950   6.660
  402BOLB   PO1 9626  14.360  10.580   6.520
  402BOLB   GL1 9627  14.190  10.780   6.130
  402BOLB   GL2 9628  14.400  10.490   6.030
  402BOLB   C1A 9629  13.980  10.480   5.840
  402BOLB   C2A 9630  13.830  10.080   5.690
  402BOLB   C3A 9631  13.480   9.790   5.610
  402BOLB   C4A 9632  13.350   9.350   5.650
  402BOLB   C1B 9633  14.480  10.260   5.810
  402BOLB   C2B 9634  14.370   9.870   5.530
  402BOLB   C3B 9635  13.960   9.700   5.470
  402BOLB   C4B 9636  13.800   9.330   5.570
  402BOLB   NC2 9637  12.740   7.070   5.290
  402BOLB   PO2 9638  12.830   7.290   4.910
  402BOLB   GL3 9639  12.700   7.610   5.140
  402BOLB   GL4 9640  12.410   7.770   5.290
  402BOLB   C1C 9641  12.890   7.990   5.380
  402BOLB   C2C 9642  13.000   8.360   5.690
  402BOLB   C3C 9643  13.110   8.690   5.640
  402BOLB   C4C 9644  13.170   9.030   5.530
  402BOLB   C1D 9645  12.470   8.130   5.130
  402BOLB   C2D 9646  12.360   8.370   4.800
  402BOLB   C3D 9647  12.280   8.710   4.560
  402BOLB   C4D 9648  12.130   8.960   4.260
  403BOLB   NC1 9649  20.790  24.660  13.910
  403BOLB   PO1 9650  21.100  24.670  13.560
  403BOLB   GL1 9651  21.280  24.870  13.770
  403BOLB   GL2 9652  21.680  24.820  13.770
  403BOLB   C1A 9653  21.210  25.380  13.720
  403BOLB   C2A 9654  20.770  25.750  13.690
  403BOLB   C3A 9655  20.580  26.180  13.630
  403BOLB   C4A 9656  20.680  26.610  13.480
  403BOLB   C1B 9657  21.970  25.190  13.820
  403BOLB   C2B 9658  22.130  25.550  14.020
  403BOLB   C3B 9659  22.450  25.680  14.240
  403BOLB   C4B 9660  22.650  25.970  14.520
  403BOLB   NC2 9661  21.610  28.570  13.140
  403BOLB   PO2 9662  21.210  28.580  12.850
  403BOLB   GL3 9663  21.160  28.220  12.990
  403BOLB   GL4 9664  20.830  28.230  12.800
  403BOLB   C1C 9665  21.160  27.890  12.840
  403BOLB   C2C 9666  21.020  27.450  12.930
  403BOLB   C3C 9667  20.800  27.070  13.050
  403BOLB   C4C 9668  20.900  26.940  13.320
  403BOLB   C1D 9669  20.630  27.860  13.000
  403BOLB   C2D 9670  20.510  27.440  13.010
  403BOLB   C3D 9671  20.350  27.070  13.320
  403BOLB   C4D 9672  20.210  26.790  13.600
  404BOLB   NC1 9673  12.970   9.510  11.840
  404BOLB   PO1 9674  13.120   9.050  11.960
  404BOLB   GL1 9675  13.260   8.620  11.850
  404BOLB   GL2 9676  13.520   8.480  11.610
  404BOLB   C1A 9677  13.020   8.320  11.820
  404BOLB   C2A 9678  12.790   7.890  12.000
  404BOLB   C3A 9679  12.390   7.720  11.970
  404BOLB   C4A 9680  12.190   7.340  12.120
  404BOLB   C1B 9681  13.450   7.930  11.550
  404BOLB   C2B 9682  13.600   7.570  11.690
  404BOLB   C3B 9683  13.340   7.330  11.610
  404BOLB   C4B 9684  13.090   7.010  11.460
  404BOLB   NC2 9685  10.100   5.780  12.510
  404BOLB   PO2 9686  10.320   5.840  12.140
  404BOLB   GL3 9687  10.690   6.160  12.280
  404BOLB   GL4 9688  11.090   6.030  12.440
  404BOLB   C1C 9689  10.940   6.510  12.190
  404BOLB   C2C 9690  11.020   6.880  12.110
  404BOLB   C3C 9691  11.390   7.190  12.240
  404BOLB   C4C 9692  11.800   7.250  12.260
  404BOLB   C1D 9693  11.420   6.310  12.480
  404BOLB   C2D 9694  11.700   6.700  12.590
  404BOLB   C3D 9695  12.020   6.800  12.610
  404BOLB   C4D 9696  12.310   6.850  12.390
  405BOLB   NC1 9697  16.640  23.850  17.710
  405BOLB   PO1 9698  16.420  24.180  17.500
  405BOLB   GL1 9699  16.590  24.460  17.770
  405BOLB   GL2 9700  16.760  24.350  17.910
  405BOLB   C1A 9701  16.490  24.830  18.040
  405BOLB   C2A 9702  16.630  25.160  18.270
  405BOLB   C3A 9703  16.680  25.490  18.600
  405BOLB   C4A 9704  16.900  25.810  18.890
  405BOLB   C1B 9705  16.790  24.600  18.370
  405BOLB   C2B 9706  16.910  25.020  18.620
  405BOLB   C3B 9707  17.070  25.310  18.920
  405BOLB   C4B 9708  17.340  25.520  19.230
  405BOLB   NC2 9709  18.110  26.880  20.250
  405BOLB   PO2 9710  18.260  27.170  19.950
  405BOLB   GL3 9711  18.180  27.030  19.630
  405BOLB   GL4 9712  18.090  26.660  19.660
  405BOLB   C1C 9713  17.930  27.000  19.220
  405BOLB   C2C 9714  17.680  26.720  19.000
  405BOLB   C3C 9715  17.320  26.530  18.820
  405BOLB   C4C 9716  17.010  26.280  18.790
  405BOLB   C1D 9717  18.020  26.390  19.300
  405BOLB   C2D 9718  17.940  26.080  18.960
  405BOLB   C3D 9719  18.140  25.650  18.790
  405BOLB   C4D 9720  18.040  25.450  18.420
  406BOLB   NC1 9721  12.890   9.970   9.260
  406BOLB   PO1 9722  12.570   9.980   9.110
  406BOLB   GL1 9723  12.640   9.510   9.150
  406BOLB   GL2 9724  12.430   9.420   9.410
  406BOLB   C1A 9725  12.580   9.140   9.000
  406BOLB   C2A 9726  12.660   8.770   9.230
  406BOLB   C3A 9727  12.430   8.340   9.240
  406BOLB   C4A 9728  11.990   8.120   9.160
  406BOLB   C1B 9729  12.270   9.060   9.340
  406BOLB   C2B 9730  12.040   8.640   9.430
  406BOLB   C3B 9731  11.680   8.540   9.470
  406BOLB   C4B 9732  11.440   8.340   9.220
  406BOLB   NC2 9733  11.440   5.950   8.560
  406BOLB   PO2 9734  11.480   5.900   8.920
  406BOLB   GL3 9735  11.650   6.370   8.980
  406BOLB   GL4 9736  11.880   6.410   8.770
  406BOLB   C1C 9737  11.610   6.600   9.350
  406BOLB   C2C 9738  11.490   7.070   9.570
  406BOLB   C3C 9739  11.370   7.520   9.590
  406BOLB   C4C 9740  11.570   7.900   9.420
  406BOLB   C1D 9741  11.990   6.730   9.010
  406BOLB   C2D 9742  12.290   6.990   9.180
  406BOLB   C3D 9743  12.280   7.400   9.340
  406BOLB   C4D 9744  12.630   7.510   9.500
  407BOLB   NC1 9745  14.220  25.150  12.130
  407BOLB   PO1 9746  14.540  25.160  11.790
  407BOLB   GL1 9747  14.710  25.490  11.720
  407BOLB   GL2 9748  14.790  25.740  11.880
  407BOLB   C1A 9749  14.510  25.820  11.480
  407BOLB   C2A 9750  14.400  26.100  11.360
  407BOLB   C3A 9751  14.290  26.500  11.450
  407BOLB   C4A 9752  14.260  26.940  11.620
  407BOLB   C1B 9753  15.000  26.110  12.060
  407BOLB   C2B 9754  15.360  26.330  12.140
  407BOLB   C3B 9755  15.350  26.740  12.160
  407BOLB   C4B 9756  15.370  27.160  12.090
  407BOLB   NC2 9757  13.290  29.730  11.210
  407BOLB   PO2 9758  13.380  29.210  11.320
  407BOLB   GL3 9759  13.570  28.790  11.440
  407BOLB   GL4 9760  13.480  28.480  11.470
  407BOLB   C1C 9761  13.930  28.520  11.430
  407BOLB   C2C 9762  14.120  28.110  11.450
  407BOLB   C3C 9763  14.150  27.790  11.660
  407BOLB   C4C 9764  14.300  27.430  11.680
  407BOLB   C1D 9765  13.550  28.050  11.440
  407BOLB   C2D 9766  13.240  27.820  11.490
  407BOLB   C3D 9767  13.090  27.500  11.600
  407BOLB   C4D 9768  13.150  27.060  11.810
  408BOLB   NC1 9769  17.550  20.340  20.060
  408BOLB   PO1 9770  17.690  20.730  19.940
  408BOLB   GL1 9771  17.850  20.970  20.370
  408BOLB   GL2 9772  18.150  20.920  20.500
  408BOLB   C1A 9773  17.880  21.200  20.740
  408BOLB   C2A 9774  18.100  21.390  21.100
  408BOLB   C3A 9775  18.380  21.500  21.300
  408BOLB   C4A 9776  18.710  21.530  21.620
  408BOLB   C1B 9777  18.430  21.000  20.900
  408BOLB   C2B 9778  18.480  21.010  21.400
  408BOLB   C3B 9779  18.810  20.900  21.630
  408BOLB   C4B 9780  18.980  20.530  21.870
  408BOLB   NC2 9781  20.270  21.780  23.780
  408BOLB   PO2 9782  20.240  21.580  23.440
  408BOLB   GL3 9783  20.120  21.600  23.010
  408BOLB   GL4 9784  20.390  21.580  22.790
  408BOLB   C1C 9785  19.790  21.650  22.740
  408BOLB   C2C 9786  19.720  21.460  22.250
  408BOLB   C3C 9787  19.420  21.270  22.060
  408BOLB   C4C 9788  18.960  21.320  21.910
  408BOLB   C1D 9789  20.250  21.910  22.450
  408BOLB   C2D 9790  20.360  21.980  22.090
  408BOLB   C3D 9791  20.680  21.820  21.820
  408BOLB   C4D 9792  20.720  21.680  21.350
  409BOLB   NC1 9793  16.440  20.820  20.440
  409BOLB   PO1 9794  16.720  21.000  20.190
  409BOLB   GL1 9795  16.650  21.310  20.470
  409BOLB   GL2 9796  16.980  21.360  20.480
  409BOLB   C1A 9797  16.700  21.310  20.930
  409BOLB   C2A 9798  16.710  21.360  21.370
  409BOLB   C3A 9799  16.540  21.460  21.800
  409BOLB   C4A 9800  16.360  21.760  22.260
  409BOLB   C1B 9801  17.250  21.490  20.890
  409BOLB   C2B 9802  17.600  21.630  21.150
  409BOLB   C3B 9803  17.880  21.680  21.440
  409BOLB   C4B 9804  17.970  21.530  21.910
  409BOLB   NC2 9805  17.060  22.990  24.620
  409BOLB   PO2 9806  16.850  22.860  24.240
  409BOLB   GL3 9807  16.700  22.500  23.980
  409BOLB   GL4 9808  16.440  22.450  23.860
  409BOLB   C1C 9809  16.740  22.440  23.480
  409BOLB   C2C 9810  16.720  22.260  23.170
  409BOLB   C3C 9811  16.400  22.280  22.910
  409BOLB   C4C 9812  16.260  21.860  22.640
  409BOLB   C1D 9813  16.160  22.120  23.920
  409BOLB   C2D 9814  16.120  21.720  23.690
  409BOLB   C3D 9815  16.090  21.310  23.420
  409BOLB   C4D 9816  15.990  20.900  23.310
  410BOLB   NC1 9817  19.880  10.840   7.940
  410BOLB   PO1 9818  19.620  10.500   8.160
  410BOLB   GL1 9819  19.940  10.230   8.070
  410BOLB   GL2 9820  19.820   9.990   7.900
  410BOLB   C1A 9821  20.420  10.110   8.040
  410BOLB   C2A 9822  20.710   9.850   7.720
  410BOLB   C3A 9823  20.740   9.410   7.890
  410BOLB   C4A 9824  20.900   8.910   7.920
  410BOLB   C1B 9825  19.730   9.740   7.670
  410BOLB   C2B 9826  19.700   9.410   7.380
  410BOLB   C3B 9827  19.730   9.360   6.930
  410BOLB   C4B 9828  19.830   9.440   6.460
  410BOLB   NC2 9829  21.800   6.500   8.720
  410BOLB   PO2 9830  22.250   6.800   8.790
  410BOLB   GL3 9831  22.010   7.220   8.650
  410BOLB   GL4 9832  21.730   7.220   8.540
  410BOLB   C1C 9833  21.930   7.710   8.500
  410BOLB   C2C 9834  21.590   8.070   8.480
  410BOLB   C3C 9835  21.500   8.400   8.180
  410BOLB   C4C 9836  21.230   8.650   8.000
  410BOLB   C1D 9837  21.460   7.590   8.550
  410BOLB   C2D 9838  21.090   7.910   8.410
  410BOLB   C3D 9839  21.010   8.220   8.180
  410BOLB   C4D 9840  20.830   8.520   8.410
  411BOLB   NC1 9841  14.390  21.420   7.840
  411BOLB   PO1 9842  14.200  21.810   7.770
  411BOLB   GL1 9843  14.140  22.180   7.530
  411BOLB   GL2 9844  14.320  22.500   7.480
  411BOLB   C1A 9845  13.930  22.260   7.170
  411BOLB   C2A 9846  13.920  22.550   6.760
  411BOLB   C3A 9847  13.940  22.660   6.310
  411BOLB   C4A 9848  13.780  22.930   6.030
  411BOLB   C1B 9849  14.230  22.620   7.120
  411BOLB   C2B 9850  14.020  22.970   6.960
  411BOLB   C3B 9851  13.850  23.130   6.500
  411BOLB   C4B 9852  13.560  23.330   6.190
  411BOLB   NC2 9853  13.350  24.460   4.180
  411BOLB   PO2 9854  13.870  24.300   4.100
  411BOLB   GL3 9855  14.080  24.170   4.410
  411BOLB   GL4 9856  14.090  24.280   4.730
  411BOLB   C1C 9857  14.110  23.740   4.690
  411BOLB   C2C 9858  14.120  23.500   5.030
  411BOLB   C3C 9859  14.210  23.170   5.260
  411BOLB   C4C 9860  13.920  23.000   5.550
  411BOLB   C1D 9861  14.290  24.040   5.110
  411BOLB   C2D 9862  14.230  23.750   5.470
  411BOLB   C3D 9863  13.920  23.760   5.620
  411BOLB   C4D 9864  13.570  23.560   5.350
  412BOLB   NC1 9865  22.580  12.460  11.770
  412BOLB   PO1 9866  22.920  12.190  11.530
  412BOLB   GL1 9867  23.140  11.920  11.610
  412BOLB   GL2 9868  23.290  11.950  11.900
  412BOLB   C1A 9869  23.420  11.640  11.590
  412BOLB   C2A 9870  23.790  11.290  11.470
  412BOLB   C3A 9871  23.980  10.890  11.410
  412BOLB   C4A 9872  23.790  10.550  11.410
  412BOLB   C1B 9873  23.780  11.840  11.910
  412BOLB   C2B 9874  24.140  11.740  12.230
  412BOLB   C3B 9875  24.330  12.020  12.490
  412BOLB   C4B 9876  24.650  12.350  12.500
  412BOLB   NC2 9877  24.850   8.470  10.450
  412BOLB   PO2 9878  24.390   8.480  10.430
  412BOLB   GL3 9879  24.260   8.830  10.500
  412BOLB   GL4 9880  24.420   9.120  10.350
  412BOLB   C1C 9881  24.010   9.050  10.770
  412BOLB   C2C 9882  23.690   9.410  10.980
  412BOLB   C3C 9883  23.620   9.810  11.050
  412BOLB   C4C 9884  23.570  10.130  11.310
  412BOLB   C1D 9885  24.470   9.320  10.690
  412BOLB   C2D 9886  24.410   9.720  10.820
  412BOLB   C3D 9887  24.410  10.060  11.030
  412BOLB   C4D 9888  24.160  10.470  11.110
  413BOLB   NC1 9889  19.190  15.080  19.600
  413BOLB   PO1 9890  19.510  14.850  19.470
  413BOLB   GL1 9891  19.840  14.640  19.630
  413BOLB   GL2 9892  19.660  14.580  19.950
  413BOLB   C1A 9893  20.240  14.510  19.770
  413BOLB   C2A 9894  20.630  14.370  19.670
  413BOLB   C3A 9895  20.940  14.070  19.550
  413BOLB   C4A 9896  21.360  13.910  19.710
  413BOLB   C1B 9897  19.920  14.250  20.060
  413BOLB   C2B 9898  20.360  14.160  20.110
  413BOLB   C3B 9899  20.790  14.160  20.080
  413BOLB   C4B 9900  21.120  14.020  20.100
  413BOLB   NC2 9901  21.960  12.230  21.180
  413BOLB   PO2 9902  22.300  12.560  21.130
  413BOLB   GL3 9903  22.230  12.860  20.870
  413BOLB   GL4 9904  22.480  13.120  20.770
  413BOLB   C1C 9905  22.030  13.060  20.550
  413BOLB   C2C 9906  22.090  13.370  20.240
  413BOLB   C3C 9907  21.870  13.530  20.080
  413BOLB   C4C 9908  21.660  13.690  19.940
  413BOLB   C1D 9909  22.460  12.820  20.380
  413BOLB   C2D 9910  22.070  12.740  20.160
  413BOLB   C3D 9911  21.620  12.760  20.080
  413BOLB   C4D 9912  21.280  12.850  19.780
  414BOLB   NC1 9913  17.490  13.730   4.720
  414BOLB   PO1 9914  17.530  13.310   4.770
  414BOLB   GL1 9915  17.740  13.130   4.500
  414BOLB   GL2 9916  17.530  12.790   4.350
  414BOLB   C1A 9917  18.050  12.870   4.290
  414BOLB   C2A 9918  17.880  12.700   3.860
  414BOLB   C3A 9919  18.200  12.450   3.670
  414BOLB   C4A 9920  18.160  12.240   3.370
  414BOLB   C1B 9921  17.400  12.590   3.990
  414BOLB   C2B 9922  17.200  12.410   3.710
  414BOLB   C3B 9923  16.830  12.460   3.520
  414BOLB   C4B 9924  16.800  12.220   3.200
  414BOLB   NC2 9925  20.040  11.140   2.250
  414BOLB   PO2 9926  19.600  11.160   2.090
  414BOLB   GL3 9927  19.430  11.370   2.410
  414BOLB   GL4 9928  19.730  11.390   2.630
  414BOLB   C1C 9929  19.190  11.430   2.770
  414BOLB   C2C 9930  19.050  11.760   2.930
  414BOLB   C3C 9931  18.630  11.870   2.900
  414BOLB   C4C 9932  18.340  12.000   3.100
  414BOLB   C1D 9933  19.630  11.710   2.800
  414BOLB   C2D 9934  19.670  12.020   3.150
  414BOLB   C3D 9935  19.630  11.890   3.610
  414BOLB   C4D 9936  19.550  11.750   3.990
  415BOLB   NC1 9937  17.760   9.530  13.490
  415BOLB   PO1 9938  17.700   9.340  13.750
  415BOLB   GL1 9939  17.800   8.910  13.700
  415BOLB   GL2 9940  17.750   8.660  13.530
  415BOLB   C1A 9941  18.150   8.690  13.740
  415BOLB   C2A 9942  18.230   8.230  13.700
  415BOLB   C3A 9943  18.360   7.870  13.700
  415BOLB   C4A 9944  18.400   7.480  13.510
  415BOLB   C1B 9945  17.820   8.240  13.340
  415BOLB   C2B 9946  17.810   7.840  13.510
  415BOLB   C3B 9947  17.950   7.340  13.400
  415BOLB   C4B 9948  18.140   7.010  13.660
  415BOLB   NC2 9949  19.150   5.390  13.950
  415BOLB   PO2 9950  19.450   5.410  13.650
  415BOLB   GL3 9951  19.450   5.890  13.660
  415BOLB   GL4 9952  19.760   5.910  13.680
  415BOLB   C1C 9953  19.220   6.230  13.610
  415BOLB   C2C 9954  18.780   6.410  13.340
  415BOLB   C3C 9955  18.610   6.720  13.180
  415BOLB   C4C 9956  18.380   7.110  13.230
  415BOLB   C1D 9957  19.690   6.280  13.590
  415BOLB   C2D 9958  19.520   6.700  13.760
  415BOLB   C3D 9959  19.150   7.010  13.820
  415BOLB   C4D 9960  18.880   7.360  14.050
  416BOLB   NC1 9961  24.050  19.600  10.200
  416BOLB   PO1 9962  23.960  19.320   9.920
  416BOLB   GL1 9963  24.460  19.330  10.080
  416BOLB   GL2 9964  24.590  19.540  10.270
  416BOLB   C1A 9965  24.850  19.270   9.970
  416BOLB   C2A 9966  25.310  19.430  10.030
  416BOLB   C3A 9967  25.640  19.620   9.720
  416BOLB   C4A 9968  25.850  20.030   9.660
  416BOLB   C1B 9969  24.940  19.890  10.130
  416BOLB   C2B 9970  25.200  20.070   9.810
  416BOLB   C3B 9971  25.360  20.200   9.500
  416BOLB   C4B 9972  25.710  20.440   9.210
  416BOLB   NC2 9973  28.090  20.940   8.590
  416BOLB   PO2 9974  27.720  21.240   8.710
  416BOLB   GL3 9975  27.350  21.120   9.050
  416BOLB   GL4 9976  27.340  20.680   9.230
  416BOLB   C1C 9977  27.000  21.230   9.340
  416BOLB   C2C 9978  26.530  21.110   9.470
  416BOLB   C3C 9979  26.080  20.890   9.490
  416BOLB   C4C 9980  25.980  20.480   9.650
  416BOLB   C1D 9981  27.010  20.710   9.510
  416BOLB   C2D 9982  26.880  20.960   9.830
  416BOLB   C3D 9983  26.690  21.390   9.990
  416BOLB   C4D 9984  26.740  21.610   9.510
  417BOLB   NC1 9985  19.330  10.250   7.820
  417BOLB   PO1 9986  19.000   9.980   7.730
  417BOLB   GL1 9987  19.140   9.660   7.570
  417BOLB   GL2 9988  19.280   9.630   7.170
  417BOLB   C1A 9989  19.280   9.280   7.720
  417BOLB   C2A 9990  19.760   9.140   7.810
  417BOLB   C3A 9991  20.050   9.070   7.620
  417BOLB   C4A 9992  20.150   8.700   7.350
  417BOLB   C1B 9993  19.210   9.210   7.230
  417BOLB   C2B 9994  19.310   8.860   7.070
  417BOLB   C3B 9995  19.250   8.440   7.150
  417BOLB   C4B 9996  19.020   8.010   7.010
  417BOLB   NC2 9997  21.870   7.070   8.000
  417BOLB   PO2 9998  22.060   7.050   7.560
  417BOLB   GL3 9999  21.740   7.430   7.630
  417BOLB   GL410000  21.730   7.560   8.010
  417BOLB   C1C10001  21.520   7.820   7.450
  417BOLB   C2C10002  21.340   8.150   7.250
  417BOLB   C3C10003  20.910   8.410   7.200
  417BOLB   C4C10004  20.410   8.360   7.230
  417BOLB   C1D10005  21.490   7.880   8.050
  417BOLB   C2D10006  21.290   8.230   7.760
  417BOLB   C3D10007  21.200   8.670   7.500
  417BOLB   C4D10008  21.480   8.990   7.250
  418BOLB   NC110009  21.040  15.240  17.630
  418BOLB   PO110010  21.400  15.520  17.660
  418BOLB   GL110011  21.720  15.460  17.960
  418BOLB   GL210012  21.870  15.310  17.840
  418BOLB   C1A10013  21.800  15.370  18.430
  418BOLB   C2A10014  22.180  15.290  18.710
  418BOLB   C3A10015  22.650  15.560  18.790
  418BOLB   C4A10016  23.030  15.960  18.770
  418BOLB   C1B10017  22.210  15.270  18.150
  418BOLB   C2B10018  22.510  15.410  18.350
  418BOLB   C3B10019  22.730  15.100  18.560
  418BOLB   C4B10020  22.580  14.720  18.880
  418BOLB   NC210021  23.570  15.480  21.090
  418BOLB   PO210022  24.030  15.430  20.850
  418BOLB   GL310023  23.680  15.620  20.600
  418BOLB   GL410024  23.280  15.540  20.690
  418BOLB   C1C10025  23.530  15.860  20.240
  418BOLB   C2C10026  23.390  15.970  19.820
  418BOLB   C3C10027  23.320  16.050  19.380
  418BOLB   C4C10028  23.160  16.250  19.010
  418BOLB   C1D10029  22.820  15.490  20.510
  418BOLB   C2D10030  22.500  15.320  20.180
  418BOLB   C3D10031  22.090  15.350  20.030
  418BOLB   C4D10032  21.720  15.300  20.140
  419BOLB   NC110033  22.180  11.600   9.970
  419BOLB   PO110034  21.970  11.430   9.680
  419BOLB   GL110035  22.310  11.150   9.820
  419BOLB   GL210036  22.490  11.220  10.110
  419BOLB   C1A10037  22.290  10.670   9.690
  419BOLB   C2A10038  22.270  10.360   9.440
  419BOLB   C3A10039  22.560  10.030   9.170
  419BOLB   C4A10040  22.890   9.920   8.830
  419BOLB   C1B10041  22.310  10.880  10.240
  419BOLB   C2B10042  22.390  10.450  10.170
  419BOLB   C3B10043  22.460  10.110  10.000
  419BOLB   C4B10044  22.440   9.910   9.600
  419BOLB   NC210045  24.690   8.760   8.650
  419BOLB   PO210046  24.920   9.120   8.490
  419BOLB   GL310047  24.650   9.320   8.780
  419BOLB   GL410048  24.840   9.240   9.070
  419BOLB   C1C10049  24.520   9.610   9.070
  419BOLB   C2C10050  24.050   9.770   9.120
  419BOLB   C3C10051  23.680   9.930   9.030
  419BOLB   C4C10052  23.290   9.890   8.990
  419BOLB   C1D10053  24.570   9.190   9.440
  419BOLB   C2D10054  24.430   9.300   9.770
  419BOLB   C3D10055  24.100   9.440   9.860
  419BOLB   C4D10056  24.090   9.800  10.070
  420BOLB   NC110057  16.850  22.950  18.510
  420BOLB   PO110058  16.710  22.810  18.770
  420BOLB   GL110059  16.870  23.140  19.030
  420BOLB   GL210060  16.830  23.000  19.220
  420BOLB   C1A10061  16.820  23.650  19.160
  420BOLB   C2A10062  16.870  23.880  19.440
  420BOLB   C3A10063  16.700  24.140  19.790
  420BOLB   C4A10064  16.720  24.630  19.890
  420BOLB   C1B10065  16.810  23.290  19.580
  420BOLB   C2B10066  16.880  23.680  19.890
  420BOLB   C3B10067  17.190  23.780  20.230
  420BOLB   C4B10068  17.380  23.730  20.650
  420BOLB   NC210069  18.410  26.410  20.800
  420BOLB   PO210070  18.020  26.610  20.700
  420BOLB   GL310071  17.740  26.500  20.360
  420BOLB   GL410072  17.650  26.660  20.090
  420BOLB   C1C10073  17.430  26.100  20.210
  420BOLB   C2C10074  17.450  25.660  20.060
  420BOLB   C3C10075  17.380  25.270  19.850
  420BOLB   C4C10076  17.000  24.960  19.830
  420BOLB   C1D10077  17.190  26.620  19.840
  420BOLB   C2D10078  17.140  26.400  19.370
  420BOLB   C3D10079  17.490  26.220  19.150
  420BOLB   C4D10080  17.380  25.860  18.890
  421BOLB   NC110081  18.380  10.880  15.480
  421BOLB   PO110082  18.820  10.910  15.580
  421BOLB   GL110083  18.890  10.650  15.900
  421BOLB   GL210084  18.770  10.380  15.960
  421BOLB   C1A10085  18.960  10.450  16.410
  421BOLB   C2A10086  19.190  10.110  16.620
  421BOLB   C3A10087  19.320   9.770  16.810
  421BOLB   C4A10088  19.650   9.470  16.860
  421BOLB   C1B10089  18.840   9.970  16.260
  421BOLB   C2B10090  18.840   9.770  16.650
  421BOLB   C3B10091  18.920   9.640  17.070
  421BOLB   C4B10092  18.840   9.390  17.350
  421BOLB   NC210093  19.520   7.390  18.490
  421BOLB   PO210094  19.630   7.340  18.070
  421BOLB   GL310095  19.620   7.530  17.760
  421BOLB   GL410096  19.920   7.750  17.740
  421BOLB   C1C10097  19.490   8.030  17.630
  421BOLB   C2C10098  19.770   8.440  17.480
  421BOLB   C3C10099  19.640   8.770  17.220
  421BOLB   C4C10100  19.580   9.130  17.010
  421BOLB   C1D10101  19.950   8.240  17.970
  421BOLB   C2D10102  19.980   8.670  17.880
  421BOLB   C3D10103  20.010   8.960  17.590
  421BOLB   C4D10104  20.060   9.120  17.250
  422BOLB   NC110105  11.630  23.780  14.320
  422BOLB   PO110106  11.590  24.130  14.590
  422BOLB   GL110107  11.680  24.520  14.570
  422BOLB   GL210108  11.560  24.610  14.840
  422BOLB   C1A10109  11.470  24.760  14.330
  422BOLB   C2A10110  11.200  25.080  14.120
  422BOLB   C3A10111  10.940  25.280  13.850
  422BOLB   C4A10112  10.680  25.620  13.700
  422BOLB   C1B10113  11.200  24.740  15.120
  422BOLB   C2B10114  10.950  25.110  15.040
  422BOLB   C3B10115  10.610  25.350  15.100
  422BOLB   C4B10116  10.170  25.620  15.070
  422BOLB   NC210117   8.470  27.660  13.850
  422BOLB   PO210118   8.840  27.450  13.880
  422BOLB   GL310119   9.250  27.130  13.920
  422BOLB   GL410120   9.280  27.030  14.160
  422BOLB   C1C10121   9.700  26.940  13.930
  422BOLB   C2C10122  10.050  26.750  13.820
  422BOLB   C3C10123  10.240  26.270  13.730
  422BOLB   C4C10124  10.490  25.940  13.970
  422BOLB   C1D10125   9.290  26.570  13.880
  422BOLB   C2D10126   9.590  26.610  13.520
  422BOLB   C3D10127  10.050  26.610  13.370
  422BOLB   C4D10128  10.450  26.490  13.280
  423BOLB   NC110129  23.490  17.070   9.080
  423BOLB   PO110130  23.440  17.540   8.950
  423BOLB   GL110131  23.680  17.630   8.600
  423BOLB   GL210132  23.620  17.810   8.430
  423BOLB   C1A10133  24.080  17.370   8.440
  423BOLB   C2A10134  24.370  17.180   8.170
  423BOLB   C3A10135  24.780  17.040   8.050
  423BOLB   C4A10136  25.220  17.160   7.870
  423BOLB   C1B10137  23.910  17.800   8.150
  423BOLB   C2B10138  24.240  17.630   8.010
  423BOLB   C3B10139  24.630  17.560   8.000
  423BOLB   C4B10140  25.070  17.680   7.830
  423BOLB   NC210141  27.880  17.150   7.280
  423BOLB   PO210142  27.560  16.960   7.610
  423BOLB   GL310143  27.210  16.760   7.390
  423BOLB   GL410144  27.070  16.410   7.530
  423BOLB   C1C10145  26.900  16.900   7.580
  423BOLB   C2C10146  26.530  17.060   7.760
  423BOLB   C3C10147  26.100  17.090   7.770
  423BOLB   C4C10148  25.640  17.170   7.640
  423BOLB   C1D10149  26.690  16.540   7.860
  423BOLB   C2D10150  26.280  16.620   7.910
  423BOLB   C3D10151  25.930  16.710   8.080
  423BOLB   C4D10152  25.830  16.730   8.400
  424BOLB   NC110153  15.530  20.250   5.640
  424BOLB   PO110154  15.360  20.060   5.260
  424BOLB   GL110155  15.160  20.430   5.050
  424BOLB   GL210156  15.050  20.390   4.760
  424BOLB   C1A10157  15.400  20.790   4.950
  424BOLB   C2A10158  15.630  20.910   4.650
  424BOLB   C3A10159  15.710  21.190   4.220
  424BOLB   C4A10160  15.870  21.580   3.980
  424BOLB   C1B10161  15.330  20.530   4.440
  424BOLB   C2B10162  15.400  20.790   4.090
  424BOLB   C3B10163  15.370  21.120   3.790
  424BOLB   C4B10164  15.360  21.490   3.670
  424BOLB   NC210165  15.590  23.780   2.600
  424BOLB   PO210166  15.660  23.800   3.030
  424BOLB   GL310167  15.760  23.440   3.200
  424BOLB   GL410168  15.660  23.400   3.540
  424BOLB   C1C10169  15.730  22.960   3.280
  424BOLB   C2C10170  15.740  22.550   3.320
  424BOLB   C3C10171  15.720  22.080   3.370
  424BOLB   C4C10172  15.830  21.800   3.660
  424BOLB   C1D10173  15.600  23.330   4.100
  424BOLB   C2D10174  15.830  23.030   4.330
  424BOLB   C3D10175  15.980  22.710   4.560
  424BOLB   C4D10176  16.480  22.710   4.720
  425BOLB   NC110177  18.280  15.330  20.010
  425BOLB   PO110178  18.420  15.730  19.930
  425BOLB   GL110179  18.720  15.480  20.190
  425BOLB   GL210180  18.970  15.270  20.130
  425BOLB   C1A10181  18.850  15.500  20.660
  425BOLB   C2A10182  19.250  15.320  20.970
  425BOLB   C3A10183  19.390  15.420  21.370
  425BOLB   C4A10184  19.820  15.230  21.570
  425BOLB   C1B10185  19.380  15.260  20.390
  425BOLB   C2B10186  19.700  15.060  20.630
  425BOLB   C3B10187  20.090  14.960  20.800
  425BOLB   C4B10188  20.420  14.630  20.850
  425BOLB   NC210189  21.560  14.280  22.650
  425BOLB   PO210190  21.220  13.930  22.770
  425BOLB   GL310191  21.180  14.220  22.410
  425BOLB   GL410192  20.920  14.140  22.360
  425BOLB   C1C10193  20.990  14.500  22.070
  425BOLB   C2C10194  20.560  14.450  22.080
  425BOLB   C3C10195  20.070  14.530  21.870
  425BOLB   C4C10196  19.740  14.860  21.850
  425BOLB   C1D10197  20.510  14.490  22.580
  425BOLB   C2D10198  20.240  14.840  22.750
  425BOLB   C3D10199  20.050  15.100  22.380
  425BOLB   C4D10200  19.920  15.390  22.050
  426BOLB   NC110201  17.520  13.820  19.550
  426BOLB   PO110202  17.810  14.000  19.730
  426BOLB   GL110203  17.930  13.960  20.060
  426BOLB   GL210204  17.970  14.200  20.260
  426BOLB   C1A10205  17.850  13.740  20.330
  426BOLB   C2A10206  18.010  13.480  20.580
  426BOLB   C3A10207  18.430  13.380  20.830
  426BOLB   C4A10208  18.830  13.450  21.050
  426BOLB   C1B10209  17.900  14.190  20.650
  426BOLB   C2B10210  17.950  14.290  21.100
  426BOLB   C3B10211  17.910  14.050  21.500
  426BOLB   C4B10212  17.990  13.650  21.620
  426BOLB   NC210213  20.530  11.280  22.240
  426BOLB   PO210214  20.280  11.610  22.190
  426BOLB   GL310215  19.910  11.610  21.930
  426BOLB   GL410216  19.620  11.580  21.950
  426BOLB   C1C10217  19.520  11.960  22.170
  426BOLB   C2C10218  19.220  12.310  21.980
  426BOLB   C3C10219  19.160  12.720  21.730
  426BOLB   C4C10220  19.080  13.110  21.310
  426BOLB   C1D10221  19.160  11.430  21.660
  426BOLB   C2D10222  18.810  11.480  21.400
  426BOLB   C3D10223  18.640  11.530  21.040
  426BOLB   C4D10224  18.380  11.500  20.620
  427BOLB   NC110225  23.380  17.280  13.990
  427BOLB   PO110226  23.720  17.170  13.730
  427BOLB   GL110227  24.140  17.310  13.870
  427BOLB   GL210228  24.360  17.470  13.850
  427BOLB   C1A10229  24.420  17.170  14.210
  427BOLB   C2A10230  24.880  17.140  14.280
  427BOLB   C3A10231  25.290  17.180  14.340
  427BOLB   C4A10232  25.700  17.170  14.180
  427BOLB   C1B10233  24.710  17.530  13.880
  427BOLB   C2B10234  25.140  17.500  13.900
  427BOLB   C3B10235  25.480  17.350  13.810
  427BOLB   C4B10236  25.840  17.240  13.570
  427BOLB   NC210237  27.880  16.990  14.230
  427BOLB   PO210238  28.110  16.610  14.030
  427BOLB   GL310239  27.600  16.530  14.000
  427BOLB   GL410240  27.490  16.450  13.660
  427BOLB   C1C10241  27.310  16.910  14.060
  427BOLB   C2C10242  26.980  17.220  13.930
  427BOLB   C3C10243  26.560  17.270  14.000
  427BOLB   C4C10244  26.140  17.210  14.080
  427BOLB   C1D10245  27.050  16.490  13.860
  427BOLB   C2D10246  26.680  16.430  14.050
  427BOLB   C3D10247  26.310  16.700  14.100
  427BOLB   C4D10248  25.930  16.630  14.310
  428BOLB   NC110249  20.270  23.710  22.900
  428BOLB   PO110250  20.030  23.380  22.560
  428BOLB   GL110251  19.870  23.240  22.190
  428BOLB   GL210252  19.890  23.430  21.900
  428BOLB   C1A10253  19.620  22.970  21.850
  428BOLB   C2A10254  19.530  22.950  21.480
  428BOLB   C3A10255  19.740  22.660  21.200
  428BOLB   C4A10256  19.850  22.240  21.220
  428BOLB   C1B10257  19.690  23.570  21.430
  428BOLB   C2B10258  19.470  23.360  21.140
  428BOLB   C3B10259  19.300  23.450  20.780
  428BOLB   C4B10260  18.980  23.240  20.590
  428BOLB   NC210261  20.640  21.660  23.170
  428BOLB   PO210262  20.980  21.830  22.970
  428BOLB   GL310263  20.820  21.610  22.590
  428BOLB   GL410264  20.920  21.240  22.630
  428BOLB   C1C10265  20.510  21.490  22.310
  428BOLB   C2C10266  20.170  21.390  22.080
  428BOLB   C3C10267  19.780  21.520  21.740
  428BOLB   C4C10268  19.830  21.780  21.360
  428BOLB   C1D10269  20.540  21.150  22.650
  428BOLB   C2D10270  20.090  21.230  22.530
  428BOLB   C3D10271  19.790  20.980  22.170
  428BOLB   C4D10272  19.410  20.780  21.980
  429BOLB   NC110273  10.270   6.900  23.170
  429BOLB   PO110274   9.940   7.230  23.100
  429BOLB   GL110275  10.250   7.370  22.990
  429BOLB   GL210276  10.240   7.670  22.940
  429BOLB   C1A10277  10.660   7.500  22.760
  429BOLB   C2A10278  11.020   7.830  22.880
  429BOLB   C3A10279  11.390   7.980  22.750
  429BOLB   C4A10280  11.750   7.930  22.660
  429BOLB   C1B10281  10.590   7.970  22.960
  429BOLB   C2B10282  10.780   8.290  22.800
  429BOLB   C3B10283  11.070   8.280  22.500
  429BOLB   C4B10284  11.460   8.210  22.270
  429BOLB   NC210285  13.400   6.370  23.790
  429BOLB   PO210286  12.900   6.340  23.830
  429BOLB   GL310287  13.040   6.760  23.790
  429BOLB   GL410288  13.040   6.740  23.400
  429BOLB   C1C10289  12.830   7.150  23.760
  429BOLB   C2C10290  12.520   7.310  23.500
  429BOLB   C3C10291  12.260   7.480  23.220
  429BOLB   C4C10292  12.080   7.630  22.790
  429BOLB   C1D10293  12.920   6.750  23.000
  429BOLB   C2D10294  13.230   6.800  22.640
  429BOLB   C3D10295  13.340   7.170  22.420
  429BOLB   C4D10296  13.520   7.530  22.510
  430BOLB   NC110297  21.650  16.470   6.370
  430BOLB   PO110298  22.050  16.510   6.580
  430BOLB   GL110299  22.490  16.460   6.440
  430BOLB   GL210300  22.590  16.160   6.500
  430BOLB   C1A10301  22.850  16.450   6.110
  430BOLB   C2A10302  22.990  16.230   5.780
  430BOLB   C3A10303  23.020  16.300   5.400
  430BOLB   C4A10304  23.210  16.450   5.050
  430BOLB   C1B10305  22.910  15.990   6.270
  430BOLB   C2B10306  23.340  15.960   5.980
  430BOLB   C3B10307  23.650  15.660   5.930
  430BOLB   C4B10308  23.980  15.480   5.800
  430BOLB   NC210309  24.030  16.660   2.590
  430BOLB   PO210310  24.040  16.960   2.910
  430BOLB   GL310311  23.770  16.980   3.180
  430BOLB   GL410312  23.990  17.080   3.420
  430BOLB   C1C10313  23.620  16.710   3.530
  430BOLB   C2C10314  23.560  16.490   3.850
  430BOLB   C3C10315  23.680  16.340   4.310
  430BOLB   C4C10316  23.510  16.410   4.690
  430BOLB   C1D10317  23.780  17.170   3.820
  430BOLB   C2D10318  23.370  17.160   3.920
  430BOLB   C3D10319  23.150  16.840   3.820
  430BOLB   C4D10320  23.070  16.430   4.020
  431BOLB   NC110321   6.490  22.560  24.300
  431BOLB   PO110322   6.810  22.350  24.570
  431BOLB   GL110323   7.080  22.320  24.260
  431BOLB   GL210324   6.980  22.730  24.280
  431BOLB   C1A10325   7.410  22.270  23.960
  431BOLB   C2A10326   7.830  22.060  23.830
  431BOLB   C3A10327   8.250  22.140  23.590
  431BOLB   C4A10328   8.380  22.260  23.230
  431BOLB   C1B10329   7.160  22.670  23.910
  431BOLB   C2B10330   7.140  22.390  23.590
  431BOLB   C3B10331   6.980  22.300  23.250
  431BOLB   C4B10332   6.870  22.300  22.860
  431BOLB   NC210333   5.760  22.500  23.960
  431BOLB   PO210334   6.270  22.530  23.800
  431BOLB   GL310335   6.520  22.600  23.430
  431BOLB   GL410336   6.240  22.670  23.160
  431BOLB   C1C10337   6.720  22.690  23.110
  431BOLB   C2C10338   7.180  22.620  22.970
  431BOLB   C3C10339   7.620  22.600  22.830
  431BOLB   C4C10340   8.080  22.540  22.930
  431BOLB   C1D10341   6.390  22.410  22.790
  431BOLB   C2D10342   6.470  22.370  22.420
  431BOLB   C3D10343   6.520  22.250  22.120
  431BOLB   C4D10344   6.560  21.810  21.990
  432BOLB   NC110345  20.150  14.260  17.850
  432BOLB   PO110346  20.110  13.850  18.100
  432BOLB   GL110347  20.540  13.730  18.220
  432BOLB   GL210348  20.850  13.850  18.070
  432BOLB   C1A10349  20.830  13.330  18.130
  432BOLB   C2A10350  21.070  13.090  18.360
  432BOLB   C3A10351  21.240  12.680  18.500
  432BOLB   C4A10352  21.630  12.450  18.520
  432BOLB   C1B10353  21.190  13.590  18.290
  432BOLB   C2B10354  21.490  13.290  18.500
  432BOLB   C3B10355  21.770  13.270  18.950
  432BOLB   C4B10356  22.130  13.150  19.310
  432BOLB   NC210357  24.190  11.110  19.290
  432BOLB   PO210358  23.830  11.490  19.420
  432BOLB   GL310359  23.450  11.800  19.340
  432BOLB   GL410360  23.460  12.130  19.460
  432BOLB   C1C10361  23.020  12.000  19.240
  432BOLB   C2C10362  22.850  12.060  18.870
  432BOLB   C3C10363  22.590  12.290  18.490
  432BOLB   C4C10364  22.130  12.350  18.490
  432BOLB   C1D10365  23.350  12.500  19.730
  432BOLB   C2D10366  23.300  12.820  19.460
  432BOLB   C3D10367  22.910  13.010  19.340
  432BOLB   C4D10368  22.500  12.880  19.390
  433BOLB   NC110369  17.580  15.930  20.360
  433BOLB   PO110370  17.880  15.920  20.700
  433BOLB   GL110371  18.140  15.710  20.840
  433BOLB   GL210372  18.200  15.900  21.110
  433BOLB   C1A10373  18.520  15.520  21.060
  433BOLB   C2A10374  18.800  15.270  21.140
  433BOLB   C3A10375  18.930  14.820  21.150
  433BOLB   C4A10376  18.840  14.550  21.420
  433BOLB   C1B10377  18.310  15.590  21.470
  433BOLB   C2B10378  18.600  15.250  21.580
  433BOLB   C3B10379  19.010  15.180  21.630
  433BOLB   C4B10380  19.330  14.930  21.500
  433BOLB   NC210381  20.750  13.740  22.620
  433BOLB   PO210382  20.550  13.850  22.980
  433BOLB   GL310383  20.130  13.950  22.770
  433BOLB   GL410384  20.280  14.040  22.520
  433BOLB   C1C10385  19.780  13.960  22.580
  433BOLB   C2C10386  19.410  14.260  22.400
  433BOLB   C3C10387  19.090  14.310  22.190
  433BOLB   C4C10388  18.700  14.340  21.820
  433BOLB   C1D10389  20.070  14.100  22.180
  433BOLB   C2D10390  19.730  13.990  21.880
  433BOLB   C3D10391  19.720  13.910  21.380
  433BOLB   C4D10392  19.680  13.920  21.030
  434BOLB   NC110393  17.180  17.860  21.010
  434BOLB   PO110394  17.570  17.780  20.920
  434BOLB   GL110395  18.040  17.850  20.800
  434BOLB   GL210396  18.180  18.130  20.580
  434BOLB   C1A10397  18.360  17.560  20.980
  434BOLB   C2A10398  18.670  17.590  21.210
  434BOLB   C3A10399  19.180  17.430  21.190
  434BOLB   C4A10400  19.430  17.280  21.550
  434BOLB   C1B10401  18.450  18.090  21.000
  434BOLB   C2B10402  18.390  18.010  21.380
  434BOLB   C3B10403  18.230  17.550  21.550
  434BOLB   C4B10404  17.890  17.200  21.530
  434BOLB   NC210405  20.820  18.140  23.810
  434BOLB   PO210406  20.850  17.760  23.480
  434BOLB   GL310407  20.800  17.750  22.990
  434BOLB   GL410408  20.640  17.990  22.930
  434BOLB   C1C10409  20.620  17.510  22.650
  434BOLB   C2C10410  20.280  17.380  22.470
  434BOLB   C3C10411  20.040  17.450  22.110
  434BOLB   C4C10412  19.850  17.250  21.710
  434BOLB   C1D10413  20.250  17.860  22.770
  434BOLB   C2D10414  19.920  17.750  22.560
  434BOLB   C3D10415  19.640  17.710  22.340
  434BOLB   C4D10416  19.550  17.380  22.090
  435BOLB   NC110417  21.630  12.100  12.570
  435BOLB   PO110418  22.000  11.920  12.580
  435BOLB   GL110419  22.300  11.620  12.670
  435BOLB   GL210420  22.610  11.820  12.410
  435BOLB   C1A10421  22.440  11.240  12.850
  435BOLB   C2A10422  22.660  10.920  12.990
  435BOLB   C3A10423  22.930  10.550  13.110
  435BOLB   C4A10424  22.930  10.060  13.300
  435BOLB   C1B10425  22.840  11.590  12.730
  435BOLB   C2B10426  23.150  11.360  12.910
  435BOLB   C3B10427  23.160  10.880  12.830
  435BOLB   C4B10428  23.410  10.570  12.960
  435BOLB   NC210429  25.170   8.950  13.350
  435BOLB   PO210430  24.970   8.810  12.970
  435BOLB   GL310431  24.880   9.260  13.010
  435BOLB   GL410432  25.120   9.470  13.170
  435BOLB   C1C10433  24.520   9.510  12.990
  435BOLB   C2C10434  24.130   9.440  13.080
  435BOLB   C3C10435  23.740   9.550  13.080
  435BOLB   C4C10436  23.350   9.810  13.160
  435BOLB   C1D10437  24.910   9.930  13.190
  435BOLB   C2D10438  24.540  10.010  13.070
  435BOLB   C3D10439  24.240  10.380  13.180
  435BOLB   C4D10440  23.880  10.590  13.260
  436BOLB   NC110441  18.580  10.120   9.180
  436BOLB   PO110442  18.680   9.820   9.480
  436BOLB   GL110443  18.970   9.470   9.290
  436BOLB   GL210444  19.010   9.200   9.560
  436BOLB   C1A10445  19.030   9.090   9.040
  436BOLB   C2A10446  19.180   8.700   8.950
  436BOLB   C3A10447  19.360   8.310   8.760
  436BOLB   C4A10448  19.780   8.340   8.510
  436BOLB   C1B10449  19.150   8.810   9.470
  436BOLB   C2B10450  19.430   8.490   9.340
  436BOLB   C3B10451  19.760   8.310   9.510
  436BOLB   C4B10452  20.180   8.230   9.830
  436BOLB   NC210453  21.790   6.840   7.230
  436BOLB   PO210454  21.660   6.800   7.650
  436BOLB   GL310455  21.360   7.130   7.880
  436BOLB   GL410456  21.360   7.250   8.210
  436BOLB   C1C10457  21.150   7.550   7.800
  436BOLB   C2C10458  20.840   7.830   7.860
  436BOLB   C3C10459  20.470   8.040   8.090
  436BOLB   C4C10460  20.120   8.230   8.120
  436BOLB   C1D10461  20.950   7.420   8.250
  436BOLB   C2D10462  20.660   7.740   8.530
  436BOLB   C3D10463  20.410   7.750   8.950
  436BOLB   C4D10464  20.310   7.920   9.430
  437BOLB   NC110465  22.350  18.870  16.370
  437BOLB   PO110466  22.320  18.410  16.560
  437BOLB   GL110467  22.600  18.470  17.060
  437BOLB   GL210468  22.580  18.240  17.400
  437BOLB   C1A10469  23.000  18.560  17.220
  437BOLB   C2A10470  23.360  18.620  17.110
  437BOLB   C3A10471  23.840  18.540  16.890
  437BOLB   C4A10472  24.260  18.650  17.000
  437BOLB   C1B10473  23.010  18.240  17.550
  437BOLB   C2B10474  23.400  18.530  17.600
  437BOLB   C3B10475  23.560  18.860  17.690
  437BOLB   C4B10476  23.850  19.340  17.800
  437BOLB   NC210477  25.980  18.860  18.460
  437BOLB   PO210478  25.690  18.710  18.770
  437BOLB   GL310479  25.520  18.750  18.370
  437BOLB   GL410480  25.340  18.470  18.210
  437BOLB   C1C10481  25.290  18.990  18.050
  437BOLB   C2C10482  25.120  19.250  17.690
  437BOLB   C3C10483  24.840  19.180  17.340
  437BOLB   C4C10484  24.470  18.940  17.290
  437BOLB   C1D10485  24.990  18.170  18.350
  437BOLB   C2D10486  24.580  18.070  18.280
  437BOLB   C3D10487  24.490  17.780  18.030
  437BOLB   C4D10488  24.340  17.650  17.670
  438BOLB   NC110489  14.650  22.220  19.170
  438BOLB   PO110490  14.420  22.490  19.470
  438BOLB   GL110491  14.300  22.600  19.880
  438BOLB   GL210492  13.960  22.470  20.010
  438BOLB   C1A10493  14.230  22.920  20.160
  438BOLB   C2A10494  14.240  23.290  20.110
  438BOLB   C3A10495  14.310  23.750  20.110
  438BOLB   C4A10496  14.350  24.060  20.320
  438BOLB   C1B10497  13.720  22.840  20.280
  438BOLB   C2B10498  13.420  23.180  20.020
  438BOLB   C3B10499  12.960  23.190  19.870
  438BOLB   C4B10500  12.680  23.520  19.870
  438BOLB   NC210501  14.820  26.100  21.890
  438BOLB   PO210502  14.930  25.780  21.880
  438BOLB   GL310503  15.090  25.460  21.580
  438BOLB   GL410504  14.970  25.580  21.340
  438BOLB   C1C10505  15.110  25.070  21.290
  438BOLB   C2C10506  14.870  24.810  20.930
  438BOLB   C3C10507  14.740  24.830  20.510
  438BOLB   C4C10508  14.360  24.510  20.410
  438BOLB   C1D10509  15.120  25.870  21.020
  438BOLB   C2D10510  15.130  25.980  20.640
  438BOLB   C3D10511  15.120  26.100  20.190
  438BOLB   C4D10512  15.200  26.020  19.750
  439BOLB   NC110513  13.930  24.250  10.420
  439BOLB   PO110514  13.500  24.310  10.400
  439BOLB   GL110515  13.390  24.630  10.140
  439BOLB   GL210516  13.250  24.520   9.830
  439BOLB   C1A10517  13.190  25.060   9.920
  439BOLB   C2A10518  12.950  25.480   9.880
  439BOLB   C3A10519  13.010  26.010   9.800
  439BOLB   C4A10520  13.180  26.370   9.540
  439BOLB   C1B10521  12.970  24.680   9.670
  439BOLB   C2B10522  12.640  24.980   9.680
  439BOLB   C3B10523  12.270  25.100   9.840
  439BOLB   C4B10524  12.000  25.600   9.860
  439BOLB   NC210525  11.840  27.130   7.720
  439BOLB   PO210526  12.100  26.880   7.680
  439BOLB   GL310527  12.560  26.700   7.720
  439BOLB   GL410528  12.750  26.340   7.460
  439BOLB   C1C10529  12.780  26.780   7.990
  439BOLB   C2C10530  12.800  26.730   8.460
  439BOLB   C3C10531  12.850  26.370   8.660
  439BOLB   C4C10532  13.030  26.340   9.120
  439BOLB   C1D10533  12.740  25.930   7.670
  439BOLB   C2D10534  12.790  25.530   7.890
  439BOLB   C3D10535  13.040  25.460   8.160
  439BOLB   C4D10536  13.000  25.190   8.530
  440BOLB   NC110537  26.660  11.280  10.400
  440BOLB   PO110538  26.510  10.970  10.520
  440BOLB   GL110539  26.190  11.130  10.220
  440BOLB   GL210540  26.020  11.080   9.920
  440BOLB   C1A10541  26.190  11.650  10.240
  440BOLB   C2A10542  25.890  12.000  10.040
  440BOLB   C3A10543  25.550  11.790   9.860
  440BOLB   C4A10544  25.230  11.700   9.690
  440BOLB   C1B10545  25.670  11.220  10.080
  440BOLB   C2B10546  25.390  11.540  10.220
  440BOLB   C3B10547  24.980  11.720  10.180
  440BOLB   C4B10548  24.580  11.700  10.140
  440BOLB   NC210549  26.520  11.730   7.950
  440BOLB   PO210550  26.460  11.410   8.230
  440BOLB   GL310551  26.020  11.550   8.310
  440BOLB   GL410552  26.070  11.840   8.180
  440BOLB   C1C10553  25.500  11.570   8.280
  440BOLB   C2C10554  25.350  11.380   8.670
  440BOLB   C3C10555  25.050  11.430   8.890
  440BOLB   C4C10556  25.010  11.610   9.270
  440BOLB   C1D10557  25.760  12.020   8.470
  440BOLB   C2D10558  25.350  11.970   8.580
  440BOLB   C3D10559  25.030  12.010   8.900
  440BOLB   C4D10560  24.740  12.100   9.230
  441BOLB   NC110561  18.200   9.640  13.860
  441BOLB   PO110562  18.500   9.640  14.160
  441BOLB   GL110563  18.500   9.180  14.140
  441BOLB   GL210564  18.360   9.080  14.520
  441BOLB   C1A10565  18.550   8.840  14.140
  441BOLB   C2A10566  18.420   8.450  14.180
  441BOLB   C3A10567  18.230   8.030  14.230
  441BOLB   C4A10568  18.390   7.600  14.110
  441BOLB   C1B10569  18.540   8.660  14.630
  441BOLB   C2B10570  18.520   8.190  14.650
  441BOLB   C3B10571  18.700   7.970  14.370
  441BOLB   C4B10572  18.830   7.820  13.890
  441BOLB   NC210573  19.500   5.890  14.730
  441BOLB   PO210574  19.950   5.910  14.600
  441BOLB   GL310575  19.830   6.110  14.230
  441BOLB   GL410576  20.060   6.200  14.000
  441BOLB   C1C10577  19.430   6.270  14.040
  441BOLB   C2C10578  19.050   6.530  13.960
  441BOLB   C3C10579  18.710   6.840  14.110
  441BOLB   C4C10580  18.430   7.160  14.060
  441BOLB   C1D10581  19.830   6.560  14.080
  441BOLB   C2D10582  19.530   6.970  14.130
  441BOLB   C3D10583  19.390   7.340  14.180
  441BOLB   C4D10584  19.130   7.700  14.310
  442BOLB   NC110585  24.180   9.270  16.510
  442BOLB   PO110586  24.330   9.630  16.790
  442BOLB   GL110587  23.940   9.760  16.580
  442BOLB   GL210588  23.750   9.520  16.310
  442BOLB   C1A10589  23.730  10.070  16.420
  442BOLB   C2A10590  23.440  10.410  16.410
  442BOLB   C3A10591  23.260  10.700  16.580
  442BOLB   C4A10592  22.860  10.800  16.500
  442BOLB   C1B10593  23.340   9.710  16.250
  442BOLB   C2B10594  23.140  10.040  16.250
  442BOLB   C3B10595  22.950  10.420  16.160
  442BOLB   C4B10596  23.130  10.810  16.090
  442BOLB   NC210597  21.380  12.320  15.910
  442BOLB   PO210598  21.590  12.540  15.610
  442BOLB   GL310599  21.930  12.300  15.570
  442BOLB   GL410600  22.240  12.330  15.400
  442BOLB   C1C10601  22.130  11.910  15.580
  442BOLB   C2C10602  22.220  11.520  15.710
  442BOLB   C3C10603  22.340  11.180  16.030
  442BOLB   C4C10604  22.590  10.900  16.330
  442BOLB   C1D10605  22.580  12.090  15.480
  442BOLB   C2D10606  22.660  11.880  15.800
  442BOLB   C3D10607  22.770  11.710  16.230
  442BOLB   C4D10608  23.080  11.720  16.590
  443BOLB   NC110609  22.250  21.670  15.180
  443BOLB   PO110610  22.400  21.530  14.720
  443BOLB   GL110611  22.760  21.560  14.760
  443BOLB   GL210612  23.130  21.340  14.650
  443BOLB   C1A10613  23.060  21.580  15.080
  443BOLB   C2A10614  23.350  21.410  15.510
  443BOLB   C3A10615  23.620  21.470  15.800
  443BOLB   C4A10616  23.860  21.710  16.090
  443BOLB   C1B10617  23.610  21.520  14.600
  443BOLB   C2B10618  23.900  21.790  14.450
  443BOLB   C3B10619  24.080  22.210  14.530
  443BOLB   C4B10620  24.360  22.520  14.380
  443BOLB   NC210621  25.080  22.010  18.160
  443BOLB   PO210622  25.360  22.010  17.780
  443BOLB   GL310623  25.030  22.050  17.590
  443BOLB   GL410624  25.040  22.060  17.350
  443BOLB   C1C10625  24.710  21.820  17.540
  443BOLB   C2C10626  24.330  21.690  17.290
  443BOLB   C3C10627  24.220  21.700  16.910
  443BOLB   C4C10628  24.080  21.650  16.470
  443BOLB   C1D10629  25.060  22.360  17.030
  443BOLB   C2D10630  25.180  22.490  16.600
  443BOLB   C3D10631  25.270  22.180  16.250
  443BOLB   C4D10632  25.360  21.760  16.010
  444BOLB   NC110633  22.410  19.810   7.460
  444BOLB   PO110634  22.410  19.590   7.130
  444BOLB   GL110635  22.710  19.720   6.840
  444BOLB   GL210636  22.640  19.880   6.630
  444BOLB   C1A10637  23.140  19.820   6.870
  444BOLB   C2A10638  23.490  20.040   6.570
  444BOLB   C3A10639  23.730  20.360   6.260
  444BOLB   C4A10640  23.780  20.710   5.890
  444BOLB   C1B10641  22.560  20.050   6.340
  444BOLB   C2B10642  22.790  20.160   5.930
  444BOLB   C3B10643  22.960  20.180   5.530
  444BOLB   C4B10644  23.180  20.030   5.220
  444BOLB   NC210645  24.440  20.480   3.720
  444BOLB   PO210646  24.180  20.760   3.510
  444BOLB   GL310647  23.970  20.660   3.900
  444BOLB   GL410648  23.780  20.900   3.900
  444BOLB   C1C10649  24.090  20.640   4.310
  444BOLB   C2C10650  24.270  20.820   4.750
  444BOLB   C3C10651  24.190  20.780   5.120
  444BOLB   C4C10652  24.140  20.790   5.630
  444BOLB   C1D10653  23.450  20.920   4.210
  444BOLB   C2D10654  23.260  20.710   4.490
  444BOLB   C3D10655  23.240  20.750   4.940
  444BOLB   C4D10656  23.280  21.110   5.290
  445BOLB   NC110657  17.370  12.050   5.420
  445BOLB   PO110658  17.190  11.920   5.040
  445BOLB   GL110659  17.410  11.690   4.830
  445BOLB   GL210660  17.310  11.310   4.830
  445BOLB   C1A10661  17.280  11.600   4.370
  445BOLB   C2A10662  17.600  11.590   3.950
  445BOLB   C3A10663  17.990  11.540   3.840
  445BOLB   C4A10664  18.180  11.530   3.420
  445BOLB   C1B10665  17.130  11.100   4.370
  445BOLB   C2B10666  17.350  10.730   4.230
  445BOLB   C3B10667  17.760  10.610   4.080
  445BOLB   C4B10668  18.020  10.460   3.730
  445BOLB   NC210669  20.180  11.610   1.440
  445BOLB   PO210670  19.980  11.520   1.830
  445BOLB   GL310671  19.640  11.750   2.150
  445BOLB   GL410672  19.760  12.060   2.330
  445BOLB   C1C10673  19.290  11.800   2.430
  445BOLB   C2C10674  18.830  11.570   2.370
  445BOLB   C3C10675  18.510  11.400   2.670
  445BOLB   C4C10676  18.390  11.480   3.090
  445BOLB   C1D10677  19.450  12.300   2.530
  445BOLB   C2D10678  19.230  12.220   2.980
  445BOLB   C3D10679  18.850  12.250   3.120
  445BOLB   C4D10680  18.680  12.250   3.470
  446BOLB   NC110681  24.600  17.530  21.020
  446BOLB   PO110682  24.180  17.580  20.850
  446BOLB   GL110683  23.970  17.280  20.750
  446BOLB   GL210684  23.630  17.380  20.700
  446BOLB   C1A10685  23.920  17.120  20.320
  446BOLB   C2A10686  24.050  17.300  20.010
  446BOLB   C3A10687  24.180  17.230  19.650
  446BOLB   C4A10688  24.220  17.050  19.210
  446BOLB   C1B10689  23.180  17.430  20.510
  446BOLB   C2B10690  23.100  17.640  20.160
  446BOLB   C3B10691  23.170  17.930  19.900
  446BOLB   C4B10692  23.070  17.650  19.450
  446BOLB   NC210693  24.200  15.790  20.590
  446BOLB   PO210694  24.580  16.140  20.510
  446BOLB   GL310695  24.180  16.260  20.320
  446BOLB   GL410696  23.850  16.180  20.560
  446BOLB   C1C10697  23.750  16.260  20.090
  446BOLB   C2C10698  23.650  16.360  19.650
  446BOLB   C3C10699  23.600  16.630  19.240
  446BOLB   C4C10700  23.840  16.920  19.100
  446BOLB   C1D10701  23.690  16.620  20.420
  446BOLB   C2D10702  23.350  16.970  20.370
  446BOLB   C3D10703  23.060  17.020  20.130
  446BOLB   C4D10704  22.760  16.760  19.840
  447BOLB   NC110705  15.390  16.460   3.800
  447BOLB   PO110706  15.260  16.070   3.730
  447BOLB   GL110707  15.090  15.700   3.530
  447BOLB   GL210708  14.910  15.620   3.620
  447BOLB   C1A10709  15.070  15.550   3.070
  447BOLB   C2A10710  14.870  15.790   2.740
  447BOLB   C3A10711  14.900  15.940   2.350
  447BOLB   C4A10712  14.700  16.200   1.980
  447BOLB   C1B10713  14.580  15.720   3.340
  447BOLB   C2B10714  14.480  15.560   3.000
  447BOLB   C3B10715  14.790  15.280   2.690
  447BOLB   C4B10716  15.050  15.280   2.420
  447BOLB   NC210717  14.710  16.790  30.880
  447BOLB   PO210718  14.750  16.420  31.210
  447BOLB   GL310719  14.840  16.280   0.110
  447BOLB   GL410720  14.680  16.180   0.270
  447BOLB   C1C10721  15.050  16.070   0.470
  447BOLB   C2C10722  14.830  15.960   0.820
  447BOLB   C3C10723  14.710  15.800   1.170
  447BOLB   C4C10724  14.560  15.940   1.580
  447BOLB   C1D10725  14.590  16.300   0.570
  447BOLB   C2D10726  14.550  16.580   0.940
  447BOLB   C3D10727  14.350  16.430   1.240
  447BOLB   C4D10728  13.990  16.450   1.580
  448BOLB   NC110729  16.810  12.470  18.750
  448BOLB   PO110730  16.620  12.160  18.680
  448BOLB   GL110731  16.740  12.140  19.180
  448BOLB   GL210732  16.500  12.140  19.410
  448BOLB   C1A10733  17.030  11.940  19.490
  448BOLB   C2A10734  17.170  11.640  19.690
  448BOLB   C3A10735  17.100  11.490  20.040
  448BOLB   C4A10736  17.400  11.160  20.270
  448BOLB   C1B10737  16.670  12.020  19.910
  448BOLB   C2B10738  16.740  12.130  20.270
  448BOLB   C3B10739  16.460  12.320  20.530
  448BOLB   C4B10740  16.380  12.330  21.030
  448BOLB   NC210741  19.120   9.150  21.460
  448BOLB   PO210742  19.040   9.600  21.500
  448BOLB   GL310743  18.920   9.780  21.110
  448BOLB   GL410744  19.120   9.950  20.950
  448BOLB   C1C10745  18.570   9.820  20.850
  448BOLB   C2C10746  18.190  10.000  20.700
  448BOLB   C3C10747  17.840  10.350  20.680
  448BOLB   C4C10748  17.500  10.680  20.510
  448BOLB   C1D10749  18.920  10.260  20.840
  448BOLB   C2D10750  18.970  10.660  20.790
  448BOLB   C3D10751  18.870  10.860  20.460
  448BOLB   C4D10752  18.750  11.200  20.600
  449BOLB   NC110753  20.580  13.640  16.990
  449BOLB   PO110754  20.540  13.330  17.350
  449BOLB   GL110755  20.570  13.060  17.620
  449BOLB   GL210756  20.560  12.770  17.560
  449BOLB   C1A10757  20.900  12.900  17.890
  449BOLB   C2A10758  21.170  12.690  18.000
  449BOLB   C3A10759  21.470  12.470  18.070
  449BOLB   C4A10760  21.830  12.180  18.130
  449BOLB   C1B10761  20.750  12.470  17.670
  449BOLB   C2B10762  20.950  12.220  18.050
  449BOLB   C3B10763  21.200  12.180  18.390
  449BOLB   C4B10764  21.620  11.970  18.480
  449BOLB   NC210765  23.410  11.380  19.650
  449BOLB   PO210766  23.460  10.950  19.370
  449BOLB   GL310767  23.370  11.320  19.200
  449BOLB   GL410768  23.630  11.460  18.980
  449BOLB   C1C10769  23.060  11.500  18.980
  449BOLB   C2C10770  22.770  11.550  18.660
  449BOLB   C3C10771  22.550  11.880  18.290
  449BOLB   C4C10772  22.220  12.040  18.110
  449BOLB   C1D10773  23.360  11.640  18.610
  449BOLB   C2D10774  23.010  11.840  18.420
  449BOLB   C3D10775  23.020  12.230  18.350
  449BOLB   C4D10776  23.130  12.500  18.640
  450BOLB   NC110777   7.130  22.730  25.340
  450BOLB   PO110778   7.540  22.850  25.090
  450BOLB   GL110779   7.740  22.780  24.680
  450BOLB   GL210780   8.040  22.800  24.620
  450BOLB   C1A10781   7.610  22.590  24.250
  450BOLB   C2A10782   7.740  22.570  23.860
  450BOLB   C3A10783   8.180  22.650  23.710
  450BOLB   C4A10784   8.570  22.450  23.780
  450BOLB   C1B10785   8.060  22.380  24.690
  450BOLB   C2B10786   8.150  21.980  24.700
  450BOLB   C3B10787   8.350  21.670  24.440
  450BOLB   C4B10788   8.500  21.520  24.090
  450BOLB   NC210789   9.100  23.770  25.290
  450BOLB   PO210790   9.590  23.700  25.200
  450BOLB   GL310791   9.920  23.600  25.020
  450BOLB   GL410792  10.050  23.920  24.950
  450BOLB   C1C10793   9.860  23.420  24.580
  450BOLB   C2C10794   9.600  23.040  24.350
  450BOLB   C3C10795   9.430  22.710  24.170
  450BOLB   C4C10796   9.020  22.660  23.970
  450BOLB   C1D10797  10.160  23.910  24.570
  450BOLB   C2D10798  10.310  23.610  24.260
  450BOLB   C3D10799  10.400  23.350  23.860
  450BOLB   C4D10800  10.330  23.080  23.510
  451BOLB   NC110801  10.110  24.260   5.220
  451BOLB   PO110802   9.960  24.120   5.570
  451BOLB   GL110803   9.980  23.750   5.830
  451BOLB   GL210804   9.910  23.480   5.540
  451BOLB   C1A10805  10.060  23.690   6.250
  451BOLB   C2A10806  10.150  23.390   6.480
  451BOLB   C3A10807  10.510  23.100   6.650
  451BOLB   C4A10808  11.000  23.300   6.610
  451BOLB   C1B10809  10.130  23.010   5.450
  451BOLB   C2B10810  10.030  22.580   5.300
  451BOLB   C3B10811  10.080  22.210   5.530
  451BOLB   C4B10812  10.420  21.910   5.570
  451BOLB   NC210813   9.930  25.070   6.670
  451BOLB   PO210814  10.330  25.290   6.790
  451BOLB   GL310815  10.790  25.170   6.940
  451BOLB   GL410816  10.970  25.220   6.720
  451BOLB   C1C10817  10.860  24.740   6.990
  451BOLB   C2C10818  11.050  24.330   7.070
  451BOLB   C3C10819  11.250  24.000   7.060
  451BOLB   C4C10820  11.160  23.630   6.870
  451BOLB   C1D10821  11.220  24.890   6.590
  451BOLB   C2D10822  11.400  24.540   6.810
  451BOLB   C3D10823  11.520  24.440   7.240
  451BOLB   C4D10824  11.650  24.280   7.610
  452BOLB   NC110825  19.500  11.380  16.020
  452BOLB   PO110826  19.880  11.290  15.880
  452BOLB   GL110827  20.030  11.030  16.250
  452BOLB   GL210828  20.050  10.760  16.270
  452BOLB   C1A10829  20.130  11.030  16.660
  452BOLB   C2A10830  20.330  10.850  17.140
  452BOLB   C3A10831  20.430  10.470  17.480
  452BOLB   C4A10832  20.690  10.260  17.850
  452BOLB   C1B10833  20.270  10.530  16.310
  452BOLB   C2B10834  20.590  10.270  16.460
  452BOLB   C3B10835  20.830  10.000  16.800
  452BOLB   C4B10836  21.180   9.830  16.710
  452BOLB   NC210837  21.900   8.270  17.440
  452BOLB   PO210838  22.160   8.610  17.550
  452BOLB   GL310839  21.770   8.740  17.650
  452BOLB   GL410840  21.600   8.620  17.330
  452BOLB   C1C10841  21.470   9.030  17.780
  452BOLB   C2C10842  21.370   9.300  17.980
  452BOLB   C3C10843  21.330   9.750  18.040
  452BOLB   C4C10844  21.000  10.030  18.060
  452BOLB   C1D10845  21.370   9.030  17.280
  452BOLB   C2D10846  21.200   9.320  17.460
  452BOLB   C3D10847  21.490   9.740  17.550
  452BOLB   C4D10848  21.600  10.000  17.250
  453BOLB   NC110849  22.720  13.840  13.680
  453BOLB   PO110850  22.850  13.620  13.960
  453BOLB   GL110851  23.260  13.460  14.130
  453BOLB   GL210852  23.360  13.100  14.130
  453BOLB   C1A10853  23.500  13.530  14.360
  453BOLB   C2A10854  23.790  13.450  14.690
  453BOLB   C3A10855  23.960  13.290  15.020
  453BOLB   C4A10856  24.430  13.360  14.990
  453BOLB   C1B10857  23.740  12.720  14.030
  453BOLB   C2B10858  24.130  12.510  13.840
  453BOLB   C3B10859  24.370  12.210  13.510
  453BOLB   C4B10860  24.630  11.810  13.410
  453BOLB   NC210861  26.650  12.550  16.300
  453BOLB   PO210862  26.370  12.460  15.930
  453BOLB   GL310863  25.870  12.410  15.870
  453BOLB   GL410864  25.720  12.560  16.120
  453BOLB   C1C10865  25.620  12.630  15.590
  453BOLB   C2C10866  25.540  12.710  15.280
  453BOLB   C3C10867  25.120  12.960  15.360
  453BOLB   C4C10868  24.840  13.250  15.080
  453BOLB   C1D10869  25.260  12.620  16.090
  453BOLB   C2D10870  24.870  12.570  15.690
  453BOLB   C3D10871  24.570  12.760  15.450
  453BOLB   C4D10872  24.290  13.150  15.430
  454BOLB   NC110873  17.140  12.780   5.290
  454BOLB   PO110874  17.480  12.480   5.190
  454BOLB   GL110875  17.580  12.230   4.890
  454BOLB   GL210876  17.430  12.170   4.560
  454BOLB   C1A10877  17.920  12.000   4.800
  454BOLB   C2A10878  17.930  11.870   4.290
  454BOLB   C3A10879  18.150  11.970   4.010
  454BOLB   C4A10880  18.440  11.900   3.710
  454BOLB   C1B10881  17.380  12.110   4.180
  454BOLB   C2B10882  17.300  11.930   3.750
  454BOLB   C3B10883  17.330  11.990   3.300
  454BOLB   C4B10884  17.280  12.430   3.200
  454BOLB   NC210885  19.670  10.400   2.020
  454BOLB   PO210886  19.480  10.740   1.790
  454BOLB   GL310887  19.150  10.920   2.090
  454BOLB   GL410888  19.290  10.730   2.330
  454BOLB   C1C10889  18.970  11.070   2.470
  454BOLB   C2C10890  18.960  11.030   2.990
  454BOLB   C3C10891  18.950  11.400   3.270
  454BOLB   C4C10892  18.660  11.740   3.390
  454BOLB   C1D10893  19.410  10.870   2.750
  454BOLB   C2D10894  19.470  11.120   3.030
  454BOLB   C3D10895  19.400  11.550   3.230
  454BOLB   C4D10896  19.150  11.870   3.420
  455BOLB   NC110897  15.110  24.890  14.640
  455BOLB   PO110898  15.090  25.380  14.560
  455BOLB   GL110899  15.370  25.780  14.520
  455BOLB   GL210900  15.630  25.850  14.820
  455BOLB   C1A10901  15.260  26.190  14.490
  455BOLB   C2A10902  15.410  26.670  14.570
  455BOLB   C3A10903  15.720  27.060  14.640
  455BOLB   C4A10904  15.650  27.430  14.750
  455BOLB   C1B10905  15.660  26.330  14.850
  455BOLB   C2B10906  15.460  26.730  15.040
  455BOLB   C3B10907  15.250  27.100  15.170
  455BOLB   C4B10908  14.850  27.260  15.120
  455BOLB   NC210909  16.790  29.220  15.490
  455BOLB   PO210910  16.480  29.330  15.790
  455BOLB   GL310911  16.340  29.000  15.630
  455BOLB   GL410912  16.020  28.980  15.810
  455BOLB   C1C10913  16.370  28.570  15.690
  455BOLB   C2C10914  16.130  28.290  15.550
  455BOLB   C3C10915  16.190  28.100  15.220
  455BOLB   C4C10916  15.860  27.700  14.990
  455BOLB   C1D10917  15.720  28.850  16.080
  455BOLB   C2D10918  15.680  28.500  16.460
  455BOLB   C3D10919  15.660  28.380  16.900
  455BOLB   C4D10920  15.650  27.980  17.090
  456BOLB   NC110921  16.550   9.140  13.240
  456BOLB   PO110922  16.280   8.980  12.950
  456BOLB   GL110923  16.440   8.670  13.140
  456BOLB   GL210924  16.540   8.490  12.910
  456BOLB   C1A10925  16.290   8.290  13.250
  456BOLB   C2A10926  16.320   7.940  12.920
  456BOLB   C3A10927  16.090   7.470  13.000
  456BOLB   C4A10928  16.260   7.050  13.050
  456BOLB   C1B10929  16.860   8.060  12.970
  456BOLB   C2B10930  16.970   7.630  12.820
  456BOLB   C3B10931  16.800   7.200  12.830
  456BOLB   C4B10932  16.750   6.910  12.560
  456BOLB   NC210933  17.240   4.850  12.540
  456BOLB   PO210934  17.590   4.970  12.870
  456BOLB   GL310935  17.370   5.160  13.260
  456BOLB   GL410936  17.700   5.260  13.460
  456BOLB   C1C10937  16.970   5.470  13.320
  456BOLB   C2C10938  16.780   5.800  13.010
  456BOLB   C3C10939  16.510   6.210  12.840
  456BOLB   C4C10940  16.390   6.620  12.830
  456BOLB   C1D10941  17.420   5.700  13.220
  456BOLB   C2D10942  17.220   6.050  12.960
  456BOLB   C3D10943  16.950   6.140  12.590
  456BOLB   C4D10944  16.740   6.480  12.300
  457BOLB   NC110945  10.000  20.790  11.050
  457BOLB   PO110946   9.690  21.160  10.880
  457BOLB   GL110947   9.680  21.580  10.830
  457BOLB   GL210948   9.480  21.690  11.050
  457BOLB   C1A10949   9.400  21.900  10.620
  457BOLB   C2A10950   9.190  22.230  10.490
  457BOLB   C3A10951   8.910  22.410  10.560
  457BOLB   C4A10952   8.630  22.730  10.520
  457BOLB   C1B10953   9.090  21.650  10.930
  457BOLB   C2B10954   8.730  21.840  10.680
  457BOLB   C3B10955   8.470  22.230  10.490
  457BOLB   C4B10956   8.340  22.400  10.180
  457BOLB   NC210957   6.680  23.850   9.520
  457BOLB   PO210958   6.600  24.030   9.850
  457BOLB   GL310959   6.910  23.710  10.030
  457BOLB   GL410960   7.200  23.640   9.900
  457BOLB   C1C10961   7.230  23.540  10.340
  457BOLB   C2C10962   7.630  23.420  10.390
  457BOLB   C3C10963   8.030  23.230  10.450
  457BOLB   C4C10964   8.320  22.940  10.450
  457BOLB   C1D10965   7.650  23.510   9.770
  457BOLB   C2D10966   7.880  23.140   9.970
  457BOLB   C3D10967   8.100  22.780   9.900
  457BOLB   C4D10968   8.230  22.530   9.480
  458BOLB   NC110969  19.520  17.820  18.800
  458BOLB   PO110970  19.890  18.180  18.980
  458BOLB   GL110971  20.260  18.150  19.200
  458BOLB   GL210972  20.390  18.440  19.220
  458BOLB   C1A10973  20.590  18.140  19.580
  458BOLB   C2A10974  20.910  18.170  19.870
  458BOLB   C3A10975  21.080  18.120  20.240
  458BOLB   C4A10976  21.400  18.150  20.640
  458BOLB   C1B10977  20.720  18.610  19.150
  458BOLB   C2B10978  20.890  18.640  19.500
  458BOLB   C3B10979  21.280  18.710  19.720
  458BOLB   C4B10980  21.490  18.880  19.990
  458BOLB   NC210981  21.770  16.790  23.020
  458BOLB   PO210982  22.030  17.140  22.910
  458BOLB   GL310983  22.020  17.180  22.420
  458BOLB   GL410984  21.680  17.170  22.270
  458BOLB   C1C10985  22.100  17.440  22.040
  458BOLB   C2C10986  21.960  17.660  21.780
  458BOLB   C3C10987  21.730  17.860  21.440
  458BOLB   C4C10988  21.610  17.860  21.000
  458BOLB   C1D10989  21.230  17.330  22.020
  458BOLB   C2D10990  21.050  17.600  21.710
  458BOLB   C3D10991  20.660  17.690  21.360
  458BOLB   C4D10992  20.600  18.000  21.060
  459BOLB   NC110993  19.330  13.830  18.670
  459BOLB   PO110994  18.970  13.630  18.440
  459BOLB   GL110995  19.170  13.330  18.710
  459BOLB   GL210996  19.460  13.490  18.960
  459BOLB   C1A10997  19.290  13.000  18.880
  459BOLB   C2A10998  19.700  12.690  18.850
  459BOLB   C3A10999  20.020  12.560  19.070
  459BOLB   C4A11000  20.270  12.390  19.500
  459BOLB   C1B11001  19.820  13.180  19.160
  459BOLB   C2B11002  20.010  12.950  19.510
  459BOLB   C3B11003  20.210  13.090  19.980
  459BOLB   C4B11004  20.610  13.220  19.980
  459BOLB   NC211005  20.680  11.680  21.880
  459BOLB   PO211006  21.030  11.790  21.710
  459BOLB   GL311007  20.890  12.040  21.420
  459BOLB   GL411008  20.900  12.360  21.370
  459BOLB   C1C11009  20.880  12.110  20.950
  459BOLB   C2C11010  20.840  12.150  20.560
  459BOLB   C3C11011  20.800  12.320  20.230
  459BOLB   C4C11012  20.410  12.340  19.960
  459BOLB   C1D11013  20.450  12.310  21.170
  459BOLB   C2D11014  20.140  12.060  21.170
  459BOLB   C3D11015  19.670  12.030  21.260
  459BOLB   C4D11016  19.410  11.970  21.640
  460BOLB   NC111017  13.980  15.350   4.050
  460BOLB   PO111018  14.000  14.970   4.330
  460BOLB   GL111019  13.650  14.850   4.000
  460BOLB   GL211020  13.300  14.800   4.060
  460BOLB   C1A11021  13.600  14.750   3.630
  460BOLB   C2A11022  13.560  14.420   3.330
  460BOLB   C3A11023  13.340  14.290   2.910
  460BOLB   C4A11024  12.920  14.220   2.850
  460BOLB   C1B11025  13.130  14.810   3.670
  460BOLB   C2B11026  12.910  14.970   3.370
  460BOLB   C3B11027  12.790  14.990   2.910
  460BOLB   C4B11028  12.800  15.140   2.510
  460BOLB   NC211029  11.870  13.050   1.050
  460BOLB   PO211030  12.190  13.320   0.780
  460BOLB   GL311031  12.390  13.460   1.060
  460BOLB   GL411032  12.310  13.290   1.260
  460BOLB   C1C11033  12.760  13.740   1.230
  460BOLB   C2C11034  12.940  14.010   1.570
  460BOLB   C3C11035  12.960  14.110   1.980
  460BOLB   C4C11036  12.830  14.140   2.410
  460BOLB   C1D11037  12.490  13.540   1.570
  460BOLB   C2D11038  12.620  13.630   2.040
  460BOLB   C3D11039  12.540  13.740   2.440
  460BOLB   C4D11040  12.730  13.740   2.880
  461BOLB   NC111041  17.660  10.610  16.840
  461BOLB   PO111042  17.440  10.620  17.240
  461BOLB   GL111043  17.560  10.300  17.500
  461BOLB   GL211044  17.910  10.240  17.710
  461BOLB   C1A11045  17.460   9.930  17.820
  461BOLB   C2A11046  17.460   9.720  18.230
  461BOLB   C3A11047  17.220   9.380  18.480
  461BOLB   C4A11048  17.000   9.080  18.520
  461BOLB   C1B11049  17.960  10.120  18.090
  461BOLB   C2B11050  17.820  10.110  18.510
  461BOLB   C3B11051  17.720   9.770  18.920
  461BOLB   C4B11052  18.050   9.560  19.030
  461BOLB   NC211053  17.340   6.500  19.470
  461BOLB   PO211054  17.590   6.690  19.020
  461BOLB   GL311055  17.380   7.000  18.810
  461BOLB   GL411056  17.160   6.920  18.570
  461BOLB   C1C11057  17.190   7.480  18.780
  461BOLB   C2C11058  17.040   7.920  18.910
  461BOLB   C3C11059  16.980   8.420  18.860
  461BOLB   C4C11060  16.820   8.740  18.750
  461BOLB   C1D11061  16.880   7.240  18.430
  461BOLB   C2D11062  16.880   7.750  18.430
  461BOLB   C3D11063  16.640   8.070  18.590
  461BOLB   C4D11064  16.460   8.400  18.530
  462BOLB   NC111065  16.210  18.070   4.260
  462BOLB   PO111066  16.120  17.650   4.090
  462BOLB   GL111067  15.690  17.630   3.830
  462BOLB   GL211068  15.500  17.880   3.890
  462BOLB   C1A11069  15.400  17.710   3.460
  462BOLB   C2A11070  15.070  17.990   3.340
  462BOLB   C3A11071  14.880  18.500   3.420
  462BOLB   C4A11072  14.600  18.700   3.160
  462BOLB   C1B11073  15.540  18.200   3.520
  462BOLB   C2B11074  15.490  18.330   3.120
  462BOLB   C3B11075  15.580  18.540   2.720
  462BOLB   C4B11076  16.000  18.430   2.720
  462BOLB   NC211077  14.630  18.870   0.800
  462BOLB   PO211078  14.210  18.910   0.810
  462BOLB   GL311079  14.210  18.610   1.160
  462BOLB   GL411080  13.830  18.450   1.270
  462BOLB   C1C11081  14.350  18.670   1.600
  462BOLB   C2C11082  14.340  18.740   2.020
  462BOLB   C3C11083  14.580  19.000   2.330
  462BOLB   C4C11084  14.500  18.920   2.790
  462BOLB   C1D11085  13.870  18.470   1.700
  462BOLB   C2D11086  13.880  18.560   2.100
  462BOLB   C3D11087  14.050  18.360   2.400
  462BOLB   C4D11088  14.200  18.050   2.720
  463BOLB   NC111089  23.520  13.430  11.470
  463BOLB   PO111090  23.730  13.860  11.700
  463BOLB   GL111091  24.040  13.570  11.710
  463BOLB   GL211092  24.140  13.660  11.920
  463BOLB   C1A11093  24.310  13.280  11.630
  463BOLB   C2A11094  24.530  12.950  11.420
  463BOLB   C3A11095  24.700  12.640  11.170
  463BOLB   C4A11096  24.940  12.540  10.870
  463BOLB   C1B11097  24.450  13.900  12.130
  463BOLB   C2B11098  24.740  14.220  12.350
  463BOLB   C3B11099  25.130  14.300  12.560
  463BOLB   C4B11100  25.470  14.560  12.560
  463BOLB   NC211101  26.870  11.630  11.060
  463BOLB   PO211102  27.000  11.710  10.580
  463BOLB   GL311103  26.770  12.000  10.760
  463BOLB   GL411104  26.500  11.760  10.640
  463BOLB   C1C11105  26.390  12.240  10.840
  463BOLB   C2C11106  26.010  12.300  10.760
  463BOLB   C3C11107  25.670  12.430  10.500
  463BOLB   C4C11108  25.370  12.380  10.710
  463BOLB   C1D11109  26.040  11.780  10.830
  463BOLB   C2D11110  25.630  12.020  10.870
  463BOLB   C3D11111  25.200  12.170  11.090
  463BOLB   C4D11112  24.960  12.280  11.450
  464BOLB   NC111113  13.420  18.120   4.910
  464BOLB   PO111114  13.120  18.330   4.860
  464BOLB   GL111115  12.920  18.250   4.520
  464BOLB   GL211116  12.720  18.040   4.360
  464BOLB   C1A11117  12.960  18.420   4.060
  464BOLB   C2A11118  13.080  18.870   3.900
  464BOLB   C3A11119  13.360  19.150   3.730
  464BOLB   C4A11120  13.160  19.510   3.540
  464BOLB   C1B11121  12.460  18.050   4.000
  464BOLB   C2B11122  12.110  18.190   3.700
  464BOLB   C3B11123  11.750  17.980   3.520
  464BOLB   C4B11124  11.380  18.030   3.390
  464BOLB   NC211125  13.590  18.900   0.760
  464BOLB   PO211126  13.320  18.990   1.180
  464BOLB   GL311127  13.450  18.950   1.540
  464BOLB   GL411128  13.340  19.260   1.670
  464BOLB   C1C11129  13.470  18.910   2.010
  464BOLB   C2C11130  13.270  19.080   2.360
  464BOLB   C3C11131  13.160  19.320   2.760
  464BOLB   C4C11132  13.150  19.560   3.120
  464BOLB   C1D11133  13.550  19.440   2.030
  464BOLB   C2D11134  13.720  19.420   2.450
  464BOLB   C3D11135  13.800  19.230   2.780
  464BOLB   C4D11136  14.060  19.010   3.090
  465BOLB   NC111137  23.800  16.170  12.160
  465BOLB   PO111138  24.080  15.960  12.330
  465BOLB   GL111139  24.470  15.890  12.470
  465BOLB   GL211140  24.570  16.080  12.610
  465BOLB   C1A11141  24.790  15.930  12.090
  465BOLB   C2A11142  25.100  15.820  11.860
  465BOLB   C3A11143  25.630  15.780  11.730
  465BOLB   C4A11144  25.840  15.570  11.410
  465BOLB   C1B11145  25.010  15.980  12.700
  465BOLB   C2B11146  25.310  15.950  12.400
  465BOLB   C3B11147  25.450  15.730  12.180
  465BOLB   C4B11148  25.300  15.400  12.010
  465BOLB   NC211149  27.520  14.000  11.110
  465BOLB   PO211150  27.660  14.360  10.890
  465BOLB   GL311151  27.420  14.570  11.320
  465BOLB   GL411152  27.510  14.460  11.590
  465BOLB   C1C11153  26.950  14.620  11.360
  465BOLB   C2C11154  26.640  14.730  11.050
  465BOLB   C3C11155  26.250  14.840  11.110
  465BOLB   C4C11156  26.130  15.230  11.240
  465BOLB   C1D11157  27.220  14.680  11.740
  465BOLB   C2D11158  26.910  14.750  11.830
  465BOLB   C3D11159  26.690  14.980  12.170
  465BOLB   C4D11160  26.970  15.020  12.490
  466BOLB   NC111161  17.110   9.290  12.620
  466BOLB   PO111162  17.390   9.070  12.270
  466BOLB   GL111163  17.250   8.630  12.260
  466BOLB   GL211164  17.050   8.640  12.550
  466BOLB   C1A11165  16.990   8.360  12.060
  466BOLB   C2A11166  16.920   7.960  12.050
  466BOLB   C3A11167  16.930   7.490  12.090
  466BOLB   C4A11168  17.110   7.240  11.750
  466BOLB   C1B11169  16.770   8.170  12.450
  466BOLB   C2B11170  16.540   7.850  12.500
  466BOLB   C3B11171  16.620   7.360  12.440
  466BOLB   C4B11172  16.920   6.990  12.140
  466BOLB   NC211173  17.650   4.700  11.810
  466BOLB   PO211174  17.330   4.940  11.540
  466BOLB   GL311175  17.470   5.220  11.210
  466BOLB   GL411176  17.180   5.320  11.010
  466BOLB   C1C11177  17.430   5.720  11.140
  466BOLB   C2C11178  17.450   6.150  11.210
  466BOLB   C3C11179  17.240   6.500  11.380
  466BOLB   C4C11180  17.060   6.900  11.570
  466BOLB   C1D11181  16.900   5.620  10.930
  466BOLB   C2D11182  16.850   5.940  10.660
  466BOLB   C3D11183  16.590   5.970  10.290
  466BOLB   C4D11184  16.330   5.690  10.090
  467BOLB   NC111185  18.990  24.480  15.980
  467BOLB   PO111186  19.150  24.800  15.820
  467BOLB   GL111187  19.390  25.160  15.910
  467BOLB   GL211188  19.280  25.420  15.830
  467BOLB   C1A11189  19.770  25.350  16.080
  467BOLB   C2A11190  19.790  25.520  16.550
  467BOLB   C3A11191  19.960  25.700  16.920
  467BOLB   C4A11192  20.310  25.740  17.230
  467BOLB   C1B11193  18.990  25.590  16.040
  467BOLB   C2B11194  18.800  26.030  16.110
  467BOLB   C3B11195  18.690  26.300  16.470
  467BOLB   C4B11196  18.600  26.680  16.560
  467BOLB   NC211197  21.220  27.530  18.540
  467BOLB   PO211198  21.310  27.280  18.920
  467BOLB   GL311199  21.010  27.020  18.900
  467BOLB   GL411200  21.090  26.770  19.160
  467BOLB   C1C11201  20.690  26.730  18.650
  467BOLB   C2C11202  20.580  26.500  18.290
  467BOLB   C3C11203  20.500  26.180  17.930
  467BOLB   C4C11204  20.570  25.980  17.470
  467BOLB   C1D11205  20.760  26.540  19.110
  467BOLB   C2D11206  20.840  26.110  19.200
  467BOLB   C3D11207  20.690  25.720  19.250
  467BOLB   C4D11208  20.450  25.390  19.130
  468BOLB   NC111209  18.890  19.650  19.610
  468BOLB   PO111210  19.240  19.520  19.350
  468BOLB   GL111211  19.430  19.360  19.760
  468BOLB   GL211212  19.280  19.530  20.060
  468BOLB   C1A11213  19.810  19.110  19.950
  468BOLB   C2A11214  20.150  18.850  20.070
  468BOLB   C3A11215  20.570  19.020  20.230
  468BOLB   C4A11216  20.860  18.950  20.570
  468BOLB   C1B11217  19.640  19.630  20.110
  468BOLB   C2B11218  20.060  19.560  20.120
  468BOLB   C3B11219  20.340  19.660  20.460
  468BOLB   C4B11220  20.670  19.760  20.780
  468BOLB   NC211221  21.900  19.470  22.800
  468BOLB   PO211222  22.290  19.210  22.530
  468BOLB   GL311223  21.940  19.240  22.260
  468BOLB   GL411224  21.580  19.110  22.350
  468BOLB   C1C11225  21.790  19.080  21.890
  468BOLB   C2C11226  21.730  19.150  21.460
  468BOLB   C3C11227  21.560  19.170  21.040
  468BOLB   C4C11228  21.360  19.030  20.620
  468BOLB   C1D11229  21.390  18.850  22.110
  468BOLB   C2D11230  21.090  18.620  21.930
  468BOLB   C3D11231  21.050  18.400  21.660
  468BOLB   C4D11232  20.860  18.380  21.260
  469BOLB   NC111233  15.550  23.220  19.200
  469BOLB   PO111234  15.580  23.410  18.780
  469BOLB   GL111235  15.610  23.760  19.040
  469BOLB   GL211236  15.360  23.740  19.120
  469BOLB   C1A11237  15.920  23.880  19.200
  469BOLB   C2A11238  16.040  24.020  19.530
  469BOLB   C3A11239  16.230  24.330  19.700
  469BOLB   C4A11240  16.030  24.650  19.940
  469BOLB   C1B11241  15.380  24.160  19.360
  469BOLB   C2B11242  15.720  24.480  19.390
  469BOLB   C3B11243  15.730  24.950  19.310
  469BOLB   C4B11244  15.680  25.320  19.100
  469BOLB   NC211245  15.950  26.810  20.540
  469BOLB   PO211246  15.920  26.360  20.870
  469BOLB   GL311247  16.050  26.000  20.620
  469BOLB   GL411248  16.370  25.970  20.340
  469BOLB   C1C11249  15.920  25.890  20.200
  469BOLB   C2C11250  15.470  25.700  20.040
  469BOLB   C3C11251  15.410  25.380  19.770
  469BOLB   C4C11252  15.590  24.890  19.880
  469BOLB   C1D11253  16.370  25.690  20.050
  469BOLB   C2D11254  16.260  25.610  19.590
  469BOLB   C3D11255  15.830  25.790  19.650
  469BOLB   C4D11256  15.520  25.770  19.260
  470BOLB   NC111257  18.660  15.200   4.590
  470BOLB   PO111258  18.350  15.270   4.290
  470BOLB   GL111259  18.550  15.210   3.980
  470BOLB   GL211260  18.880  15.230   4.120
  470BOLB   C1A11261  18.610  15.230   3.530
  470BOLB   C2A11262  19.020  15.230   3.190
  470BOLB   C3A11263  19.300  15.030   2.820
  470BOLB   C4A11264  19.590  14.780   2.710
  470BOLB   C1B11265  19.050  15.090   3.740
  470BOLB   C2B11266  19.410  14.990   3.390
  470BOLB   C3B11267  19.560  14.620   3.450
  470BOLB   C4B11268  19.260  14.420   3.630
  470BOLB   NC211269  19.790  13.820   1.100
  470BOLB   PO211270  19.470  14.150   0.940
  470BOLB   GL311271  19.050  14.160   1.150
  470BOLB   GL411272  18.710  14.140   1.030
  470BOLB   C1C11273  19.150  14.490   1.470
  470BOLB   C2C11274  19.480  14.480   1.780
  470BOLB   C3C11275  19.760  14.690   2.070
  470BOLB   C4C11276  19.930  14.710   2.330
  470BOLB   C1D11277  18.740  14.190   1.480
  470BOLB   C2D11278  18.940  14.260   1.950
  470BOLB   C3D11279  18.830  14.320   2.390
  470BOLB   C4D11280  18.930  14.640   2.720
  471BOLB   NC111281  22.630  12.960   9.840
  471BOLB   PO111282  22.870  12.660   9.920
  471BOLB   GL111283  23.160  12.470   9.690
  471BOLB   GL211284  23.370  12.780   9.590
  471BOLB   C1A11285  23.450  12.320   9.430
  471BOLB   C2A11286  23.810  12.330   9.190
  471BOLB   C3A11287  24.100  12.000   9.120
  471BOLB   C4A11288  24.390  11.610   9.150
  471BOLB   C1B11289  23.800  12.770   9.530
  471BOLB   C2B11290  24.280  12.880   9.520
  471BOLB   C3B11291  24.680  12.710   9.480
  471BOLB   C4B11292  25.150  12.530   9.410
  471BOLB   NC211293  26.300  10.190   9.430
  471BOLB   PO211294  26.000  10.510   9.300
  471BOLB   GL311295  25.910  10.910   9.450
  471BOLB   GL411296  26.100  11.220   9.440
  471BOLB   C1C11297  25.560  10.860   9.750
  471BOLB   C2C11298  25.200  11.110   9.610
  471BOLB   C3C11299  24.880  11.120   9.320
  471BOLB   C4C11300  24.550  11.300   9.150
  471BOLB   C1D11301  26.060  11.600   9.360
  471BOLB   C2D11302  25.850  11.980   9.390
  471BOLB   C3D11303  25.580  12.270   9.610
  471BOLB   C4D11304  25.820  12.590   9.960
  472BOLB   NC111305  23.040  17.290   9.450
  472BOLB   PO111306  23.570  17.240   9.530
  472BOLB   GL111307  23.980  17.290   9.260
  472BOLB   GL211308  23.920  17.450   8.980
  472BOLB   C1A11309  24.330  17.270   8.870
  472BOLB   C2A11310  24.670  17.320   8.610
  472BOLB   C3A11311  25.020  17.440   8.310
  472BOLB   C4A11312  25.410  17.460   8.200
  472BOLB   C1B11313  24.140  17.760   8.710
  472BOLB   C2B11314  24.420  17.730   8.480
  472BOLB   C3B11315  24.820  17.910   8.300
  472BOLB   C4B11316  25.220  17.920   8.240
  472BOLB   NC211317  27.790  16.840   8.010
  472BOLB   PO211318  27.690  16.420   8.280
  472BOLB   GL311319  27.280  16.580   8.380
  472BOLB   GL411320  27.320  16.780   8.620
  472BOLB   C1C11321  26.970  16.810   8.170
  472BOLB   C2C11322  26.630  17.040   8.260
  472BOLB   C3C11323  26.230  17.090   8.230
  472BOLB   C4C11324  25.760  17.190   8.150
  472BOLB   C1D11325  26.920  16.700   8.730
  472BOLB   C2D11326  26.670  17.060   8.770
  472BOLB   C3D11327  26.270  17.260   8.830
  472BOLB   C4D11328  26.230  17.410   9.240
  473BOLB   NC111329  18.720  13.180  18.440
  473BOLB   PO111330  18.520  13.570  18.590
  473BOLB   GL111331  18.550  13.080  18.850
  473BOLB   GL211332  18.340  12.960  18.830
  473BOLB   C1A11333  18.850  12.870  19.050
  473BOLB   C2A11334  19.080  12.610  19.360
  473BOLB   C3A11335  19.010  12.490  19.780
  473BOLB   C4A11336  19.090  12.120  20.120
  473BOLB   C1B11337  18.350  12.700  19.270
  473BOLB   C2B11338  18.580  12.350  19.570
  473BOLB   C3B11339  18.770  12.000  19.760
  473BOLB   C4B11340  18.970  11.730  19.740
  473BOLB   NC211341  19.790  10.730  21.860
  473BOLB   PO211342  19.470  10.390  21.800
  473BOLB   GL311343  19.410  10.580  21.410
  473BOLB   GL411344  19.380  10.420  21.050
  473BOLB   C1C11345  19.280  10.890  21.010
  473BOLB   C2C11346  19.280  11.340  20.890
  473BOLB   C3C11347  19.060  11.540  20.660
  473BOLB   C4C11348  18.970  11.820  20.560
  473BOLB   C1D11349  18.950  10.470  21.270
  473BOLB   C2D11350  18.500  10.560  21.430
  473BOLB   C3D11351  18.170  10.500  21.580
  473BOLB   C4D11352  17.940  10.630  21.950
  474BOLB   NC111353  19.900  11.220   6.950
  474BOLB   PO111354  19.550  11.540   6.790
  474BOLB   GL111355  19.790  11.330   6.460
  474BOLB   GL211356  19.680  10.980   6.510
  474BOLB   C1A11357  20.140  11.170   6.320
  474BOLB   C2A11358  20.400  10.890   6.130
  474BOLB   C3A11359  20.770  10.830   6.120
  474BOLB   C4A11360  21.130  10.690   5.970
  474BOLB   C1B11361  19.990  10.660   6.620
  474BOLB   C2B11362  20.400  10.490   6.460
  474BOLB   C3B11363  20.760  10.230   6.250
  474BOLB   C4B11364  20.990  10.160   5.850
  474BOLB   NC211365  22.430   9.160   4.760
  474BOLB   PO211366  22.160   9.450   4.570
  474BOLB   GL311367  21.890   9.290   4.800
  474BOLB   GL411368  21.710   9.040   4.700
  474BOLB   C1C11369  21.520   9.240   5.130
  474BOLB   C2C11370  21.390   9.520   5.400
  474BOLB   C3C11371  21.260   9.960   5.490
  474BOLB   C4C11372  21.330  10.450   5.620
  474BOLB   C1D11373  21.330   9.250   4.610
  474BOLB   C2D11374  21.080   9.470   4.830
  474BOLB   C3D11375  20.870   9.500   5.260
  474BOLB   C4D11376  20.560   9.410   5.590
  475BOLB   NC111377  15.750   9.360  14.820
  475BOLB   PO111378  15.360   9.440  14.610
  475BOLB   GL111379  15.410   8.990  14.700
  475BOLB   GL211380  15.080   8.980  14.840
  475BOLB   C1A11381  15.200   8.530  14.670
  475BOLB   C2A11382  15.110   8.060  14.620
  475BOLB   C3A11383  15.000   7.650  14.760
  475BOLB   C4A11384  15.020   7.180  14.830
  475BOLB   C1B11385  14.930   8.780  15.180
  475BOLB   C2B11386  15.020   8.370  15.100
  475BOLB   C3B11387  15.270   7.980  15.140
  475BOLB   C4B11388  15.370   7.490  15.050
  475BOLB   NC211389  14.540   4.770  13.960
  475BOLB   PO211390  14.890   5.000  13.920
  475BOLB   GL311391  15.040   5.320  13.970
  475BOLB   GL411392  15.270   5.450  13.820
  475BOLB   C1C11393  15.000   5.730  14.080
  475BOLB   C2C11394  14.870   5.970  14.460
  475BOLB   C3C11395  14.960   6.300  14.690
  475BOLB   C4C11396  15.080   6.700  14.680
  475BOLB   C1D11397  15.190   5.700  13.460
  475BOLB   C2D11398  15.340   6.040  13.280
  475BOLB   C3D11399  15.600   6.410  13.530
  475BOLB   C4D11400  15.630   6.840  13.340
  476BOLB   NC111401  12.630   9.460  10.600
  476BOLB   PO111402  12.800   9.500  10.210
  476BOLB   GL111403  12.550   9.200  10.130
  476BOLB   GL211404  12.400   9.320   9.920
  476BOLB   C1A11405  12.350   8.900  10.310
  476BOLB   C2A11406  12.470   8.460  10.270
  476BOLB   C3A11407  12.740   8.080  10.280
  476BOLB   C4A11408  12.890   7.620  10.480
  476BOLB   C1B11409  12.100   8.970   9.850
  476BOLB   C2B11410  11.890   8.660   9.900
  476BOLB   C3B11411  11.670   8.130   9.860
  476BOLB   C4B11412  11.510   7.690  10.020
  476BOLB   NC211413  12.260   5.140  10.220
  476BOLB   PO211414  12.060   5.290   9.960
  476BOLB   GL311415  12.250   5.650  10.060
  476BOLB   GL411416  12.520   5.540  10.130
  476BOLB   C1C11417  12.120   6.080  10.160
  476BOLB   C2C11418  12.170   6.510  10.310
  476BOLB   C3C11419  12.320   6.960  10.150
  476BOLB   C4C11420  12.560   7.240  10.440
  476BOLB   C1D11421  12.640   6.040  10.140
  476BOLB   C2D11422  12.730   6.450  10.140
  476BOLB   C3D11423  12.780   6.840  10.370
  476BOLB   C4D11424  13.140   7.200  10.240
  477BOLB   NC111425  19.940  24.940  14.940
  477BOLB   PO111426  19.480  24.830  14.990
  477BOLB   GL111427  19.560  25.140  15.150
  477BOLB   GL211428  19.360  25.130  15.430
  477BOLB   C1A11429  19.580  25.600  15.000
  477BOLB   C2A11430  19.510  26.060  14.920
  477BOLB   C3A11431  19.460  26.550  14.900
  477BOLB   C4A11432  19.140  26.780  14.720
  477BOLB   C1B11433  19.700  25.460  15.520
  477BOLB   C2B11434  20.000  25.630  15.730
  477BOLB   C3B11435  20.000  25.860  16.090
  477BOLB   C4B11436  19.720  26.210  16.160
  477BOLB   NC211437  19.530  29.080  14.880
  477BOLB   PO211438  19.110  28.930  15.060
  477BOLB   GL311439  19.190  28.720  14.640
  477BOLB   GL411440  19.420  28.630  14.670
  477BOLB   C1C11441  19.440  28.450  14.190
  477BOLB   C2C11442  19.400  28.030  14.150
  477BOLB   C3C11443  19.290  27.520  14.300
  477BOLB   C4C11444  19.210  27.120  14.510
  477BOLB   C1D11445  19.260  28.210  14.620
  477BOLB   C2D11446  19.060  27.890  14.560
  477BOLB   C3D11447  18.810  27.470  14.510
  477BOLB   C4D11448  18.670  27.030  14.390
  478BOLB   NC111449  20.510  10.520  10.620
  478BOLB   PO111450  20.430  10.050  10.470
  478BOLB   GL111451  20.450   9.710  10.290
  478BOLB   GL211452  20.290   9.570   9.980
  478BOLB   C1A11453  20.840   9.390  10.260
  478BOLB   C2A11454  20.760   8.990  10.100
  478BOLB   C3A11455  21.070   8.740   9.930
  478BOLB   C4A11456  21.150   8.470   9.620
  478BOLB   C1B11457  20.340   9.260   9.810
  478BOLB   C2B11458  20.530   8.900   9.640
  478BOLB   C3B11459  20.640   8.450   9.790
  478BOLB   C4B11460  20.660   8.080   9.730
  478BOLB   NC211461  21.220   5.850   8.920
  478BOLB   PO211462  21.010   6.100   8.690
  478BOLB   GL311463  21.190   6.580   8.800
  478BOLB   GL411464  21.340   6.840   8.530
  478BOLB   C1C11465  21.140   6.810   9.110
  478BOLB   C2C11466  20.970   7.210   9.270
  478BOLB   C3C11467  21.270   7.550   9.370
  478BOLB   C4C11468  21.180   8.050   9.490
  478BOLB   C1D11469  20.980   7.090   8.700
  478BOLB   C2D11470  20.550   7.250   8.670
  478BOLB   C3D11471  20.250   7.410   8.640
  478BOLB   C4D11472  20.080   7.880   8.580
  479BOLB   NC111473  23.190  16.860  15.350
  479BOLB   PO111474  23.090  16.780  15.800
  479BOLB   GL111475  23.300  16.780  16.110
  479BOLB   GL211476  23.560  16.740  16.020
  479BOLB   C1A11477  23.390  16.490  16.370
  479BOLB   C2A11478  23.770  16.310  16.710
  479BOLB   C3A11479  24.130  16.000  16.780
  479BOLB   C4A11480  24.340  15.710  16.520
  479BOLB   C1B11481  24.010  16.730  16.200
  479BOLB   C2B11482  24.400  16.630  16.170
  479BOLB   C3B11483  24.680  16.310  16.080
  479BOLB   C4B11484  25.080  16.390  15.950
  479BOLB   NC211485  26.560  14.630  17.210
  479BOLB   PO211486  26.710  15.080  17.070
  479BOLB   GL311487  26.390  14.980  16.730
  479BOLB   GL411488  26.330  14.780  16.380
  479BOLB   C1C11489  26.040  15.200  16.620
  479BOLB   C2C11490  25.640  15.200  16.510
  479BOLB   C3C11491  25.270  15.420  16.400
  479BOLB   C4C11492  24.890  15.660  16.340
  479BOLB   C1D11493  25.910  14.830  16.330
  479BOLB   C2D11494  25.720  15.070  16.050
  479BOLB   C3D11495  25.540  15.190  15.630
  479BOLB   C4D11496  25.100  15.280  15.480
  480BOLB   NC111497  19.840  10.420   9.200
  480BOLB   PO111498  20.150  10.800   8.900
  480BOLB   GL111499  20.250  10.360   8.890
  480BOLB   GL211500  20.280  10.180   9.180
  480BOLB   C1A11501  20.540  10.030   8.690
  480BOLB   C2A11502  20.560   9.640   8.370
  480BOLB   C3A11503  20.920   9.240   8.280
  480BOLB   C4A11504  21.190   8.840   8.410
  480BOLB   C1B11505  20.500   9.840   9.170
  480BOLB   C2B11506  20.930   9.600   9.230
  480BOLB   C3B11507  21.260   9.270   9.200
  480BOLB   C4B11508  21.280   8.930   9.350
  480BOLB   NC211509  23.140   7.660   7.800
  480BOLB   PO211510  23.280   7.930   7.870
  480BOLB   GL311511  23.110   8.240   8.160
  480BOLB   GL411512  23.260   8.440   8.090
  480BOLB   C1C11513  22.760   8.430   8.190
  480BOLB   C2C11514  22.460   8.830   8.240
  480BOLB   C3C11515  21.980   8.870   8.260
  480BOLB   C4C11516  21.570   8.900   8.220
  480BOLB   C1D11517  23.350   8.220   8.570
  480BOLB   C2D11518  23.430   8.340   8.930
  480BOLB   C3D11519  23.640   8.720   9.300
  480BOLB   C4D11520  23.480   9.070   9.350
  481BOLB   NC111521  19.280   9.250  11.600
  481BOLB   PO111522  19.380   9.260  11.150
  481BOLB   GL111523  19.700   8.970  11.290
  481BOLB   GL211524  19.640   8.900  11.530
  481BOLB   C1A11525  19.950   8.740  11.190
  481BOLB   C2A11526  20.180   8.330  11.160
  481BOLB   C3A11527  20.290   8.040  10.860
  481BOLB   C4A11528  20.460   7.710  10.830
  481BOLB   C1B11529  19.660   8.470  11.460
  481BOLB   C2B11530  19.920   8.110  11.580
  481BOLB   C3B11531  20.250   7.850  11.410
  481BOLB   C4B11532  20.280   7.410  11.670
  481BOLB   NC211533  21.020   5.810  11.900
  481BOLB   PO211534  21.360   6.170  11.920
  481BOLB   GL311535  21.160   6.370  11.710
  481BOLB   GL411536  20.890   6.410  11.870
  481BOLB   C1C11537  21.230   6.850  11.630
  481BOLB   C2C11538  21.090   7.270  11.570
  481BOLB   C3C11539  20.730   7.360  11.460
  481BOLB   C4C11540  20.720   7.380  11.080
  481BOLB   C1D11541  21.060   6.630  12.280
  481BOLB   C2D11542  21.240   7.060  12.420
  481BOLB   C3D11543  21.110   7.420  12.430
  481BOLB   C4D11544  21.020   7.890  12.370
  482BOLB   NC111545  19.930  11.070  14.970
  482BOLB   PO111546  20.360  11.020  14.980
  482BOLB   GL111547  20.650  10.860  15.230
  482BOLB   GL211548  20.780  10.660  14.990
  482BOLB   C1A11549  20.980  10.600  15.450
  482BOLB   C2A11550  21.270  10.350  15.610
  482BOLB   C3A11551  21.430  10.080  15.970
  482BOLB   C4A11552  21.400   9.660  16.050
  482BOLB   C1B11553  20.960  10.250  15.000
  482BOLB   C2B11554  21.310  10.140  15.200
  482BOLB   C3B11555  21.650  10.020  15.020
  482BOLB   C4B11556  22.050   9.790  15.190
  482BOLB   NC211557  20.780   7.710  17.860
  482BOLB   PO211558  20.910   7.630  17.430
  482BOLB   GL311559  20.860   8.040  17.360
  482BOLB   GL411560  20.630   8.080  17.510
  482BOLB   C1C11561  21.040   8.240  17.010
  482BOLB   C2C11562  21.320   8.670  16.880
  482BOLB   C3C11563  21.300   9.050  16.750
  482BOLB   C4C11564  21.170   9.390  16.440
  482BOLB   C1D11565  20.610   8.510  17.470
  482BOLB   C2D11566  20.510   8.900  17.360
  482BOLB   C3D11567  20.650   9.310  17.390
  482BOLB   C4D11568  20.300   9.650  17.210
  483BOLB   NC111569  21.730  21.590  15.200
  483BOLB   PO111570  21.940  21.740  15.620
  483BOLB   GL111571  22.240  21.900  15.760
  483BOLB   GL211572  22.110  21.890  16.150
  483BOLB   C1A11573  22.550  22.210  15.980
  483BOLB   C2A11574  22.910  22.250  15.990
  483BOLB   C3A11575  23.270  22.590  16.040
  483BOLB   C4A11576  23.520  23.040  15.950
  483BOLB   C1B11577  22.510  21.790  16.330
  483BOLB   C2B11578  22.950  21.860  16.400
  483BOLB   C3B11579  23.240  21.980  16.750
  483BOLB   C4B11580  23.330  22.430  16.940
  483BOLB   NC211581  25.280  23.090  17.000
  483BOLB   PO211582  25.070  23.530  16.830
  483BOLB   GL311583  24.710  23.450  16.840
  483BOLB   GL411584  24.660  23.560  16.460
  483BOLB   C1C11585  24.240  23.540  16.810
  483BOLB   C2C11586  23.830  23.560  16.520
  483BOLB   C3C11587  23.940  23.570  16.080
  483BOLB   C4C11588  23.870  23.280  15.840
  483BOLB   C1D11589  24.530  23.650  16.050
  483BOLB   C2D11590  24.520  23.350  15.670
  483BOLB   C3D11591  24.180  23.070  15.520
  483BOLB   C4D11592  23.790  22.950  15.430
  484BOLB   NC111593  14.960  19.300   4.920
  484BOLB   PO111594  15.420  19.500   5.030
  484BOLB   GL111595  15.050  19.760   4.740
  484BOLB   GL211596  14.840  19.940   5.020
  484BOLB   C1A11597  14.980  20.070   4.390
  484BOLB   C2A11598  14.900  20.510   4.240
  484BOLB   C3A11599  14.820  20.650   3.870
  484BOLB   C4A11600  14.530  20.850   3.570
  484BOLB   C1B11601  14.560  19.930   4.620
  484BOLB   C2B11602  14.400  20.230   4.270
  484BOLB   C3B11603  14.020  20.280   4.180
  484BOLB   C4B11604  13.660  20.560   4.050
  484BOLB   NC211605  14.400  22.790   2.130
  484BOLB   PO211606  14.070  22.450   2.260
  484BOLB   GL311607  14.070  22.010   2.340
  484BOLB   GL411608  13.740  21.980   2.480
  484BOLB   C1C11609  13.910  21.510   2.450
  484BOLB   C2C11610  14.020  21.130   2.560
  484BOLB   C3C11611  14.280  20.860   2.690
  484BOLB   C4C11612  14.570  20.910   3.120
  484BOLB   C1D11613  13.850  22.100   2.940
  484BOLB   C2D11614  14.220  22.160   3.110
  484BOLB   C3D11615  14.540  21.860   3.180
  484BOLB   C4D11616  14.900  21.730   3.440
  485BOLB   NC111617  21.110  12.070   7.290
  485BOLB   PO111618  20.920  12.170   6.850
  485BOLB   GL111619  21.260  11.900   6.620
  485BOLB   GL211620  21.060  11.620   6.610
  485BOLB   C1A11621  21.570  11.500   6.590
  485BOLB   C2A11622  21.500  11.000   6.660
  485BOLB   C3A11623  21.770  10.770   6.920
  485BOLB   C4A11624  22.160  10.550   6.830
  485BOLB   C1B11625  21.150  11.720   6.180
  485BOLB   C2B11626  21.080  11.500   5.780
  485BOLB   C3B11627  21.030  11.510   5.300
  485BOLB   C4B11628  21.100  11.780   4.970
  485BOLB   NC211629  21.890   8.440   4.980
  485BOLB   PO211630  22.110   8.810   5.010
  485BOLB   GL311631  22.160   9.040   5.470
  485BOLB   GL411632  21.960   9.260   5.320
  485BOLB   C1C11633  22.460   9.280   5.700
  485BOLB   C2C11634  22.420   9.620   5.980
  485BOLB   C3C11635  22.300  10.010   6.170
  485BOLB   C4C11636  22.220  10.280   6.500
  485BOLB   C1D11637  22.020   9.560   5.700
  485BOLB   C2D11638  21.900   9.980   5.790
  485BOLB   C3D11639  21.970  10.360   5.890
  485BOLB   C4D11640  21.810  10.710   5.830
  486BOLB   NC111641  19.250  19.330   5.630
  486BOLB   PO111642  19.090  19.110   5.270
  486BOLB   GL111643  19.270  19.100   4.830
  486BOLB   GL211644  19.450  19.470   4.740
  486BOLB   C1A11645  19.070  19.240   4.540
  486BOLB   C2A11646  19.030  19.590   4.340
  486BOLB   C3A11647  19.100  19.960   4.020
  486BOLB   C4A11648  19.220  20.340   3.810
  486BOLB   C1B11649  19.400  19.880   4.500
  486BOLB   C2B11650  19.560  20.070   4.150
  486BOLB   C3B11651  19.640  20.140   3.650
  486BOLB   C4B11652  19.660  20.490   3.260
  486BOLB   NC211653  19.720  22.140   2.180
  486BOLB   PO211654  20.060  22.330   2.440
  486BOLB   GL311655  20.150  21.940   2.600
  486BOLB   GL411656  20.530  21.830   2.690
  486BOLB   C1C11657  19.930  21.600   2.960
  486BOLB   C2C11658  19.720  21.440   3.360
  486BOLB   C3C11659  19.610  21.120   3.670
  486BOLB   C4C11660  19.310  20.730   3.570
  486BOLB   C1D11661  20.780  21.490   2.900
  486BOLB   C2D11662  20.760  21.220   3.220
  486BOLB   C3D11663  20.560  21.220   3.660
  486BOLB   C4D11664  20.500  21.010   4.000
  487BOLB   NC111665  10.100  11.310   2.910
  487BOLB   PO111666  10.210  10.930   3.200
  487BOLB   GL111667  10.430  11.270   3.440
  487BOLB   GL211668  10.080  11.510   3.410
  487BOLB   C1A11669  10.810  11.300   3.800
  487BOLB   C2A11670  11.010  11.650   4.140
  487BOLB   C3A11671  10.980  11.780   4.590
  487BOLB   C4A11672  10.810  12.000   4.990
  487BOLB   C1B11673  10.300  11.520   3.820
  487BOLB   C2B11674  10.430  11.060   4.000
  487BOLB   C3B11675  10.590  10.680   4.200
  487BOLB   C4B11676  10.710  10.290   4.420
  487BOLB   NC211677   8.180  11.960   4.740
  487BOLB   PO211678   8.560  11.920   4.460
  487BOLB   GL311679   8.720  12.080   4.850
  487BOLB   GL411680   8.440  12.110   5.140
  487BOLB   C1C11681   9.050  12.140   5.020
  487BOLB   C2C11682   9.540  11.960   4.930
  487BOLB   C3C11683   9.950  11.780   4.880
  487BOLB   C4C11684  10.410  11.930   5.020
  487BOLB   C1D11685   8.700  12.340   5.480
  487BOLB   C2D11686   8.830  12.640   5.660
  487BOLB   C3D11687   9.190  12.680   5.930
  487BOLB   C4D11688   9.440  12.770   6.260
  488BOLB   NC111689   6.240  24.800  15.950
  488BOLB   PO111690   6.330  25.140  16.340
  488BOLB   GL111691   6.390  24.620  16.390
  488BOLB   GL211692   6.660  24.650  16.160
  488BOLB   C1A11693   6.550  24.370  16.750
  488BOLB   C2A11694   6.770  24.100  17.100
  488BOLB   C3A11695   7.180  23.890  17.010
  488BOLB   C4A11696   7.480  23.680  16.770
  488BOLB   C1B11697   7.060  24.500  16.300
  488BOLB   C2B11698   7.400  24.530  16.570
  488BOLB   C3B11699   7.610  24.470  16.990
  488BOLB   C4B11700   7.820  24.570  17.380
  488BOLB   NC211701   7.390  25.270  15.160
  488BOLB   PO211702   6.950  25.280  15.340
  488BOLB   GL311703   7.260  24.920  15.580
  488BOLB   GL411704   7.110  24.780  15.790
  488BOLB   C1C11705   7.390  24.420  15.620
  488BOLB   C2C11706   7.630  24.110  15.790
  488BOLB   C3C11707   7.910  23.990  16.110
  488BOLB   C4C11708   7.810  23.700  16.520
  488BOLB   C1D11709   6.810  24.470  15.720
  488BOLB   C2D11710   6.710  23.990  15.770
  488BOLB   C3D11711   6.790  23.690  15.410
  488BOLB   C4D11712   7.140  23.410  15.270
  489BOLB   NC111713  19.850  23.650   8.640
  489BOLB   PO111714  19.950  23.420   8.200
  489BOLB   GL111715  20.240  23.420   7.890
  489BOLB   GL211716  20.190  23.330   7.580
  489BOLB   C1A11717  20.710  23.610   7.780
  489BOLB   C2A11718  21.120  23.560   7.900
  489BOLB   C3A11719  21.530  23.720   7.870
  489BOLB   C4A11720  21.710  23.860   7.470
  489BOLB   C1B11721  20.500  23.710   7.340
  489BOLB   C2B11722  20.890  23.760   7.010
  489BOLB   C3B11723  21.250  23.750   6.600
  489BOLB   C4B11724  21.150  23.700   6.150
  489BOLB   NC211725  20.850  26.240   6.480
  489BOLB   PO211726  21.200  26.200   6.720
  489BOLB   GL311727  21.300  25.820   6.890
  489BOLB   GL411728  21.290  25.950   7.210
  489BOLB   C1C11729  21.420  25.420   6.900
  489BOLB   C2C11730  21.450  24.900   7.050
  489BOLB   C3C11731  21.660  24.590   7.280
  489BOLB   C4C11732  21.730  24.120   7.210
  489BOLB   C1D11733  21.120  26.090   7.610
  489BOLB   C2D11734  21.040  26.200   8.000
  489BOLB   C3D11735  20.870  26.030   8.440
  489BOLB   C4D11736  20.710  25.870   8.820
  490BOLB   NC111737  13.930  24.720  14.640
  490BOLB   PO111738  13.780  24.920  14.400
  490BOLB   GL111739  13.590  25.280  14.270
  490BOLB   GL211740  13.680  25.580  14.370
  490BOLB   C1A11741  13.290  25.690  14.040
  490BOLB   C2A11742  13.120  26.050  14.190
  490BOLB   C3A11743  13.170  26.440  14.320
  490BOLB   C4A11744  13.140  26.820  14.160
  490BOLB   C1B11745  13.570  25.990  14.370
  490BOLB   C2B11746  13.550  26.380  14.660
  490BOLB   C3B11747  13.460  26.770  14.650
  490BOLB   C4B11748  13.250  27.090  14.980
  490BOLB   NC211749  11.580  28.760  13.340
  490BOLB   PO211750  11.370  28.440  13.230
  490BOLB   GL311751  11.590  28.070  13.390
  490BOLB   GL411752  11.880  28.300  13.310
  490BOLB   C1C11753  11.930  27.820  13.570
  490BOLB   C2C11754  12.340  27.540  13.770
  490BOLB   C3C11755  12.620  27.230  13.910
  490BOLB   C4C11756  13.010  27.030  13.910
  490BOLB   C1D11757  12.130  28.040  13.020
  490BOLB   C2D11758  12.250  27.660  12.780
  490BOLB   C3D11759  12.380  27.260  12.880
  490BOLB   C4D11760  12.600  26.810  13.050
  491BOLB   NC111761  21.350  28.590  14.610
  491BOLB   PO111762  21.610  28.570  14.180
  491BOLB   GL111763  21.360  28.150  14.230
  491BOLB   GL211764  21.520  28.120  13.990
  491BOLB   C1A11765  20.960  27.900  14.390
  491BOLB   C2A11766  20.670  27.640  14.460
  491BOLB   C3A11767  20.720  27.260  14.660
  491BOLB   C4A11768  20.830  26.990  14.900
  491BOLB   C1B11769  21.160  27.910  13.800
  491BOLB   C2B11770  20.800  27.670  13.910
  491BOLB   C3B11771  20.300  27.550  14.100
  491BOLB   C4B11772  20.220  27.370  14.470
  491BOLB   NC211773  21.920  28.120  15.820
  491BOLB   PO211774  21.750  28.210  15.490
  491BOLB   GL311775  21.700  27.750  15.520
  491BOLB   GL411776  21.800  27.410  15.370
  491BOLB   C1C11777  21.470  27.390  15.790
  491BOLB   C2C11778  21.180  27.140  15.740
  491BOLB   C3C11779  20.830  26.870  15.580
  491BOLB   C4C11780  20.830  26.760  15.280
  491BOLB   C1D11781  21.470  27.120  15.350
  491BOLB   C2D11782  21.290  26.910  15.140
  491BOLB   C3D11783  21.440  26.590  15.130
  491BOLB   C4D11784  21.840  26.680  15.270
  492BOLB   NC111785  22.760  12.750  10.690
  492BOLB   PO111786  22.860  12.390  10.840
  492BOLB   GL111787  23.150  12.190  11.020
  492BOLB   GL211788  23.410  12.300  10.860
  492BOLB   C1A11789  23.470  11.800  11.090
  492BOLB   C2A11790  23.800  11.610  11.000
  492BOLB   C3A11791  24.120  11.330  10.970
  492BOLB   C4A11792  24.310  11.020  11.020
  492BOLB   C1B11793  23.550  12.070  10.640
  492BOLB   C2B11794  23.580  11.620  10.510
  492BOLB   C3B11795  23.870  11.290  10.330
  492BOLB   C4B11796  24.160  11.060  10.450
  492BOLB   NC211797  25.720   9.400  10.390
  492BOLB   PO211798  25.320   9.270  10.220
  492BOLB   GL311799  25.080   9.450  10.450
  492BOLB   GL411800  24.820   9.410  10.170
  492BOLB   C1C11801  24.900   9.730  10.720
  492BOLB   C2C11802  24.750  10.080  10.680
  492BOLB   C3C11803  24.610  10.480  10.750
  492BOLB   C4C11804  24.440  10.780  10.780
  492BOLB   C1D11805  24.510   9.650  10.340
  492BOLB   C2D11806  24.310  10.090  10.470
  492BOLB   C3D11807  24.120  10.490  10.550
  492BOLB   C4D11808  23.800  10.850  10.840
  493BOLB   NC111809  16.030  10.900  27.180
  493BOLB   PO111810  16.020  10.520  27.010
  493BOLB   GL111811  15.940  10.830  26.700
  493BOLB   GL211812  16.230  11.020  26.600
  493BOLB   C1A11813  15.830  10.850  26.270
  493BOLB   C2A11814  15.940  11.130  25.910
  493BOLB   C3A11815  16.040  11.170  25.490
  493BOLB   C4A11816  16.200  10.880  25.110
  493BOLB   C1B11817  15.990  11.280  26.390
  493BOLB   C2B11818  15.650  11.430  26.120
  493BOLB   C3B11819  15.240  11.580  26.010
  493BOLB   C4B11820  15.160  11.660  25.580
  493BOLB   NC211821  16.830   8.790  25.550
  493BOLB   PO211822  17.140   9.150  25.530
  493BOLB   GL311823  16.820   9.210  25.160
  493BOLB   GL411824  17.020   9.380  24.990
  493BOLB   C1C11825  16.400   9.360  25.100
  493BOLB   C2C11826  16.280   9.690  24.850
  493BOLB   C3C11827  16.300  10.080  25.020
  493BOLB   C4C11828  16.310  10.520  24.980
  493BOLB   C1D11829  16.740   9.800  24.880
  493BOLB   C2D11830  16.600  10.120  24.570
  493BOLB   C3D11831  16.520  10.230  24.180
  493BOLB   C4D11832  16.010  10.270  24.100
  494BOLB   NC111833  20.410  15.910   5.690
  494BOLB   PO111834  20.860  15.960   5.520
  494BOLB   GL111835  21.120  16.030   5.170
  494BOLB   GL211836  21.000  16.180   4.920
  494BOLB   C1A11837  21.510  16.080   4.850
  494BOLB   C2A11838  21.570  16.170   4.430
  494BOLB   C3A11839  21.370  16.250   4.040
  494BOLB   C4A11840  21.370  16.450   3.620
  494BOLB   C1B11841  20.970  16.300   4.430
  494BOLB   C2B11842  20.890  16.170   3.900
  494BOLB   C3B11843  20.990  15.690   3.760
  494BOLB   C4B11844  21.250  15.350   3.860
  494BOLB   NC211845  23.460  16.260   1.730
  494BOLB   PO211846  23.320  16.510   2.100
  494BOLB   GL311847  22.930  16.360   2.190
  494BOLB   GL411848  22.910  16.630   2.260
  494BOLB   C1C11849  22.600  16.350   2.570
  494BOLB   C2C11850  22.360  16.360   2.970
  494BOLB   C3C11851  22.050  16.350   3.270
  494BOLB   C4C11852  21.650  16.440   3.320
  494BOLB   C1D11853  22.850  16.760   2.650
  494BOLB   C2D11854  22.370  16.830   2.730
  494BOLB   C3D11855  21.890  16.810   2.820
  494BOLB   C4D11856  21.590  16.840   3.070
  495BOLB   NC111857  21.190  23.400  15.100
  495BOLB   PO111858  21.540  23.220  14.940
  495BOLB   GL111859  21.860  23.610  14.990
  495BOLB   GL211860  22.210  23.410  14.960
  495BOLB   C1A11861  22.020  23.990  14.800
  495BOLB   C2A11862  22.300  24.290  14.880
  495BOLB   C3A11863  22.260  24.750  14.730
  495BOLB   C4A11864  22.560  25.130  14.660
  495BOLB   C1B11865  22.580  23.550  14.860
  495BOLB   C2B11866  22.940  23.810  14.940
  495BOLB   C3B11867  23.170  23.960  15.260
  495BOLB   C4B11868  23.290  23.960  15.660
  495BOLB   NC211869  23.750  27.160  15.460
  495BOLB   PO211870  23.760  26.960  15.900
  495BOLB   GL311871  23.770  26.500  15.710
  495BOLB   GL411872  23.430  26.360  15.850
  495BOLB   C1C11873  23.560  26.200  15.410
  495BOLB   C2C11874  23.320  26.010  15.130
  495BOLB   C3C11875  22.990  25.810  14.920
  495BOLB   C4C11876  22.790  25.410  14.950
  495BOLB   C1D11877  23.110  25.980  15.850
  495BOLB   C2D11878  23.100  25.490  15.820
  495BOLB   C3D11879  23.410  25.420  16.120
  495BOLB   C4D11880  23.240  25.250  16.530
  496BOLB   NC111881  16.160  11.490   5.600
  496BOLB   PO111882  15.850  11.140   5.630
  496BOLB   GL111883  15.570  11.080   5.310
  496BOLB   GL211884  15.280  11.350   5.230
  496BOLB   C1A11885  15.520  10.770   4.920
  496BOLB   C2A11886  15.340  10.550   4.660
  496BOLB   C3A11887  15.040  10.430   4.290
  496BOLB   C4A11888  14.900  10.630   3.900
  496BOLB   C1B11889  15.030  11.170   4.960
  496BOLB   C2B11890  14.980  10.910   4.710
  496BOLB   C3B11891  14.620  10.780   4.410
  496BOLB   C4B11892  14.240  10.620   4.120
  496BOLB   NC211893  13.840   9.720   1.810
  496BOLB   PO211894  14.300   9.750   1.890
  496BOLB   GL311895  14.120  10.030   2.250
  496BOLB   GL411896  13.980  10.320   2.200
  496BOLB   C1C11897  14.190  10.180   2.760
  496BOLB   C2C11898  14.410  10.330   3.050
  496BOLB   C3C11899  14.720  10.600   3.110
  496BOLB   C4C11900  14.950  10.840   3.470
  496BOLB   C1D11901  14.410  10.580   2.390
  496BOLB   C2D11902  14.680  10.800   2.600
  496BOLB   C3D11903  14.590  11.250   2.780
  496BOLB   C4D11904  14.660  11.570   3.030
  497BOLB   NC111905  19.810  14.330  18.730
  497BOLB   PO111906  19.810  13.890  18.640
  497BOLB   GL111907  20.230  13.920  18.600
  497BOLB   GL211908  20.320  14.170  18.770
  497BOLB   C1A11909  20.450  13.600  18.780
  497BOLB   C2A11910  20.940  13.380  18.800
  497BOLB   C3A11911  21.250  13.200  18.920
  497BOLB   C4A11912  21.470  12.880  18.870
  497BOLB   C1B11913  20.710  14.390  18.710
  497BOLB   C2B11914  21.130  14.500  18.720
  497BOLB   C3B11915  21.520  14.530  18.980
  497BOLB   C4B11916  21.840  14.490  19.230
  497BOLB   NC211917  22.690  12.320  20.810
  497BOLB   PO211918  22.800  12.020  20.460
  497BOLB   GL311919  22.840  12.060  20.030
  497BOLB   GL411920  22.940  12.300  19.970
  497BOLB   C1C11921  22.600  12.100  19.670
  497BOLB   C2C11922  22.440  12.340  19.330
  497BOLB   C3C11923  22.100  12.620  19.150
  497BOLB   C4C11924  21.730  12.570  19.130
  497BOLB   C1D11925  22.950  12.440  19.480
  497BOLB   C2D11926  22.900  12.520  19.070
  497BOLB   C3D11927  22.500  12.590  18.890
  497BOLB   C4D11928  22.470  12.760  18.490
  498BOLB   NC111929  12.290  24.580  15.160
  498BOLB   PO111930  12.260  24.360  15.490
  498BOLB   GL111931  12.040  24.660  15.710
  498BOLB   GL211932  12.070  24.840  15.940
  498BOLB   C1A11933  11.550  24.700  15.820
  498BOLB   C2A11934  11.280  24.840  16.130
  498BOLB   C3A11935  10.990  25.120  16.170
  498BOLB   C4A11936  10.760  25.480  16.410
  498BOLB   C1B11937  12.170  25.230  15.790
  498BOLB   C2B11938  12.130  25.620  15.430
  498BOLB   C3B11939  11.830  25.750  15.270
  498BOLB   C4B11940  11.520  26.050  15.320
  498BOLB   NC211941   9.830  27.600  16.430
  498BOLB   PO211942   9.690  27.540  15.940
  498BOLB   GL311943   9.990  27.170  15.800
  498BOLB   GL411944  10.080  27.060  15.490
  498BOLB   C1C11945  10.460  27.070  15.970
  498BOLB   C2C11946  10.600  26.730  16.250
  498BOLB   C3C11947  10.710  26.340  16.210
  498BOLB   C4C11948  10.600  25.920  16.420
  498BOLB   C1D11949  10.440  26.850  15.520
  498BOLB   C2D11950  10.480  26.350  15.540
  498BOLB   C3D11951  10.670  26.090  15.200
  498BOLB   C4D11952  10.530  25.950  14.790
  499BOLB   NC111953  20.040  15.330  18.490
  499BOLB   PO111954  20.300  15.660  18.510
  499BOLB   GL111955  20.620  15.480  18.750
  499BOLB   GL211956  20.880  15.330  18.520
  499BOLB   C1A11957  20.930  15.240  19.020
  499BOLB   C2A11958  21.340  14.950  19.130
  499BOLB   C3A11959  21.640  14.940  19.430
  499BOLB   C4A11960  21.730  14.850  19.830
  499BOLB   C1B11961  21.150  15.020  18.520
  499BOLB   C2B11962  21.550  14.880  18.680
  499BOLB   C3B11963  21.940  14.830  18.620
  499BOLB   C4B11964  22.300  14.830  18.500
  499BOLB   NC211965  23.090  13.880  21.780
  499BOLB   PO211966  23.220  14.240  21.540
  499BOLB   GL311967  23.110  14.390  21.170
  499BOLB   GL411968  22.930  14.690  21.290
  499BOLB   C1C11969  22.860  14.480  20.820
  499BOLB   C2C11970  22.330  14.570  20.580
  499BOLB   C3C11971  21.890  14.500  20.470
  499BOLB   C4C11972  21.750  14.680  20.250
  499BOLB   C1D11973  22.640  14.860  21.050
  499BOLB   C2D11974  22.560  14.980  20.580
  499BOLB   C3D11975  22.840  15.040  20.370
  499BOLB   C4D11976  23.100  15.080  19.880
  500BOLB   NC111977  14.880  16.470   4.040
  500BOLB   PO111978  15.020  16.820   3.840
  500BOLB   GL111979  15.030  16.850   3.450
  500BOLB   GL211980  15.280  16.660   3.380
  500BOLB   C1A11981  14.840  16.940   3.050
  500BOLB   C2A11982  14.760  17.130   2.670
  500BOLB   C3A11983  14.420  17.300   2.390
  500BOLB   C4A11984  14.300  17.240   1.980
  500BOLB   C1B11985  15.090  16.530   3.010
  500BOLB   C2B11986  15.330  16.150   2.790
  500BOLB   C3B11987  15.710  16.110   2.510
  500BOLB   C4B11988  15.940  15.660   2.400
  500BOLB   NC211989  15.110  17.310   0.230
  500BOLB   PO211990  14.900  17.660   0.510
  500BOLB   GL311991  14.690  17.430   0.810
  500BOLB   GL411992  14.410  17.620   1.040
  500BOLB   C1C11993  14.720  17.100   1.000
  500BOLB   C2C11994  14.770  16.830   1.290
  500BOLB   C3C11995  14.730  16.600   1.570
  500BOLB   C4C11996  14.520  16.790   1.840
  500BOLB   C1D11997  14.400  17.620   1.550
  500BOLB   C2D11998  14.570  17.680   1.900
  500BOLB   C3D11999  14.850  17.490   2.090
  500BOLB   C4D12000  15.290  17.280   2.290
  501BOLB   NC112001  18.000  18.840   4.790
  501BOLB   PO112002  17.790  18.600   4.550
  501BOLB   GL112003  17.980  18.530   4.080
  501BOLB   GL212004  17.970  18.270   3.780
  501BOLB   C1A12005  18.170  18.750   3.780
  501BOLB   C2A12006  18.230  18.890   3.420
  501BOLB   C3A12007  18.490  18.970   3.140
  501BOLB   C4A12008  18.760  19.230   2.830
  501BOLB   C1B12009  17.890  18.440   3.390
  501BOLB   C2B12010  17.760  18.820   3.330
  501BOLB   C3B12011  17.920  19.310   3.380
  501BOLB   C4B12012  17.850  19.620   3.270
  501BOLB   NC212013  20.100  20.040   1.140
  501BOLB   PO212014  20.060  19.690   0.900
  501BOLB   GL312015  19.960  19.460   1.220
  501BOLB   GL412016  20.060  19.250   1.460
  501BOLB   C1C12017  19.510  19.450   1.460
  501BOLB   C2C12018  19.410  19.220   1.740
  501BOLB   C3C12019  19.340  19.060   2.180
  501BOLB   C4C12020  19.150  19.130   2.620
  501BOLB   C1D12021  19.900  19.020   1.790
  501BOLB   C2D12022  19.810  18.790   2.170
  501BOLB   C3D12023  19.760  18.380   2.520
  501BOLB   C4D12024  20.110  18.270   2.550
  502BOLB   NC112025  12.040  14.390   5.390
  502BOLB   PO112026  12.360  14.430   5.050
  502BOLB   GL112027  12.400  14.150   4.770
  502BOLB   GL212028  12.130  14.320   4.490
  502BOLB   C1A12029  12.370  13.760   4.500
  502BOLB   C2A12030  12.320  13.680   4.130
  502BOLB   C3A12031  12.060  13.520   3.750
  502BOLB   C4A12032  11.920  13.190   3.500
  502BOLB   C1B12033  12.020  14.090   4.300
  502BOLB   C2B12034  11.810  13.840   4.120
  502BOLB   C3B12035  11.660  13.750   3.730
  502BOLB   C4B12036  11.680  13.680   3.310
  502BOLB   NC212037  11.630  11.620   1.050
  502BOLB   PO212038  11.740  11.990   1.320
  502BOLB   GL312039  11.900  12.340   1.540
  502BOLB   GL412040  11.730  12.510   1.560
  502BOLB   C1C12041  11.980  12.560   1.950
  502BOLB   C2C12042  12.090  12.890   2.300
  502BOLB   C3C12043  12.130  13.110   2.620
  502BOLB   C4C12044  12.180  13.110   3.110
  502BOLB   C1D12045  11.550  12.760   1.870
  502BOLB   C2D12046  11.520  12.850   2.330
  502BOLB   C3D12047  11.750  12.760   2.720
  502BOLB   C4D12048  11.720  12.940   3.130
  503BOLB   NC112049  13.660  19.040   5.270
  503BOLB   PO112050  13.240  19.260   5.470
  503BOLB   GL112051  13.110  19.270   5.060
  503BOLB   GL212052  13.080  19.580   5.070
  503BOLB   C1A12053  12.850  19.270   4.690
  503BOLB   C2A12054  12.560  19.060   4.490
  503BOLB   C3A12055  12.560  18.990   4.110
  503BOLB   C4A12056  12.720  19.200   3.690
  503BOLB   C1B12057  13.090  19.770   4.770
  503BOLB   C2B12058  12.910  20.030   4.410
  503BOLB   C3B12059  12.710  20.090   4.020
  503BOLB   C4B12060  13.120  20.050   3.620
  503BOLB   NC212061  10.930  19.920   1.660
  503BOLB   PO212062  11.020  19.970   2.110
  503BOLB   GL312063  11.200  19.810   2.460
  503BOLB   GL412064  11.470  20.010   2.420
  503BOLB   C1C12065  11.450  19.580   2.750
  503BOLB   C2C12066  11.690  19.300   3.020
  503BOLB   C3C12067  12.120  19.260   3.110
  503BOLB   C4C12068  12.420  19.400   3.410
  503BOLB   C1D12069  11.440  20.100   2.800
  503BOLB   C2D12070  11.330  20.560   2.950
  503BOLB   C3D12071  11.480  20.980   3.070
  503BOLB   C4D12072  11.870  21.170   3.120
  504BOLB   NC112073  17.320  12.280  17.890
  504BOLB   PO112074  17.480  12.030  18.240
  504BOLB   GL112075  17.600  11.830  18.660
  504BOLB   GL212076  17.810  11.490  18.670
  504BOLB   C1A12077  17.490  11.700  19.090
  504BOLB   C2A12078  17.460  11.290  19.410
  504BOLB   C3A12079  17.430  11.150  19.780
  504BOLB   C4A12080  17.500  10.700  19.970
  504BOLB   C1B12081  17.710  11.080  18.920
  504BOLB   C2B12082  17.560  10.810  19.320
  504BOLB   C3B12083  17.320  10.580  19.530
  504BOLB   C4B12084  17.060  10.240  19.700
  504BOLB   NC212085  19.970   9.700  20.750
  504BOLB   PO212086  19.740   9.440  20.780
  504BOLB   GL312087  19.310   9.510  20.580
  504BOLB   GL412088  19.430   9.410  20.330
  504BOLB   C1C12089  19.030   9.860  20.390
  504BOLB   C2C12090  18.580  10.030  20.300
  504BOLB   C3C12091  18.180  10.210  20.130
  504BOLB   C4C12092  17.820  10.430  20.180
  504BOLB   C1D12093  19.490   9.560  19.980
  504BOLB   C2D12094  19.350   9.780  19.660
  504BOLB   C3D12095  19.030  10.040  19.420
  504BOLB   C4D12096  19.130  10.180  18.990
  505BOLB   NC112097  20.230  10.100  13.050
  505BOLB   PO112098  20.150   9.870  12.810
  505BOLB   GL112099  20.600   9.760  12.990
  505BOLB   GL212100  20.560   9.740  13.390
  505BOLB   C1A12101  20.990   9.710  12.770
  505BOLB   C2A12102  21.510   9.620  12.580
  505BOLB   C3A12103  21.700   9.400  12.940
  505BOLB   C4A12104  21.850   9.280  13.400
  505BOLB   C1B12105  20.580   9.340  13.130
  505BOLB   C2B12106  20.370   8.850  12.850
  505BOLB   C3B12107  20.690   8.550  12.540
  505BOLB   C4B12108  20.850   8.270  12.670
  505BOLB   NC212109  22.130   6.790  14.010
  505BOLB   PO212110  22.160   7.130  14.280
  505BOLB   GL312111  21.890   7.530  14.340
  505BOLB   GL412112  21.700   7.590  14.620
  505BOLB   C1C12113  21.760   7.990  14.260
  505BOLB   C2C12114  21.900   8.400  14.080
  505BOLB   C3C12115  22.120   8.700  13.920
  505BOLB   C4C12116  22.090   9.060  13.690
  505BOLB   C1D12117  22.020   7.820  14.790
  505BOLB   C2D12118  22.230   8.040  14.410
  505BOLB   C3D12119  22.260   8.560  14.440
  505BOLB   C4D12120  21.900   8.900  14.440
  506BOLB   NC112121  19.120  18.380  18.940
  506BOLB   PO112122  19.250  18.010  19.220
  506BOLB   GL112123  19.670  18.010  19.410
  506BOLB   GL212124  19.570  18.010  19.760
  506BOLB   C1A12125  20.100  17.990  19.630
  506BOLB   C2A12126  20.460  18.070  20.080
  506BOLB   C3A12127  20.650  18.180  20.450
  506BOLB   C4A12128  20.950  17.980  20.740
  506BOLB   C1B12129  19.630  17.940  20.280
  506BOLB   C2B12130  19.750  18.120  20.620
  506BOLB   C3B12131  19.610  18.370  20.980
  506BOLB   C4B12132  19.710  18.660  21.260
  506BOLB   NC212133  22.010  17.650  22.670
  506BOLB   PO212134  21.650  17.820  22.940
  506BOLB   GL312135  21.410  17.780  22.530
  506BOLB   GL412136  21.150  17.680  22.650
  506BOLB   C1C12137  21.600  17.710  22.210
  506BOLB   C2C12138  21.470  17.850  21.820
  506BOLB   C3C12139  21.230  18.000  21.470
  506BOLB   C4C12140  21.090  17.870  21.070
  506BOLB   C1D12141  20.950  17.670  22.300
  506BOLB   C2D12142  20.670  17.420  22.180
  506BOLB   C3D12143  20.570  17.330  21.730
  506BOLB   C4D12144  20.290  17.080  21.450
  507BOLB   NC112145  10.030  22.210  13.530
  507BOLB   PO112146   9.870  22.220  12.970
  507BOLB   GL112147   9.580  22.440  12.680
  507BOLB   GL212148   9.500  22.470  12.360
  507BOLB   C1A12149   9.250  22.770  12.720
  507BOLB   C2A12150   8.890  23.020  12.590
  507BOLB   C3A12151   8.560  23.200  12.680
  507BOLB   C4A12152   8.320  23.560  12.600
  507BOLB   C1B12153   9.270  22.930  12.270
  507BOLB   C2B12154   9.180  23.370  12.100
  507BOLB   C3B12155   8.920  23.520  12.390
  507BOLB   C4B12156   8.920  23.820  12.480
  507BOLB   NC212157   5.330  23.840  12.210
  507BOLB   PO212158   5.760  23.740  12.270
  507BOLB   GL312159   6.260  23.710  12.330
  507BOLB   GL412160   6.290  23.340  12.500
  507BOLB   C1C12161   6.630  23.580  12.160
  507BOLB   C2C12162   7.100  23.460  12.440
  507BOLB   C3C12163   7.440  23.660  12.600
  507BOLB   C4C12164   7.910  23.740  12.700
  507BOLB   C1D12165   6.290  22.900  12.570
  507BOLB   C2D12166   6.590  22.550  12.720
  507BOLB   C3D12167   7.090  22.280  12.770
  507BOLB   C4D12168   7.500  22.250  12.610
  508BOLB   NC112169  17.370   8.890  11.430
  508BOLB   PO112170  17.740   9.100  11.490
  508BOLB   GL112171  17.890   8.600  11.500
  508BOLB   GL212172  17.690   8.380  11.290
  508BOLB   C1A12173  18.000   8.260  11.720
  508BOLB   C2A12174  18.270   8.010  11.940
  508BOLB   C3A12175  18.370   7.650  11.870
  508BOLB   C4A12176  18.690   7.270  11.810
  508BOLB   C1B12177  17.770   7.950  11.250
  508BOLB   C2B12178  18.110   7.650  11.430
  508BOLB   C3B12179  18.380   7.340  11.220
  508BOLB   C4B12180  18.670   7.030  11.280
  508BOLB   NC212181  19.070   4.850  13.070
  508BOLB   PO212182  19.340   5.040  12.630
  508BOLB   GL312183  19.170   5.410  12.530
  508BOLB   GL412184  19.450   5.620  12.640
  508BOLB   C1C12185  19.060   5.840  12.350
  508BOLB   C2C12186  18.980   6.340  12.140
  508BOLB   C3C12187  19.180   6.610  11.850
  508BOLB   C4C12188  19.030   7.010  11.640
  508BOLB   C1D12189  19.090   5.760  12.840
  508BOLB   C2D12190  18.780   5.970  13.050
  508BOLB   C3D12191  18.380   5.930  13.320
  508BOLB   C4D12192  18.090   6.100  13.640
  509BOLB   NC112193  11.450  22.990  16.670
  509BOLB   PO112194  11.040  23.050  16.450
  509BOLB   GL112195  10.920  23.200  16.770
  509BOLB   GL212196  11.130  23.310  16.940
  509BOLB   C1A12197  10.540  23.530  16.810
  509BOLB   C2A12198  10.280  23.750  17.090
  509BOLB   C3A12199   9.860  24.010  17.150
  509BOLB   C4A12200   9.540  24.350  17.290
  509BOLB   C1B12201  10.960  23.770  16.910
  509BOLB   C2B12202  10.650  24.190  16.920
  509BOLB   C3B12203  10.290  24.480  16.880
  509BOLB   C4B12204   9.990  24.510  17.150
  509BOLB   NC212205   8.420  26.520  18.430
  509BOLB   PO212206   8.330  26.400  18.020
  509BOLB   GL312207   8.620  26.170  17.740
  509BOLB   GL412208   8.950  26.280  17.800
  509BOLB   C1C12209   8.640  25.650  17.680
  509BOLB   C2C12210   8.610  25.310  17.400
  509BOLB   C3C12211   8.790  24.910  17.390
  509BOLB   C4C12212   9.170  24.630  17.380
  509BOLB   C1D12213   9.170  25.900  17.680
  509BOLB   C2D12214   9.380  25.620  17.450
  509BOLB   C3D12215   9.700  25.380  17.340
  509BOLB   C4D12216   9.850  24.960  17.530
  510BOLB   NC112217  11.910  16.700   6.170
  510BOLB   PO112218  11.620  16.850   5.840
  510BOLB   GL112219  11.210  16.990   5.630
  510BOLB   GL212220  11.260  17.250   5.520
  510BOLB   C1A12221  10.850  16.930   5.380
  510BOLB   C2A12222  10.640  17.010   4.970
  510BOLB   C3A12223  10.450  17.010   4.570
  510BOLB   C4A12224  10.250  16.730   4.290
  510BOLB   C1B12225  10.970  17.330   5.150
  510BOLB   C2B12226  10.570  17.570   5.120
  510BOLB   C3B12227  10.160  17.350   4.880
  510BOLB   C4B12228   9.840  17.470   4.560
  510BOLB   NC212229   9.370  17.050   2.030
  510BOLB   PO212230   9.180  16.910   2.450
  510BOLB   GL312231   9.220  16.810   2.870
  510BOLB   GL412232   9.040  16.580   2.950
  510BOLB   C1C12233   9.080  16.860   3.410
  510BOLB   C2C12234   9.270  16.870   3.880
  510BOLB   C3C12235   9.370  16.730   4.230
  510BOLB   C4C12236   9.820  16.740   4.280
  510BOLB   C1D12237   9.290  16.300   3.210
  510BOLB   C2D12238   9.420  16.360   3.650
  510BOLB   C3D12239   9.690  16.270   4.030
  510BOLB   C4D12240   9.730  16.250   4.530
  511BOLB   NC112241  15.280  22.660   8.090
  511BOLB   PO112242  15.740  22.710   7.820
  511BOLB   GL112243  15.630  22.900   7.540
  511BOLB   GL212244  15.780  23.170   7.620
  511BOLB   C1A12245  15.390  23.100   7.240
  511BOLB   C2A12246  15.240  23.480   7.090
  511BOLB   C3A12247  15.440  23.900   7.040
  511BOLB   C4A12248  15.440  24.260   6.810
  511BOLB   C1B12249  15.660  23.640   7.360
  511BOLB   C2B12250  15.920  23.930   7.210
  511BOLB   C3B12251  15.970  24.160   6.930
  511BOLB   C4B12252  15.860  24.450   6.610
  511BOLB   NC212253  15.350  26.490   5.830
  511BOLB   PO212254  15.290  26.460   5.380
  511BOLB   GL312255  15.320  26.030   5.560
  511BOLB   GL412256  15.070  26.060   5.840
  511BOLB   C1C12257  15.370  25.670   5.870
  511BOLB   C2C12258  15.380  25.280   6.060
  511BOLB   C3C12259  15.300  24.810   6.160
  511BOLB   C4C12260  15.220  24.490   6.450
  511BOLB   C1D12261  14.910  25.580   5.980
  511BOLB   C2D12262  14.930  25.170   6.160
  511BOLB   C3D12263  14.770  24.800   6.260
  511BOLB   C4D12264  14.790  24.370   6.360
  512BOLB   NC112265  15.830  23.860   9.640
  512BOLB   PO112266  16.190  24.050   9.560
  512BOLB   GL112267  16.430  24.480   9.450
  512BOLB   GL212268  16.190  24.750   9.540
  512BOLB   C1A12269  16.610  24.700   9.070
  512BOLB   C2A12270  16.670  25.090   8.820
  512BOLB   C3A12271  16.570  25.340   8.530
  512BOLB   C4A12272  16.560  25.690   8.340
  512BOLB   C1B12273  15.940  25.020   9.280
  512BOLB   C2B12274  15.760  25.350   9.090
  512BOLB   C3B12275  15.580  25.680   8.910
  512BOLB   C4B12276  15.800  25.940   8.610
  512BOLB   NC212277  15.400  27.590   6.940
  512BOLB   PO212278  15.730  27.490   6.670
  512BOLB   GL312279  15.990  27.150   7.050
  512BOLB   GL412280  15.690  26.950   7.240
  512BOLB   C1C12281  16.200  27.050   7.420
  512BOLB   C2C12282  16.410  26.800   7.700
  512BOLB   C3C12283  16.310  26.380   7.860
  512BOLB   C4C12284  16.450  26.100   8.200
  512BOLB   C1D12285  15.380  26.660   7.470
  512BOLB   C2D12286  15.080  26.370   7.730
  512BOLB   C3D12287  14.770  26.090   7.770
  512BOLB   C4D12288  14.500  25.840   7.930
  513BOLB   NC112289  17.710  22.870   8.760
  513BOLB   PO112290  17.590  23.160   8.420
  513BOLB   GL112291  17.330  23.520   8.460
  513BOLB   GL212292  17.460  23.530   8.110
  513BOLB   C1A12293  17.220  23.980   8.430
  513BOLB   C2A12294  17.380  24.390   8.140
  513BOLB   C3A12295  17.450  24.830   8.090
  513BOLB   C4A12296  17.590  25.170   7.850
  513BOLB   C1B12297  17.450  23.850   7.850
  513BOLB   C2B12298  17.430  24.210   7.590
  513BOLB   C3B12299  17.240  24.610   7.310
  513BOLB   C4B12300  17.390  24.950   7.040
  513BOLB   NC212301  17.350  26.660   5.790
  513BOLB   PO212302  17.290  26.880   6.150
  513BOLB   GL312303  17.170  26.520   6.370
  513BOLB   GL412304  17.520  26.450   6.290
  513BOLB   C1C12305  16.970  26.160   6.560
  513BOLB   C2C12306  17.020  25.870   6.870
  513BOLB   C3C12307  17.240  25.490   7.040
  513BOLB   C4C12308  17.420  25.350   7.390
  513BOLB   C1D12309  17.520  26.070   6.520
  513BOLB   C2D12310  17.680  25.730   6.730
  513BOLB   C3D12311  17.720  25.350   6.920
  513BOLB   C4D12312  17.970  24.890   6.830
  514BOLB   NC112313  18.850  10.020   7.240
  514BOLB   PO112314  19.190  10.250   6.970
  514BOLB   GL112315  19.130   9.880   6.780
  514BOLB   GL212316  18.870   9.600   6.790
  514BOLB   C1A12317  19.330   9.420   6.700
  514BOLB   C2A12318  19.320   9.280   6.240
  514BOLB   C3A12319  19.430   8.850   6.120
  514BOLB   C4A12320  19.550   8.440   6.220
  514BOLB   C1B12321  18.870   9.170   6.750
  514BOLB   C2B12322  19.160   8.970   6.590
  514BOLB   C3B12323  19.540   9.020   6.590
  514BOLB   C4B12324  19.820   8.810   6.510
  514BOLB   NC212325  20.810   6.500   6.880
  514BOLB   PO212326  20.660   6.800   6.640
  514BOLB   GL312327  20.420   6.800   6.980
  514BOLB   GL412328  20.310   6.740   7.320
  514BOLB   C1C12329  20.110   7.140   7.040
  514BOLB   C2C12330  19.950   7.420   6.680
  514BOLB   C3C12331  19.990   7.850   6.670
  514BOLB   C4C12332  19.820   8.260   6.540
  514BOLB   C1D12333  20.290   7.090   7.600
  514BOLB   C2D12334  20.100   7.420   7.510
  514BOLB   C3D12335  19.800   7.660   7.190
  514BOLB   C4D12336  19.490   7.860   6.950
  515BOLB   NC112337  18.000  11.170  16.170
  515BOLB   PO112338  18.290  11.080  16.460
  515BOLB   GL112339  18.640  10.860  16.500
  515BOLB   GL212340  18.850  11.060  16.470
  515BOLB   C1A12341  18.740  10.570  16.840
  515BOLB   C2A12342  18.860  10.160  16.970
  515BOLB   C3A12343  19.140  10.070  17.210
  515BOLB   C4A12344  19.290   9.680  17.560
  515BOLB   C1B12345  19.260  10.830  16.480
  515BOLB   C2B12346  19.680  10.830  16.620
  515BOLB   C3B12347  20.000  10.480  16.710
  515BOLB   C4B12348  20.300  10.480  16.810
  515BOLB   NC212349  19.810   8.090  19.250
  515BOLB   PO212350  19.940   8.320  19.560
  515BOLB   GL312351  19.910   8.610  19.150
  515BOLB   GL412352  19.810   8.390  18.890
  515BOLB   C1C12353  19.640   8.830  18.930
  515BOLB   C2C12354  19.530   9.000  18.550
  515BOLB   C3C12355  19.390   9.380  18.320
  515BOLB   C4C12356  19.150   9.390  17.880
  515BOLB   C1D12357  19.600   8.190  18.520
  515BOLB   C2D12358  19.480   8.360  18.050
  515BOLB   C3D12359  19.150   8.490  17.840
  515BOLB   C4D12360  18.780   8.450  17.770
  516BOLB   NC112361  22.030  19.190  16.630
  516BOLB   PO112362  21.830  19.030  17.050
  516BOLB   GL112363  22.160  18.900  17.430
  516BOLB   GL212364  21.950  19.030  17.700
  516BOLB   C1A12365  22.400  18.640  17.610
  516BOLB   C2A12366  22.770  18.520  17.780
  516BOLB   C3A12367  23.220  18.550  18.030
  516BOLB   C4A12368  23.550  18.610  18.380
  516BOLB   C1B12369  22.120  18.990  18.080
  516BOLB   C2B12370  22.050  18.940  18.550
  516BOLB   C3B12371  22.140  19.170  18.920
  516BOLB   C4B12372  22.190  19.420  19.240
  516BOLB   NC212373  25.750  17.510  19.190
  516BOLB   PO212374  25.350  17.440  19.360
  516BOLB   GL312375  25.120  17.910  19.270
  516BOLB   GL412376  24.900  17.640  19.060
  516BOLB   C1C12377  24.650  17.910  19.330
  516BOLB   C2C12378  24.230  18.010  19.200
  516BOLB   C3C12379  24.010  18.410  19.000
  516BOLB   C4C12380  23.750  18.690  18.690
  516BOLB   C1D12381  24.430  17.600  18.920
  516BOLB   C2D12382  24.180  17.720  18.480
  516BOLB   C3D12383  24.060  18.030  18.140
  516BOLB   C4D12384  23.850  18.410  17.900
  517BOLB   NC112385  16.940  25.030  13.110
  517BOLB   PO112386  17.310  25.180  12.860
  517BOLB   GL112387  17.230  25.540  13.080
  517BOLB   GL212388  17.400  25.730  12.910
  517BOLB   C1A12389  17.300  25.790  13.470
  517BOLB   C2A12390  17.520  26.200  13.470
  517BOLB   C3A12391  17.360  26.660  13.470
  517BOLB   C4A12392  17.060  26.880  13.370
  517BOLB   C1B12393  17.070  26.020  12.640
  517BOLB   C2B12394  16.830  26.450  12.690
  517BOLB   C3B12395  16.440  26.580  12.610
  517BOLB   C4B12396  16.190  26.830  12.970
  517BOLB   NC212397  16.210  29.300  12.800
  517BOLB   PO212398  16.430  29.240  13.260
  517BOLB   GL312399  16.760  28.930  13.160
  517BOLB   GL412400  16.780  28.740  13.510
  517BOLB   C1C12401  16.840  28.550  12.950
  517BOLB   C2C12402  16.820  28.240  13.090
  517BOLB   C3C12403  17.010  27.800  13.260
  517BOLB   C4C12404  17.040  27.360  13.220
  517BOLB   C1D12405  16.750  28.270  13.710
  517BOLB   C2D12406  16.480  27.940  13.800
  517BOLB   C3D12407  16.400  27.550  13.640
  517BOLB   C4D12408  16.040  27.250  13.680
  518BOLB   NC112409  17.260  18.950  25.640
  518BOLB   PO112410  17.660  18.930  25.310
  518BOLB   GL112411  17.570  18.600  25.090
  518BOLB   GL212412  17.500  18.320  25.240
  518BOLB   C1A12413  17.470  18.710  24.640
  518BOLB   C2A12414  17.380  18.940  24.260
  518BOLB   C3A12415  17.260  19.090  23.900
  518BOLB   C4A12416  16.920  19.200  23.650
  518BOLB   C1B12417  17.420  18.280  24.740
  518BOLB   C2B12418  17.230  18.420  24.360
  518BOLB   C3B12419  16.910  18.180  24.110
  518BOLB   C4B12420  16.890  17.760  24.020
  518BOLB   NC212421  17.160  20.690  24.900
  518BOLB   PO212422  16.830  20.470  25.200
  518BOLB   GL312423  16.580  20.120  25.010
  518BOLB   GL412424  16.590  19.980  25.360
  518BOLB   C1C12425  16.630  20.060  24.530
  518BOLB   C2C12426  16.690  19.990  24.150
  518BOLB   C3C12427  16.690  19.820  23.740
  518BOLB   C4C12428  16.670  19.430  23.510
  518BOLB   C1D12429  16.290  19.730  25.190
  518BOLB   C2D12430  16.100  19.540  24.910
  518BOLB   C3D12431  15.690  19.690  24.710
  518BOLB   C4D12432  15.210  19.680  24.710
  519BOLB   NC112433  23.630  17.090  14.690
  519BOLB   PO112434  23.290  16.890  14.870
  519BOLB   GL112435  23.720  16.880  15.140
  519BOLB   GL212436  23.660  16.770  15.540
  519BOLB   C1A12437  24.180  16.780  15.140
  519BOLB   C2A12438  24.530  16.940  15.410
  519BOLB   C3A12439  24.730  17.310  15.550
  519BOLB   C4A12440  25.050  17.350  15.850
  519BOLB   C1B12441  24.000  16.910  15.730
  519BOLB   C2B12442  24.340  17.050  15.930
  519BOLB   C3B12443  24.800  16.870  15.850
  519BOLB   C4B12444  25.210  16.940  16.000
  519BOLB   NC212445  26.460  17.090  17.920
  519BOLB   PO212446  26.350  16.920  17.460
  519BOLB   GL312447  26.190  17.050  17.110
  519BOLB   GL412448  25.880  17.260  17.230
  519BOLB   C1C12449  26.190  17.180  16.720
  519BOLB   C2C12450  25.950  17.170  16.360
  519BOLB   C3C12451  25.620  17.190  16.310
  519BOLB   C4C12452  25.410  17.380  15.990
  519BOLB   C1D12453  25.740  17.380  16.780
  519BOLB   C2D12454  25.390  17.460  16.630
  519BOLB   C3D12455  25.030  17.370  16.480
  519BOLB   C4D12456  24.720  17.260  16.270
  520BOLB   NC112457   8.100  14.610  26.110
  520BOLB   PO112458   8.070  14.950  26.220
  520BOLB   GL112459   8.260  15.040  25.800
  520BOLB   GL212460   8.210  14.810  25.540
  520BOLB   C1A12461   8.620  15.290  25.640
  520BOLB   C2A12462   8.860  15.640  25.440
  520BOLB   C3A12463   8.940  15.960  25.140
  520BOLB   C4A12464   8.790  16.230  24.780
  520BOLB   C1B12465   8.320  14.550  25.190
  520BOLB   C2B12466   8.580  14.530  24.920
  520BOLB   C3B12467   8.780  14.500  24.580
  520BOLB   C4B12468   8.870  14.200  24.220
  520BOLB   NC212469   6.290  16.820  24.820
  520BOLB   PO212470   6.170  16.340  24.830
  520BOLB   GL312471   6.670  16.510  24.820
  520BOLB   GL412472   6.740  16.450  24.510
  520BOLB   C1C12473   7.030  16.490  25.020
  520BOLB   C2C12474   7.380  16.710  24.790
  520BOLB   C3C12475   7.810  16.620  24.790
  520BOLB   C4C12476   8.320  16.500  24.730
  520BOLB   C1D12477   6.940  16.170  24.460
  520BOLB   C2D12478   7.110  16.090  24.080
  520BOLB   C3D12479   7.490  16.270  23.770
  520BOLB   C4D12480   7.840  16.420  23.570
  521BOLB   NC112481  19.780  22.680  17.390
  521BOLB   PO112482  19.940  23.090  17.440
  521BOLB   GL112483  20.320  23.300  17.590
  521BOLB   GL212484  20.050  23.250  17.910
  521BOLB   C1A12485  20.560  23.690  17.770
  521BOLB   C2A12486  20.550  23.960  18.180
  521BOLB   C3A12487  20.700  24.250  18.460
  521BOLB   C4A12488  20.640  24.680  18.630
  521BOLB   C1B12489  20.210  23.630  18.130
  521BOLB   C2B12490  20.160  23.750  18.430
  521BOLB   C3B12491  20.140  24.160  18.560
  521BOLB   C4B12492  20.150  24.550  18.720
  521BOLB   NC212493  20.290  25.840  21.050
  521BOLB   PO212494  20.640  25.710  20.730
  521BOLB   GL312495  20.590  25.560  20.340
  521BOLB   GL412496  20.750  25.520  20.190
  521BOLB   C1C12497  20.320  25.430  19.980
  521BOLB   C2C12498  20.210  25.300  19.570
  521BOLB   C3C12499  20.210  25.010  19.220
  521BOLB   C4C12500  20.500  24.930  18.840
  521BOLB   C1D12501  20.860  25.510  19.750
  521BOLB   C2D12502  20.730  25.210  19.650
  521BOLB   C3D12503  20.690  24.840  19.360
  521BOLB   C4D12504  20.730  24.420  19.370
  522BOLB   NC112505  20.500  14.430  17.300
  522BOLB   PO112506  20.630  14.010  17.320
  522BOLB   GL112507  20.940  13.870  17.550
  522BOLB   GL212508  21.000  13.440  17.660
  522BOLB   C1A12509  21.290  13.930  17.920
  522BOLB   C2A12510  21.650  13.650  18.090
  522BOLB   C3A12511  21.960  13.450  18.290
  522BOLB   C4A12512  22.200  13.240  18.640
  522BOLB   C1B12513  21.330  13.250  17.850
  522BOLB   C2B12514  21.560  13.000  18.060
  522BOLB   C3B12515  21.950  12.900  18.310
  522BOLB   C4B12516  22.000  12.780  18.710
  522BOLB   NC212517  24.100  12.910  20.120
  522BOLB   PO212518  24.030  13.190  19.960
  522BOLB   GL312519  23.810  13.320  19.570
  522BOLB   GL412520  23.700  13.610  19.600
  522BOLB   C1C12521  23.650  13.100  19.190
  522BOLB   C2C12522  23.290  12.980  18.960
  522BOLB   C3C12523  22.890  13.040  18.870
  522BOLB   C4C12524  22.470  13.100  18.940
  522BOLB   C1D12525  23.480  13.730  19.230
  522BOLB   C2D12526  23.090  13.960  19.300
  522BOLB   C3D12527  22.680  14.260  19.130
  522BOLB   C4D12528  22.490  14.660  19.370
  523BOLB   NC112529  22.270  21.070   7.960
  523BOLB   PO112530  22.320  21.380   8.230
  523BOLB   GL112531  22.610  21.740   8.200
  523BOLB   GL212532  22.680  21.820   7.880
  523BOLB   C1A12533  22.970  22.090   8.140
  523BOLB   C2A12534  23.190  22.560   8.000
  523BOLB   C3A12535  23.290  22.920   7.990
  523BOLB   C4A12536  23.620  23.280   7.780
  523BOLB   C1B12537  22.750  21.900   7.460
  523BOLB   C2B12538  22.910  21.900   6.940
  523BOLB   C3B12539  22.800  21.820   6.500
  523BOLB   C4B12540  22.810  21.760   6.060
  523BOLB   NC212541  24.620  24.260   5.640
  523BOLB   PO212542  24.270  24.480   5.670
  523BOLB   GL312543  24.000  24.260   6.030
  523BOLB   GL412544  24.040  24.340   6.380
  523BOLB   C1C12545  23.850  23.810   6.200
  523BOLB   C2C12546  23.790  23.550   6.600
  523BOLB   C3C12547  23.920  23.570   6.990
  523BOLB   C4C12548  23.830  23.410   7.430
  523BOLB   C1D12549  23.670  24.130   6.630
  523BOLB   C2D12550  23.420  23.790   6.870
  523BOLB   C3D12551  23.130  23.540   7.020
  523BOLB   C4D12552  22.920  23.210   7.240
  524BOLB   NC112553  22.010  13.470  14.630
  524BOLB   PO112554  22.340  13.610  15.010
  524BOLB   GL112555  22.690  13.340  15.190
  524BOLB   GL212556  22.860  13.570  15.360
  524BOLB   C1A12557  22.900  13.120  15.480
  524BOLB   C2A12558  23.230  12.860  15.730
  524BOLB   C3A12559  23.630  12.860  15.810
  524BOLB   C4A12560  24.000  12.740  15.500
  524BOLB   C1B12561  23.290  13.380  15.400
  524BOLB   C2B12562  23.660  13.190  15.460
  524BOLB   C3B12563  23.750  13.300  15.900
  524BOLB   C4B12564  24.130  13.280  16.010
  524BOLB   NC212565  26.200  12.500  16.390
  524BOLB   PO212566  26.080  12.070  16.660
  524BOLB   GL312567  25.710  12.200  16.470
  524BOLB   GL412568  25.570  11.880  16.470
  524BOLB   C1C12569  25.420  12.130  16.040
  524BOLB   C2C12570  25.040  12.090  15.770
  524BOLB   C3C12571  24.520  12.210  15.660
  524BOLB   C4C12572  24.210  12.390  15.580
  524BOLB   C1D12573  25.130  11.790  16.750
  524BOLB   C2D12574  24.760  11.560  16.640
  524BOLB   C3D12575  24.440  11.590  16.370
  524BOLB   C4D12576  23.990  11.700  16.380
  525BOLB   NC112577  17.410  15.450  20.280
  525BOLB   PO112578  17.550  15.170  20.390
  525BOLB   GL112579  17.680  15.060  20.810
  525BOLB   GL212580  18.000  15.100  20.690
  525BOLB   C1A12581  17.590  15.050  21.360
  525BOLB   C2A12582  17.640  15.010  21.780
  525BOLB   C3A12583  17.620  14.890  22.160
  525BOLB   C4A12584  17.650  14.800  22.630
  525BOLB   C1B12585  18.050  15.270  21.110
  525BOLB   C2B12586  18.090  15.110  21.530
  525BOLB   C3B12587  18.260  15.180  21.960
  525BOLB   C4B12588  18.700  15.110  22.030
  525BOLB   NC212589  18.820  15.000  24.900
  525BOLB   PO212590  18.520  14.740  25.170
  525BOLB   GL312591  18.290  14.980  24.850
  525BOLB   GL412592  18.440  15.080  24.540
  525BOLB   C1C12593  17.980  14.900  24.460
  525BOLB   C2C12594  17.700  15.100  24.090
  525BOLB   C3C12595  17.690  15.000  23.550
  525BOLB   C4C12596  17.660  15.030  23.090
  525BOLB   C1D12597  18.210  15.210  24.130
  525BOLB   C2D12598  18.140  15.170  23.730
  525BOLB   C3D12599  18.060  15.300  23.360
  525BOLB   C4D12600  17.810  15.490  23.100
  526BOLB   NC112601  10.260  12.680   7.810
  526BOLB   PO112602  10.520  12.840   7.620
  526BOLB   GL112603  10.370  12.740   7.290
  526BOLB   GL212604  10.390  12.500   7.050
  526BOLB   C1A12605  10.220  12.980   6.980
  526BOLB   C2A12606   9.900  12.840   6.760
  526BOLB   C3A12607   9.700  12.480   6.580
  526BOLB   C4A12608   9.360  12.290   6.440
  526BOLB   C1B12609  10.090  12.260   6.790
  526BOLB   C2B12610  10.110  11.850   6.460
  526BOLB   C3B12611   9.990  11.460   6.240
  526BOLB   C4B12612   9.850  11.270   5.910
  526BOLB   NC212613   8.180  11.480   4.460
  526BOLB   PO212614   8.410  11.120   4.790
  526BOLB   GL312615   8.250  11.520   5.090
  526BOLB   GL412616   8.470  11.670   5.020
  526BOLB   C1C12617   8.360  11.800   5.510
  526BOLB   C2C12618   8.630  12.000   5.820
  526BOLB   C3C12619   8.910  12.250   5.940
  526BOLB   C4C12620   9.060  12.270   6.270
  526BOLB   C1D12621   8.790  11.800   5.300
  526BOLB   C2D12622   9.120  12.030   5.600
  526BOLB   C3D12623   9.450  12.160   5.880
  526BOLB   C4D12624   9.790  12.160   6.220
  527BOLB   NC112625  21.170  23.120  21.580
  527BOLB   PO112626  20.940  23.440  21.900
  527BOLB   GL112627  20.700  23.360  21.570
  527BOLB   GL212628  20.770  23.460  21.260
  527BOLB   C1A12629  20.270  23.530  21.390
  527BOLB   C2A12630  20.000  23.480  20.980
  527BOLB   C3A12631  19.760  23.230  20.580
  527BOLB   C4A12632  19.460  22.920  20.720
  527BOLB   C1B12633  20.890  23.150  20.980
  527BOLB   C2B12634  20.800  23.140  20.530
  527BOLB   C3B12635  20.650  23.530  20.350
  527BOLB   C4B12636  20.700  24.000  20.220
  527BOLB   NC212637  19.830  22.190  23.050
  527BOLB   PO212638  19.640  22.680  23.100
  527BOLB   GL312639  19.440  22.430  22.710
  527BOLB   GL412640  19.430  22.060  22.770
  527BOLB   C1C12641  19.590  22.350  22.090
  527BOLB   C2C12642  19.580  22.140  21.670
  527BOLB   C3C12643  19.350  22.270  21.300
  527BOLB   C4C12644  19.300  22.490  20.880
  527BOLB   C1D12645  19.410  21.790  22.460
  527BOLB   C2D12646  19.020  21.590  22.310
  527BOLB   C3D12647  18.760  21.310  22.510
  527BOLB   C4D12648  18.680  21.290  22.930
  528BOLB   NC112649  21.390  22.880  10.800
  528BOLB   PO112650  21.780  22.980  10.830
  528BOLB   GL112651  22.020  23.330  10.660
  528BOLB   GL212652  21.980  23.630  10.350
  528BOLB   C1A12653  22.430  23.470  10.510
  528BOLB   C2A12654  22.640  23.810  10.430
  528BOLB   C3A12655  22.880  24.100  10.580
  528BOLB   C4A12656  22.990  24.520  10.740
  528BOLB   C1B12657  22.220  23.750  10.020
  528BOLB   C2B12658  22.530  24.100   9.970
  528BOLB   C3B12659  22.720  24.410  10.070
  528BOLB   C4B12660  22.780  24.800  10.250
  528BOLB   NC212661  23.890  27.090   9.630
  528BOLB   PO212662  23.950  26.860  10.010
  528BOLB   GL312663  23.800  26.510  10.210
  528BOLB   GL412664  23.650  26.520  10.500
  528BOLB   C1C12665  23.630  26.000  10.400
  528BOLB   C2C12666  23.610  25.570  10.640
  528BOLB   C3C12667  23.320  25.250  10.720
  528BOLB   C4C12668  23.040  24.990  10.810
  528BOLB   C1D12669  23.350  26.380  10.210
  528BOLB   C2D12670  22.920  26.100  10.240
  528BOLB   C3D12671  22.680  25.780  10.350
  528BOLB   C4D12672  22.390  25.580  10.440
  529BOLB   NC112673  22.830  13.090  13.940
  529BOLB   PO112674  22.640  12.690  13.860
  529BOLB   GL112675  22.740  12.240  14.080
  529BOLB   GL212676  22.430  12.290  14.260
  529BOLB   C1A12677  23.070  11.920  14.050
  529BOLB   C2A12678  23.370  11.710  14.250
  529BOLB   C3A12679  23.430  11.330  14.160
  529BOLB   C4A12680  23.700  11.050  14.010
  529BOLB   C1B12681  22.590  12.020  14.490
  529BOLB   C2B12682  22.960  12.040  14.750
  529BOLB   C3B12683  23.400  11.890  14.720
  529BOLB   C4B12684  23.710  11.650  14.920
  529BOLB   NC212685  25.460   9.490  14.510
  529BOLB   PO212686  25.700   9.830  14.450
  529BOLB   GL312687  25.110   9.840  14.560
  529BOLB   GL412688  25.020   9.870  14.230
  529BOLB   C1C12689  24.780  10.240  14.600
  529BOLB   C2C12690  24.500  10.440  14.300
  529BOLB   C3C12691  24.360  10.820  14.060
  529BOLB   C4C12692  24.110  11.060  13.920
  529BOLB   C1D12693  24.660   9.990  13.930
  529BOLB   C2D12694  24.620  10.200  13.560
  529BOLB   C3D12695  24.700  10.530  13.290
  529BOLB   C4D12696  24.760  10.930  13.020
  530BOLB   NC112697  14.940   9.450  14.990
  530BOLB   PO112698  14.810   9.810  15.140
  530BOLB   GL112699  14.520   9.530  15.400
  530BOLB   GL212700  14.480   9.200  15.210
  530BOLB   C1A12701  14.390   9.160  15.800
  530BOLB   C2A12702  14.500   8.760  16.010
  530BOLB   C3A12703  14.560   8.390  16.330
  530BOLB   C4A12704  14.840   8.090  16.410
  530BOLB   C1B12705  14.500   8.790  15.350
  530BOLB   C2B12706  14.440   8.480  15.590
  530BOLB   C3B12707  14.210   8.250  15.910
  530BOLB   C4B12708  14.280   8.010  16.230
  530BOLB   NC212709  15.170   5.760  17.690
  530BOLB   PO212710  15.300   6.080  17.410
  530BOLB   GL312711  15.360   6.180  17.140
  530BOLB   GL412712  15.310   6.570  17.240
  530BOLB   C1C12713  15.570   6.460  16.810
  530BOLB   C2C12714  15.580   6.910  16.610
  530BOLB   C3C12715  15.410   7.330  16.620
  530BOLB   C4C12716  15.200   7.770  16.650
  530BOLB   C1D12717  15.500   6.860  17.120
  530BOLB   C2D12718  15.500   7.320  17.150
  530BOLB   C3D12719  15.590   7.700  16.920
  530BOLB   C4D12720  15.850   7.960  16.870
  531BOLB   NC112721  16.920   9.130   9.290
  531BOLB   PO112722  17.170   9.470   9.090
  531BOLB   GL112723  17.260   9.030   8.890
  531BOLB   GL212724  17.000   8.960   8.680
  531BOLB   C1A12725  17.240   8.550   8.980
  531BOLB   C2A12726  17.300   8.130   8.950
  531BOLB   C3A12727  17.190   7.790   8.850
  531BOLB   C4A12728  16.910   7.380   9.000
  531BOLB   C1B12729  16.960   8.430   8.570
  531BOLB   C2B12730  17.010   8.040   8.330
  531BOLB   C3B12731  17.240   7.620   8.370
  531BOLB   C4B12732  17.340   7.340   8.010
  531BOLB   NC212733  16.670   5.260   8.120
  531BOLB   PO212734  16.990   5.600   8.080
  531BOLB   GL312735  16.580   5.780   8.070
  531BOLB   GL412736  16.390   5.760   8.370
  531BOLB   C1C12737  16.390   6.150   8.060
  531BOLB   C2C12738  16.330   6.550   8.310
  531BOLB   C3C12739  16.470   6.930   8.560
  531BOLB   C4C12740  16.710   7.140   8.770
  531BOLB   C1D12741  16.830   6.130   8.470
  531BOLB   C2D12742  17.290   6.350   8.340
  531BOLB   C3D12743  17.550   6.550   8.560
  531BOLB   C4D12744  17.950   6.600   8.690
  532BOLB   NC112745  13.870  25.030  13.860
  532BOLB   PO112746  13.540  24.800  13.730
  532BOLB   GL112747  13.340  25.140  13.660
  532BOLB   GL212748  13.550  25.350  13.790
  532BOLB   C1A12749  13.010  25.380  13.750
  532BOLB   C2A12750  12.860  25.850  13.710
  532BOLB   C3A12751  12.620  26.110  13.630
  532BOLB   C4A12752  12.520  26.440  13.370
  532BOLB   C1B12753  13.360  25.670  13.530
  532BOLB   C2B12754  13.240  26.120  13.400
  532BOLB   C3B12755  13.180  26.560  13.230
  532BOLB   C4B12756  13.110  27.040  13.150
  532BOLB   NC212757  11.160  27.920  11.850
  532BOLB   PO212758  10.830  27.710  12.020
  532BOLB   GL312759  11.070  27.330  12.300
  532BOLB   GL412760  10.890  27.300  12.620
  532BOLB   C1C12761  11.420  27.180  12.420
  532BOLB   C2C12762  11.730  26.910  12.450
  532BOLB   C3C12763  12.020  26.690  12.630
  532BOLB   C4C12764  12.160  26.500  13.020
  532BOLB   C1D12765  10.990  26.920  12.580
  532BOLB   C2D12766  11.290  26.670  12.410
  532BOLB   C3D12767  11.580  26.330  12.460
  532BOLB   C4D12768  11.740  25.870  12.490
  533BOLB   NC112769  11.540  10.060  10.500
  533BOLB   PO112770  11.890   9.930  10.560
  533BOLB   GL112771  11.680   9.490  10.590
  533BOLB   GL212772  11.710   9.350  10.940
  533BOLB   C1A12773  11.450   9.160  10.480
  533BOLB   C2A12774  11.140   8.900  10.380
  533BOLB   C3A12775  11.020   8.560  10.240
  533BOLB   C4A12776  10.660   8.290  10.380
  533BOLB   C1B12777  11.680   8.930  10.960
  533BOLB   C2B12778  11.350   8.640  10.900
  533BOLB   C3B12779  11.250   8.330  10.790
  533BOLB   C4B12780  10.870   8.060  10.890
  533BOLB   NC212781  10.010   6.210  10.070
  533BOLB   PO212782  10.080   6.170  10.560
  533BOLB   GL312783  10.020   6.620  10.610
  533BOLB   GL412784   9.630   6.600  10.600
  533BOLB   C1C12785   9.980   6.940  10.830
  533BOLB   C2C12786   9.980   7.370  10.840
  533BOLB   C3C12787  10.100   7.770  10.620
  533BOLB   C4C12788  10.320   8.120  10.700
  533BOLB   C1D12789   9.490   7.060  10.630
  533BOLB   C2D12790   9.660   7.280  10.380
  533BOLB   C3D12791   9.960   7.560  10.170
  533BOLB   C4D12792  10.000   7.720   9.830
  534BOLB   NC112793  22.200  14.640   8.400
  534BOLB   PO112794  22.510  14.270   8.310
  534BOLB   GL112795  22.790  14.300   8.030
  534BOLB   GL212796  22.730  14.050   7.730
  534BOLB   C1A12797  23.190  14.300   7.930
  534BOLB   C2A12798  23.510  14.370   7.710
  534BOLB   C3A12799  23.690  14.230   7.370
  534BOLB   C4A12800  24.050  14.060   7.220
  534BOLB   C1B12801  23.180  14.060   7.420
  534BOLB   C2B12802  23.420  13.710   7.210
  534BOLB   C3B12803  23.870  13.600   7.220
  534BOLB   C4B12804  24.000  13.220   7.220
  534BOLB   NC212805  26.420  13.040   6.410
  534BOLB   PO212806  26.350  13.210   6.880
  534BOLB   GL312807  26.140  13.590   7.010
  534BOLB   GL412808  26.100  13.980   6.930
  534BOLB   C1C12809  25.710  13.580   7.070
  534BOLB   C2C12810  25.280  13.760   6.960
  534BOLB   C3C12811  24.900  13.960   6.960
  534BOLB   C4C12812  24.500  14.140   7.030
  534BOLB   C1D12813  25.700  14.080   7.100
  534BOLB   C2D12814  25.440  13.940   7.500
  534BOLB   C3D12815  25.380  14.090   7.930
  534BOLB   C4D12816  25.040  14.360   8.140
  535BOLB   NC112817  23.200  21.570  11.870
  535BOLB   PO112818  23.410  21.180  12.050
  535BOLB   GL112819  23.820  21.300  12.290
  535BOLB   GL212820  23.770  21.220  12.630
  535BOLB   C1A12821  24.210  21.550  12.440
  535BOLB   C2A12822  24.470  21.970  12.630
  535BOLB   C3A12823  24.480  22.400  12.860
  535BOLB   C4A12824  24.820  22.760  12.870
  535BOLB   C1B12825  24.060  21.390  12.870
  535BOLB   C2B12826  24.450  21.640  13.020
  535BOLB   C3B12827  24.940  21.840  13.000
  535BOLB   C4B12828  25.060  22.330  12.940
  535BOLB   NC212829  26.880  24.550  12.740
  535BOLB   PO212830  26.780  24.090  12.670
  535BOLB   GL312831  26.570  23.920  12.960
  535BOLB   GL412832  26.330  24.030  13.230
  535BOLB   C1C12833  26.410  23.550  12.950
  535BOLB   C2C12834  26.060  23.310  12.880
  535BOLB   C3C12835  25.660  22.990  12.920
  535BOLB   C4C12836  25.170  22.920  12.990
  535BOLB   C1D12837  26.050  23.740  13.270
  535BOLB   C2D12838  25.810  23.340  13.340
  535BOLB   C3D12839  25.440  23.290  13.280
  535BOLB   C4D12840  25.000  23.340  13.440
  536BOLB   NC112841  19.100  16.430  20.050
  536BOLB   PO112842  19.450  16.630  19.860
  536BOLB   GL112843  19.590  16.590  20.350
  536BOLB   GL212844  19.500  16.270  20.520
  536BOLB   C1A12845  19.910  16.600  20.700
  536BOLB   C2A12846  20.240  16.290  20.890
  536BOLB   C3A12847  20.120  15.880  21.020
  536BOLB   C4A12848  19.960  15.630  21.370
  536BOLB   C1B12849  19.760  16.180  20.810
  536BOLB   C2B12850  19.820  16.370  21.240
  536BOLB   C3B12851  19.730  16.230  21.660
  536BOLB   C4B12852  19.550  16.330  21.920
  536BOLB   NC212853  20.820  15.880  23.560
  536BOLB   PO212854  20.340  15.690  23.770
  536BOLB   GL312855  20.050  15.600  23.490
  536BOLB   GL412856  19.800  15.540  23.530
  536BOLB   C1C12857  19.820  15.730  23.090
  536BOLB   C2C12858  19.740  15.950  22.650
  536BOLB   C3C12859  19.780  15.890  22.100
  536BOLB   C4C12860  19.680  15.710  21.710
  536BOLB   C1D12861  19.440  15.550  23.360
  536BOLB   C2D12862  19.040  15.740  23.310
  536BOLB   C3D12863  18.790  15.630  23.560
  536BOLB   C4D12864  18.410  15.600  23.650
  537BOLB   NC112865  11.360   9.710  11.380
  537BOLB   PO112866  11.520   9.970  10.980
  537BOLB   GL112867  11.290   9.610  10.880
  537BOLB   GL212868  11.150   9.710  10.660
  537BOLB   C1A12869  11.240   9.150  10.960
  537BOLB   C2A12870  10.960   8.920  10.910
  537BOLB   C3A12871  10.680   8.570  10.760
  537BOLB   C4A12872  10.300   8.470  11.040
  537BOLB   C1B12873  10.990   9.420  10.580
  537BOLB   C2B12874  10.690   9.120  10.390
  537BOLB   C3B12875  10.620   8.770  10.320
  537BOLB   C4B12876  10.320   8.480  10.120
  537BOLB   NC212877   8.340   6.730   9.920
  537BOLB   PO212878   8.590   6.900  10.140
  537BOLB   GL312879   8.900   6.970  10.420
  537BOLB   GL412880   9.050   6.720  10.710
  537BOLB   C1C12881   9.160   7.410  10.560
  537BOLB   C2C12882   9.510   7.560  10.860
  537BOLB   C3C12883   9.760   7.830  10.970
  537BOLB   C4C12884   9.990   8.210  11.020
  537BOLB   C1D12885   9.020   7.100  10.940
  537BOLB   C2D12886   9.550   7.140  11.200
  537BOLB   C3D12887   9.930   7.420  11.320
  537BOLB   C4D12888  10.220   7.770  11.140
  538BOLB   NC112889  15.640  25.410  14.910
  538BOLB   PO112890  15.320  25.130  15.040
  538BOLB   GL112891  15.230  25.410  15.240
  538BOLB   GL212892  15.150  25.700  15.030
  538BOLB   C1A12893  15.030  25.930  15.460
  538BOLB   C2A12894  14.710  26.260  15.560
  538BOLB   C3A12895  14.560  26.580  15.890
  538BOLB   C4A12896  14.700  26.930  16.140
  538BOLB   C1B12897  15.210  26.210  15.020
  538BOLB   C2B12898  15.010  26.520  15.320
  538BOLB   C3B12899  14.630  26.850  15.360
  538BOLB   C4B12900  14.470  27.180  15.700
  538BOLB   NC212901  14.600  29.200  16.880
  538BOLB   PO212902  14.380  29.090  16.450
  538BOLB   GL312903  14.480  28.670  16.260
  538BOLB   GL412904  14.710  28.640  16.060
  538BOLB   C1C12905  14.290  28.190  16.370
  538BOLB   C2C12906  14.330  27.920  16.760
  538BOLB   C3C12907  14.550  27.580  16.760
  538BOLB   C4C12908  14.740  27.250  16.590
  538BOLB   C1D12909  14.640  28.240  15.800
  538BOLB   C2D12910  14.720  27.970  15.520
  538BOLB   C3D12911  14.550  27.710  15.090
  538BOLB   C4D12912  14.690  27.580  14.740
  539BOLB   NC112913  20.450  13.810   6.340
  539BOLB   PO112914  20.740  13.420   6.440
  539BOLB   GL112915  20.970  13.100   6.160
  539BOLB   GL212916  21.090  13.240   5.940
  539BOLB   C1A12917  21.040  12.690   5.960
  539BOLB   C2A12918  21.400  12.420   5.840
  539BOLB   C3A12919  21.870  12.430   6.010
  539BOLB   C4A12920  22.240  12.340   5.830
  539BOLB   C1B12921  21.170  13.030   5.540
  539BOLB   C2B12922  21.130  12.890   5.140
  539BOLB   C3B12923  21.420  12.790   4.760
  539BOLB   C4B12924  21.480  12.900   4.320
  539BOLB   NC212925  24.100  11.420   3.740
  539BOLB   PO212926  23.980  11.760   3.850
  539BOLB   GL312927  23.760  11.980   4.190
  539BOLB   GL412928  23.920  12.240   4.260
  539BOLB   C1C12929  23.440  12.030   4.610
  539BOLB   C2C12930  23.160  12.160   4.970
  539BOLB   C3C12931  22.750  12.260   5.170
  539BOLB   C4C12932  22.540  12.500   5.580
  539BOLB   C1D12933  23.570  12.510   4.370
  539BOLB   C2D12934  23.160  12.380   4.490
  539BOLB   C3D12935  22.770  12.640   4.670
  539BOLB   C4D12936  22.430  12.970   4.840
  540BOLB   NC112937   9.450  19.460   8.660
  540BOLB   PO112938   9.190  19.600   8.950
  540BOLB   GL112939   8.760  19.830   8.860
  540BOLB   GL212940   8.890  20.170   8.780
  540BOLB   C1A12941   8.390  19.780   9.090
  540BOLB   C2A12942   7.970  19.700   9.260
  540BOLB   C3A12943   7.600  19.760   9.470
  540BOLB   C4A12944   7.180  19.770   9.660
  540BOLB   C1B12945   8.820  20.500   8.410
  540BOLB   C2B12946   8.510  20.490   8.170
  540BOLB   C3B12947   8.380  20.580   7.740
  540BOLB   C4B12948   8.070  21.000   7.730
  540BOLB   NC212949   5.300  20.520   8.850
  540BOLB   PO212950   4.990  20.290   8.990
  540BOLB   GL312951   5.190  19.870   8.990
  540BOLB   GL412952   5.440  19.890   8.700
  540BOLB   C1C12953   5.570  19.710   9.200
  540BOLB   C2C12954   5.980  19.790   9.180
  540BOLB   C3C12955   6.330  19.830   9.460
  540BOLB   C4C12956   6.680  19.810   9.670
  540BOLB   C1D12957   5.870  20.090   8.760
  540BOLB   C2D12958   6.160  20.270   9.130
  540BOLB   C3D12959   6.540  20.260   9.140
  540BOLB   C4D12960   6.800  19.940   9.250
  541BOLB   NC112961  15.570  12.670   4.630
  541BOLB   PO112962  16.000  12.630   4.530
  541BOLB   GL112963  15.980  12.280   4.420
  541BOLB   GL212964  15.680  12.080   4.390
  541BOLB   C1A12965  16.190  12.160   4.020
  541BOLB   C2A12966  16.450  11.870   3.890
  541BOLB   C3A12967  16.520  11.410   3.890
  541BOLB   C4A12968  16.710  11.060   3.840
  541BOLB   C1B12969  15.830  11.780   4.030
  541BOLB   C2B12970  15.920  11.560   3.800
  541BOLB   C3B12971  15.810  11.260   3.490
  541BOLB   C4B12972  15.780  11.020   3.120
  541BOLB   NC212973  17.790   9.140   1.960
  541BOLB   PO212974  17.530   9.540   1.970
  541BOLB   GL312975  17.300   9.790   2.370
  541BOLB   GL412976  17.540   9.700   2.560
  541BOLB   C1C12977  17.010  10.080   2.650
  541BOLB   C2C12978  17.050  10.240   3.060
  541BOLB   C3C12979  17.050  10.330   3.510
  541BOLB   C4C12980  16.730  10.580   3.700
  541BOLB   C1D12981  17.410   9.820   2.870
  541BOLB   C2D12982  17.490  10.050   3.190
  541BOLB   C3D12983  17.510  10.070   3.670
  541BOLB   C4D12984  17.420  10.220   3.970
  542BOLB   NC112985  23.060  13.630  10.630
  542BOLB   PO112986  23.540  13.460  10.800
  542BOLB   GL112987  23.950  13.480  10.610
  542BOLB   GL212988  24.060  13.770  10.700
  542BOLB   C1A12989  24.320  13.300  10.420
  542BOLB   C2A12990  24.680  13.290  10.390
  542BOLB   C3A12991  25.140  13.340  10.270
  542BOLB   C4A12992  25.520  13.250  10.410
  542BOLB   C1B12993  24.460  13.700  10.630
  542BOLB   C2B12994  24.910  13.730  10.670
  542BOLB   C3B12995  25.390  13.680  10.700
  542BOLB   C4B12996  25.840  13.640  10.690
  542BOLB   NC212997  27.180  12.000  10.240
  542BOLB   PO212998  27.280  12.050   9.700
  542BOLB   GL312999  26.900  12.040   9.800
  542BOLB   GL413000  26.880  12.320   9.980
  542BOLB   C1C13001  26.540  11.970  10.030
  542BOLB   C2C13002  26.290  12.120  10.320
  542BOLB   C3C13003  26.130  12.600  10.350
  542BOLB   C4C13004  25.790  12.900  10.430
  542BOLB   C1D13005  26.480  12.400   9.860
  542BOLB   C2D13006  26.120  12.290   9.770
  542BOLB   C3D13007  25.960  12.460   9.300
  542BOLB   C4D13008  25.660  12.660   8.990
  543BOLB   NC113009  12.840  24.550  14.250
  543BOLB   PO113010  13.040  24.570  14.610
  543BOLB   GL113011  12.840  24.930  14.570
  543BOLB   GL213012  12.830  25.190  14.790
  543BOLB   C1A13013  12.450  25.120  14.380
  543BOLB   C2A13014  12.140  25.430  14.320
  543BOLB   C3A13015  11.970  25.640  14.020
  543BOLB   C4A13016  11.860  25.960  13.890
  543BOLB   C1B13017  12.610  25.570  14.670
  543BOLB   C2B13018  12.490  26.030  14.600
  543BOLB   C3B13019  12.610  26.420  14.360
  543BOLB   C4B13020  12.450  26.810  14.170
  543BOLB   NC213021  10.890  28.220  13.570
  543BOLB   PO213022  10.580  28.020  13.920
  543BOLB   GL313023  10.770  27.630  14.060
  543BOLB   GL413024  10.530  27.410  14.190
  543BOLB   C1C13025  10.810  27.320  13.760
  543BOLB   C2C13026  10.970  27.000  13.790
  543BOLB   C3C13027  11.210  26.550  13.760
  543BOLB   C4C13028  11.540  26.270  13.870
  543BOLB   C1D13029  10.570  27.000  14.110
  543BOLB   C2D13030  10.940  26.800  14.320
  543BOLB   C3D13031  11.340  26.820  14.240
  543BOLB   C4D13032  11.730  26.940  14.390
  544BOLB   NC113033  21.030  13.310  17.190
  544BOLB   PO113034  21.080  13.730  17.070
  544BOLB   GL113035  21.390  13.670  17.360
  544BOLB   GL213036  21.540  13.440  17.450
  544BOLB   C1A13037  21.820  13.820  17.550
  544BOLB   C2A13038  22.250  13.710  17.860
  544BOLB   C3A13039  22.540  13.470  17.750
  544BOLB   C4A13040  22.870  13.170  17.810
  544BOLB   C1B13041  21.790  13.310  17.720
  544BOLB   C2B13042  22.140  13.160  17.820
  544BOLB   C3B13043  22.480  13.050  18.090
  544BOLB   C4B13044  22.640  13.200  18.370
  544BOLB   NC213045  25.000  11.080  18.710
  544BOLB   PO213046  24.920  11.470  18.600
  544BOLB   GL313047  24.740  11.780  18.310
  544BOLB   GL413048  24.920  11.970  17.940
  544BOLB   C1C13049  24.290  12.030  18.150
  544BOLB   C2C13050  23.890  12.300  18.110
  544BOLB   C3C13051  23.610  12.620  18.030
  544BOLB   C4C13052  23.320  12.890  17.880
  544BOLB   C1D13053  24.630  12.280  17.730
  544BOLB   C2D13054  24.430  12.570  17.400
  544BOLB   C3D13055  24.190  12.620  17.000
  544BOLB   C4D13056  24.230  12.780  16.540
  545BOLB   NC113057  22.550  14.070   8.910
  545BOLB   PO113058  22.870  13.890   9.090
  545BOLB   GL113059  23.170  13.610   8.910
  545BOLB   GL213060  23.070  13.520   8.530
  545BOLB   C1A13061  23.600  13.540   8.750
  545BOLB   C2A13062  23.960  13.430   8.770
  545BOLB   C3A13063  24.200  13.660   8.610
  545BOLB   C4A13064  24.520  13.840   8.440
  545BOLB   C1B13065  23.360  13.510   8.280
  545BOLB   C2B13066  23.720  13.700   8.270
  545BOLB   C3B13067  24.130  13.620   8.100
  545BOLB   C4B13068  24.620  13.570   7.940
  545BOLB   NC213069  26.460  12.770   6.960
  545BOLB   PO213070  26.580  12.800   7.390
  545BOLB   GL313071  26.160  12.940   7.350
  545BOLB   GL413072  26.000  13.010   7.180
  545BOLB   C1C13073  25.950  13.280   7.560
  545BOLB   C2C13074  25.530  13.450   7.590
  545BOLB   C3C13075  25.120  13.660   7.790
  545BOLB   C4C13076  24.890  13.920   8.070
  545BOLB   C1D13077  25.700  13.090   6.890
  545BOLB   C2D13078  25.340  13.280   7.000
  545BOLB   C3D13079  25.040  13.450   7.310
  545BOLB   C4D13080  24.840  13.760   7.430
  546BOLB   NC113081  21.980  13.060   7.650
  546BOLB   PO113082  21.850  12.570   7.670
  546BOLB   GL113083  22.200  12.640   7.460
  546BOLB   GL213084  22.310  12.660   7.170
  546BOLB   C1A13085  22.400  12.240   7.350
  546BOLB   C2A13086  22.490  11.990   7.070
  546BOLB   C3A13087  22.490  11.590   6.810
  546BOLB   C4A13088  22.810  11.320   6.670
  546BOLB   C1B13089  22.560  12.780   6.840
  546BOLB   C2B13090  22.820  12.780   6.450
  546BOLB   C3B13091  22.670  13.080   6.040
  546BOLB   C4B13092  22.580  13.290   5.680
  546BOLB   NC213093  23.780  10.290   4.670
  546BOLB   PO213094  23.690  10.500   5.020
  546BOLB   GL313095  23.740  10.210   5.400
  546BOLB   GL413096  23.720   9.890   5.590
  546BOLB   C1C13097  23.680  10.260   5.880
  546BOLB   C2C13098  23.340  10.280   6.160
  546BOLB   C3C13099  23.160  10.610   6.490
  546BOLB   C4C13100  23.050  10.960   6.670
  546BOLB   C1D13101  23.330   9.820   5.860
  546BOLB   C2D13102  23.170   9.860   6.360
  546BOLB   C3D13103  23.260  10.150   6.700
  546BOLB   C4D13104  23.000  10.350   6.860
  547BOLB   NC113105  14.460  16.810  19.590
  547BOLB   PO113106  14.750  16.390  19.380
  547BOLB   GL113107  14.400  16.330  19.740
  547BOLB   GL213108  14.080  16.500  19.720
  547BOLB   C1A13109  14.170  16.120  20.000
  547BOLB   C2A13110  13.930  16.130  20.410
  547BOLB   C3A13111  13.370  15.990  20.500
  547BOLB   C4A13112  13.190  16.030  20.270
  547BOLB   C1B13113  13.680  16.460  19.910
  547BOLB   C2B13114  13.420  16.430  20.070
  547BOLB   C3B13115  13.130  16.630  20.310
  547BOLB   C4B13116  12.960  16.650  20.690
  547BOLB   NC213117  12.970  16.990  17.610
  547BOLB   PO213118  13.150  16.640  17.890
  547BOLB   GL313119  13.090  16.490  18.330
  547BOLB   GL413120  12.830  16.620  18.400
  547BOLB   C1C13121  12.840  16.250  18.720
  547BOLB   C2C13122  12.870  16.410  19.100
  547BOLB   C3C13123  12.940  16.300  19.500
  547BOLB   C4C13124  12.970  16.280  19.900
  547BOLB   C1D13125  12.470  16.540  18.710
  547BOLB   C2D13126  12.380  16.410  19.060
  547BOLB   C3D13127  12.510  16.120  19.360
  547BOLB   C4D13128  12.600  16.030  19.770
  548BOLB   NC113129  22.730  22.440  11.500
  548BOLB   PO113130  23.090  22.430  11.220
  548BOLB   GL113131  23.490  22.490  11.200
  548BOLB   GL213132  23.550  22.300  10.980
  548BOLB   C1A13133  23.630  22.750  10.810
  548BOLB   C2A13134  23.800  22.840  10.410
  548BOLB   C3A13135  24.120  23.090  10.320
  548BOLB   C4A13136  24.570  23.250  10.520
  548BOLB   C1B13137  23.920  22.260  10.700
  548BOLB   C2B13138  24.220  22.430  10.440
  548BOLB   C3B13139  24.220  22.670  10.140
  548BOLB   C4B13140  23.790  22.800   9.920
  548BOLB   NC213141  26.500  24.050  10.840
  548BOLB   PO213142  26.590  23.650  11.230
  548BOLB   GL313143  26.260  23.330  11.110
  548BOLB   GL413144  26.190  23.160  10.760
  548BOLB   C1C13145  25.800  23.350  10.950
  548BOLB   C2C13146  25.450  23.380  10.680
  548BOLB   C3C13147  25.360  23.340  10.340
  548BOLB   C4C13148  24.970  23.500  10.320
  548BOLB   C1D13149  26.190  23.040  10.280
  548BOLB   C2D13150  25.860  22.770  10.030
  548BOLB   C3D13151  25.540  22.350  10.040
  548BOLB   C4D13152  25.360  22.070   9.770
  549BOLB   NC113153  22.160  12.080   9.650
  549BOLB   PO113154  22.200  12.170   9.250
  549BOLB   GL113155  22.540  11.960   9.280
  549BOLB   GL213156  22.550  11.590   9.580
  549BOLB   C1A13157  22.890  11.660   9.270
  549BOLB   C2A13158  23.220  11.410   9.410
  549BOLB   C3A13159  23.540  11.150   9.380
  549BOLB   C4A13160  23.500  10.690   9.370
  549BOLB   C1B13161  22.620  11.170   9.410
  549BOLB   C2B13162  22.590  10.810   9.160
  549BOLB   C3B13163  22.860  10.440   9.090
  549BOLB   C4B13164  23.180  10.250   9.370
  549BOLB   NC213165  25.270   8.850   9.990
  549BOLB   PO213166  25.290   9.140   9.680
  549BOLB   GL313167  25.000   9.350   9.630
  549BOLB   GL413168  25.120   9.660   9.840
  549BOLB   C1C13169  24.760   9.670   9.480
  549BOLB   C2C13170  24.280   9.750   9.540
  549BOLB   C3C13171  23.950  10.020   9.600
  549BOLB   C4C13172  23.630  10.240   9.500
  549BOLB   C1D13173  24.670   9.920   9.900
  549BOLB   C2D13174  24.340  10.260   9.900
  549BOLB   C3D13175  23.880  10.280  10.010
  549BOLB   C4D13176  23.450  10.440   9.870
  550BOLB   NC113177  18.060  20.670   0.790
  550BOLB   PO113178  17.610  20.620   0.720
  550BOLB   GL113179  17.410  20.560   1.080
  550BOLB   GL213180  17.100  20.510   1.030
  550BOLB   C1A13181  17.310  20.560   1.520
  550BOLB   C2A13182  17.200  20.230   1.820
  550BOLB   C3A13183  17.040  19.950   2.050
  550BOLB   C4A13184  16.790  19.580   2.210
  550BOLB   C1B13185  16.740  20.500   1.240
  550BOLB   C2B13186  16.320  20.640   1.160
  550BOLB   C3B13187  15.920  20.410   1.290
  550BOLB   C4B13188  15.720  20.020   1.380
  550BOLB   NC213189  17.160  19.260   0.450
  550BOLB   PO213190  17.110  18.780   0.580
  550BOLB   GL313191  17.340  18.900   0.810
  550BOLB   GL413192  17.340  19.250   0.910
  550BOLB   C1C13193  17.270  18.900   1.250
  550BOLB   C2C13194  17.360  18.990   1.750
  550BOLB   C3C13195  17.090  19.040   2.130
  550BOLB   C4C13196  16.850  19.200   2.330
  550BOLB   C1D13197  17.680  19.290   1.260
  550BOLB   C2D13198  17.820  19.090   1.650
  550BOLB   C3D13199  17.920  18.920   2.000
  550BOLB   C4D13200  18.000  18.930   2.370
  551BOLB   NC113201  13.440  24.050  10.000
  551BOLB   PO113202  13.770  24.290   9.920
  551BOLB   GL113203  13.670  24.500   9.560
  551BOLB   GL213204  13.750  24.480   9.320
  551BOLB   C1A13205  13.450  24.860   9.500
  551BOLB   C2A13206  13.070  25.260   9.400
  551BOLB   C3A13207  13.010  25.430   8.990
  551BOLB   C4A13208  12.600  25.440   8.670
  551BOLB   C1B13209  13.720  24.670   8.980
  551BOLB   C2B13210  13.940  24.910   8.710
  551BOLB   C3B13211  14.170  25.120   8.350
  551BOLB   C4B13212  14.270  25.430   8.130
  551BOLB   NC213213  10.170  26.600   8.870
  551BOLB   PO213214  10.390  26.450   8.580
  551BOLB   GL313215  10.880  26.400   8.490
  551BOLB   GL413216  11.020  26.120   8.270
  551BOLB   C1C13217  11.230  26.310   8.660
  551BOLB   C2C13218  11.620  26.070   8.600
  551BOLB   C3C13219  11.770  25.710   8.550
  551BOLB   C4C13220  12.170  25.590   8.570
  551BOLB   C1D13221  11.240  25.770   8.550
  551BOLB   C2D13222  10.930  25.430   8.930
  551BOLB   C3D13223  11.060  25.210   9.280
  551BOLB   C4D13224  11.030  25.120   9.650
  552BOLB   NC113225  13.080  24.690  25.020
  552BOLB   PO113226  13.340  25.070  24.680
  552BOLB   GL113227  13.280  24.870  24.360
  552BOLB   GL213228  13.400  24.940  23.940
  552BOLB   C1A13229  12.920  24.670  24.070
  552BOLB   C2A13230  12.820  24.500  23.640
  552BOLB   C3A13231  12.900  24.230  23.250
  552BOLB   C4A13232  13.290  24.120  22.840
  552BOLB   C1B13233  13.430  24.650  23.670
  552BOLB   C2B13234  13.680  24.390  23.630
  552BOLB   C3B13235  13.720  24.030  23.720
  552BOLB   C4B13236  13.440  23.650  23.900
  552BOLB   NC213237  14.300  25.710  22.520
  552BOLB   PO213238  14.510  25.840  22.220
  552BOLB   GL313239  14.360  25.500  22.020
  552BOLB   GL413240  14.580  25.410  21.850
  552BOLB   C1C13241  13.980  25.210  22.020
  552BOLB   C2C13242  13.720  24.820  22.150
  552BOLB   C3C13243  13.720  24.350  22.350
  552BOLB   C4C13244  13.560  23.960  22.430
  552BOLB   C1D13245  14.700  25.150  21.580
  552BOLB   C2D13246  14.550  24.790  21.560
  552BOLB   C3D13247  14.580  24.460  21.360
  552BOLB   C4D13248  14.790  24.050  21.120
  553BOLB   NC113249  21.840  13.180  15.720
  553BOLB   PO113250  21.760  12.940  16.040
  553BOLB   GL113251  21.900  12.510  16.190
  553BOLB   GL213252  21.900  12.280  16.070
  553BOLB   C1A13253  22.060  12.380  16.610
  553BOLB   C2A13254  22.530  12.140  16.690
  553BOLB   C3A13255  23.070  12.190  16.880
  553BOLB   C4A13256  23.390  11.950  16.980
  553BOLB   C1B13257  22.240  12.070  16.210
  553BOLB   C2B13258  22.280  11.670  16.230
  553BOLB   C3B13259  22.520  11.330  16.530
  553BOLB   C4B13260  22.760  11.090  16.870
  553BOLB   NC213261  24.710  11.760  18.980
  553BOLB   PO213262  24.600  11.270  18.980
  553BOLB   GL313263  24.410  11.540  18.610
  553BOLB   GL413264  24.370  11.910  18.660
  553BOLB   C1C13265  24.270  11.500  18.150
  553BOLB   C2C13266  24.010  11.650  17.910
  553BOLB   C3C13267  24.020  11.640  17.410
  553BOLB   C4C13268  23.730  11.850  17.150
  553BOLB   C1D13269  24.250  12.370  18.520
  553BOLB   C2D13270  24.000  12.720  18.330
  553BOLB   C3D13271  23.590  12.970  18.340
  553BOLB   C4D13272  23.160  12.980  18.380
  554BOLB   NC113273  17.530  22.660  18.780
  554BOLB   PO113274  17.240  22.980  18.790
  554BOLB   GL113275  17.360  23.010  19.170
  554BOLB   GL213276  17.660  23.080  19.100
  554BOLB   C1A13277  17.250  23.400  19.440
  554BOLB   C2A13278  17.410  23.670  19.740
  554BOLB   C3A13279  17.670  23.990  20.000
  554BOLB   C4A13280  17.770  24.090  20.410
  554BOLB   C1B13281  17.610  23.510  19.130
  554BOLB   C2B13282  17.800  23.960  19.420
  554BOLB   C3B13283  17.900  24.390  19.560
  554BOLB   C4B13284  18.170  24.750  19.730
  554BOLB   NC213285  19.360  24.900  22.020
  554BOLB   PO213286  19.240  25.280  21.740
  554BOLB   GL313287  19.020  24.920  21.570
  554BOLB   GL413288  19.190  24.690  21.620
  554BOLB   C1C13289  18.660  24.760  21.380
  554BOLB   C2C13290  18.470  24.830  21.060
  554BOLB   C3C13291  18.320  24.590  20.650
  554BOLB   C4C13292  18.060  24.300  20.570
  554BOLB   C1D13293  19.460  24.610  21.340
  554BOLB   C2D13294  19.650  24.440  21.100
  554BOLB   C3D13295  19.620  24.330  20.660
  554BOLB   C4D13296  19.700  24.500  20.230
  555BOLB   NC113297  16.000  23.190  18.880
  555BOLB   PO113298  15.870  23.300  18.410
  555BOLB   GL113299  15.970  23.690  18.580
  555BOLB   GL213300  16.310  23.720  18.630
  555BOLB   C1A13301  15.990  24.130  18.770
  555BOLB   C2A13302  16.090  24.420  19.000
  555BOLB   C3A13303  16.210  24.780  19.050
  555BOLB   C4A13304  16.170  25.160  19.300
  555BOLB   C1B13305  16.420  23.900  18.920
  555BOLB   C2B13306  16.520  24.200  19.230
  555BOLB   C3B13307  16.560  24.650  19.380
  555BOLB   C4B13308  16.560  25.000  19.550
  555BOLB   NC213309  16.000  26.540  21.330
  555BOLB   PO213310  15.580  26.320  21.300
  555BOLB   GL313311  15.550  25.960  20.920
  555BOLB   GL413312  15.520  25.550  21.100
  555BOLB   C1C13313  15.550  25.790  20.570
  555BOLB   C2C13314  15.600  25.330  20.380
  555BOLB   C3C13315  15.920  25.260  20.040
  555BOLB   C4C13316  15.870  25.290  19.620
  555BOLB   C1D13317  15.960  25.620  20.910
  555BOLB   C2D13318  16.090  25.480  20.510
  555BOLB   C3D13319  16.300  25.200  20.460
  555BOLB   C4D13320  16.420  25.040  20.070
  556BOLB   NC113321  16.750  16.080  20.500
  556BOLB   PO113322  16.440  16.020  20.870
  556BOLB   GL113323  16.580  16.380  21.140
  556BOLB   GL213324  16.340  16.450  21.390
  556BOLB   C1A13325  16.900  16.380  21.490
  556BOLB   C2A13326  17.000  16.270  21.870
  556BOLB   C3A13327  17.170  16.090  22.140
  556BOLB   C4A13328  17.450  15.930  22.400
  556BOLB   C1B13329  16.460  16.070  21.680
  556BOLB   C2B13330  16.510  15.660  21.710
  556BOLB   C3B13331  16.820  15.340  21.640
  556BOLB   C4B13332  16.800  15.120  21.940
  556BOLB   NC213333  18.770  16.570  24.430
  556BOLB   PO213334  19.100  16.180  24.390
  556BOLB   GL313335  18.980  16.050  23.880
  556BOLB   GL413336  19.120  16.170  23.630
  556BOLB   C1C13337  18.620  16.100  23.570
  556BOLB   C2C13338  18.310  16.240  23.250
  556BOLB   C3C13339  18.160  15.940  22.930
  556BOLB   C4C13340  17.800  15.780  22.630
  556BOLB   C1D13341  18.950  16.190  23.220
  556BOLB   C2D13342  18.760  16.280  22.830
  556BOLB   C3D13343  18.440  16.700  22.920
  556BOLB   C4D13344  18.050  16.730  22.620
  557BOLB   NC113345  20.170  10.920  14.550
  557BOLB   PO113346  20.310  10.600  14.280
  557BOLB   GL113347  20.390  10.220  14.480
  557BOLB   GL213348  20.370   9.980  14.270
  557BOLB   C1A13349  20.490  10.120  14.850
  557BOLB   C2A13350  20.570   9.670  15.080
  557BOLB   C3A13351  20.700   9.440  15.420
  557BOLB   C4A13352  20.670   9.060  15.630
  557BOLB   C1B13353  20.490   9.570  14.570
  557BOLB   C2B13354  20.640   9.270  14.790
  557BOLB   C3B13355  20.720   8.930  14.660
  557BOLB   C4B13356  20.370   8.750  14.530
  557BOLB   NC213357  20.400   7.270  17.200
  557BOLB   PO213358  20.560   7.140  16.760
  557BOLB   GL313359  20.610   7.580  16.780
  557BOLB   GL413360  20.490   7.790  17.090
  557BOLB   C1C13361  20.800   7.900  16.700
  557BOLB   C2C13362  20.640   8.250  16.520
  557BOLB   C3C13363  20.620   8.540  16.240
  557BOLB   C4C13364  20.650   8.860  16.000
  557BOLB   C1D13365  20.520   8.280  17.050
  557BOLB   C2D13366  20.500   8.740  16.880
  557BOLB   C3D13367  20.380   9.210  16.900
  557BOLB   C4D13368  20.130   9.380  16.670
  558BOLB   NC113369  20.960  16.060  17.880
  558BOLB   PO113370  20.990  15.580  17.980
  558BOLB   GL113371  21.300  15.410  18.290
  558BOLB   GL213372  21.200  15.730  18.510
  558BOLB   C1A13373  21.540  15.020  18.150
  558BOLB   C2A13374  21.920  14.900  18.080
  558BOLB   C3A13375  22.140  14.460  18.170
  558BOLB   C4A13376  22.450  14.350  18.500
  558BOLB   C1B13377  21.360  15.410  18.790
  558BOLB   C2B13378  21.780  15.210  19.010
  558BOLB   C3B13379  22.080  14.940  19.050
  558BOLB   C4B13380  22.450  15.120  19.180
  558BOLB   NC213381  23.640  14.170  20.340
  558BOLB   PO213382  23.310  13.750  20.430
  558BOLB   GL313383  23.070  13.870  20.090
  558BOLB   GL413384  23.260  13.840  19.830
  558BOLB   C1C13385  22.680  14.140  20.000
  558BOLB   C2C13386  22.450  14.210  19.600
  558BOLB   C3C13387  22.200  14.100  19.300
  558BOLB   C4C13388  22.330  14.090  18.830
  558BOLB   C1D13389  23.070  14.240  19.640
  558BOLB   C2D13390  22.790  14.640  19.810
  558BOLB   C3D13391  22.790  15.120  19.530
  558BOLB   C4D13392  22.790  15.540  19.300
  559BOLB   NC113393  23.060  14.150  10.470
  559BOLB   PO113394  23.350  14.060  10.150
  559BOLB   GL113395  23.750  13.920   9.990
  559BOLB   GL213396  23.960  14.200   9.860
  559BOLB   C1A13397  24.070  13.690  10.180
  559BOLB   C2A13398  24.420  13.580  10.060
  559BOLB   C3A13399  24.820  13.510   9.900
  559BOLB   C4A13400  25.220  13.740  10.010
  559BOLB   C1B13401  24.330  14.440   9.940
  559BOLB   C2B13402  24.740  14.250   9.880
  559BOLB   C3B13403  25.130  14.270   9.790
  559BOLB   C4B13404  25.320  13.950   9.490
  559BOLB   NC213405  27.700  12.560  10.170
  559BOLB   PO213406  27.290  12.470  10.380
  559BOLB   GL313407  27.060  12.800  10.370
  559BOLB   GL413408  26.960  12.780  10.680
  559BOLB   C1C13409  26.700  13.110  10.350
  559BOLB   C2C13410  26.500  13.400  10.110
  559BOLB   C3C13411  26.050  13.430  10.270
  559BOLB   C4C13412  25.650  13.590  10.100
  559BOLB   C1D13413  26.580  12.660  10.570
  559BOLB   C2D13414  26.300  12.980  10.570
  559BOLB   C3D13415  26.000  13.170  10.810
  559BOLB   C4D13416  25.610  13.270  10.940
  560BOLB   NC113417  19.220  22.150  18.250
  560BOLB   PO113418  19.610  21.890  18.280
  560BOLB   GL113419  19.870  21.740  18.570
  560BOLB   GL213420  19.850  22.110  18.710
  560BOLB   C1A13421  20.100  21.780  19.000
  560BOLB   C2A13422  20.280  21.820  19.370
  560BOLB   C3A13423  20.610  21.950  19.640
  560BOLB   C4A13424  20.910  21.960  19.930
  560BOLB   C1B13425  20.190  22.260  19.010
  560BOLB   C2B13426  20.320  22.330  19.340
  560BOLB   C3B13427  20.450  22.550  19.740
  560BOLB   C4B13428  20.570  22.340  20.020
  560BOLB   NC213429  22.110  23.030  21.590
  560BOLB   PO213430  22.410  22.640  21.590
  560BOLB   GL313431  21.930  22.560  21.390
  560BOLB   GL413432  21.790  22.210  21.490
  560BOLB   C1C13433  21.640  22.600  21.080
  560BOLB   C2C13434  21.380  22.470  20.830
  560BOLB   C3C13435  21.230  22.020  20.640
  560BOLB   C4C13436  20.970  21.860  20.310
  560BOLB   C1D13437  21.610  22.110  21.050
  560BOLB   C2D13438  21.840  22.170  20.540
  560BOLB   C3D13439  21.920  22.340  20.130
  560BOLB   C4D13440  21.700  22.090  19.750
  561BOLB   NC113441  18.260   9.160  11.510
  561BOLB   PO113442  18.710   9.080  11.460
  561BOLB   GL113443  18.480   8.720  11.620
  561BOLB   GL213444  18.410   8.490  11.460
  561BOLB   C1A13445  18.760   8.470  11.910
  561BOLB   C2A13446  18.700   8.200  12.230
  561BOLB   C3A13447  18.760   7.840  12.360
  561BOLB   C4A13448  18.590   7.550  12.700
  561BOLB   C1B13449  18.750   8.270  11.400
  561BOLB   C2B13450  18.750   7.930  11.600
  561BOLB   C3B13451  18.830   7.610  11.540
  561BOLB   C4B13452  18.940   7.410  11.180
  561BOLB   NC213453  20.300   5.820  13.560
  561BOLB   PO213454  20.210   5.640  13.130
  561BOLB   GL313455  19.980   6.030  13.160
  561BOLB   GL413456  20.200   6.220  13.320
  561BOLB   C1C13457  19.570   6.260  13.110
  561BOLB   C2C13458  19.220   6.650  13.290
  561BOLB   C3C13459  18.970   7.040  13.240
  561BOLB   C4C13460  18.730   7.420  13.040
  561BOLB   C1D13461  20.180   6.620  13.610
  561BOLB   C2D13462  19.980   6.980  13.670
  561BOLB   C3D13463  19.680   7.190  13.730
  561BOLB   C4D13464  19.330   7.490  13.720
  562BOLB   NC113465  11.450  15.980   5.830
  562BOLB   PO113466  11.320  15.660   5.600
  562BOLB   GL113467  11.100  15.700   5.200
  562BOLB   GL213468  11.350  15.810   4.960
  562BOLB   C1A13469  10.730  15.570   5.090
  562BOLB   C2A13470  10.530  15.600   4.730
  562BOLB   C3A13471  10.350  15.580   4.380
  562BOLB   C4A13472  10.020  15.750   4.130
  562BOLB   C1B13473  11.100  15.720   4.640
  562BOLB   C2B13474  10.830  15.450   4.330
  562BOLB   C3B13475  10.760  15.120   4.130
  562BOLB   C4B13476  10.880  14.850   4.030
  562BOLB   NC213477   9.370  15.720   1.760
  562BOLB   PO213478   8.980  15.440   2.080
  562BOLB   GL313479   9.220  15.500   2.480
  562BOLB   GL413480   9.060  15.830   2.750
  562BOLB   C1C13481   9.560  15.590   2.680
  562BOLB   C2C13482   9.560  15.850   2.960
  562BOLB   C3C13483   9.580  15.860   3.350
  562BOLB   C4C13484   9.800  15.750   3.740
  562BOLB   C1D13485   8.800  15.600   3.170
  562BOLB   C2D13486   9.120  15.430   3.540
  562BOLB   C3D13487   9.180  14.940   3.710
  562BOLB   C4D13488   9.310  14.530   3.800
  563BOLB   NC113489  23.410  21.540  10.490
  563BOLB   PO113490  23.330  22.000  10.590
  563BOLB   GL113491  23.530  22.200  10.350
  563BOLB   GL213492  23.350  22.600  10.180
  563BOLB   C1A13493  23.660  22.300   9.910
  563BOLB   C2A13494  24.060  22.460   9.660
  563BOLB   C3A13495  24.360  22.560   9.380
  563BOLB   C4A13496  24.640  22.470   9.090
  563BOLB   C1B13497  23.390  23.010  10.120
  563BOLB   C2B13498  23.750  23.320  10.010
  563BOLB   C3B13499  24.120  23.440   9.790
  563BOLB   C4B13500  24.520  23.420  10.040
  563BOLB   NC213501  26.270  24.140  10.010
  563BOLB   PO213502  26.430  23.830   9.640
  563BOLB   GL313503  25.970  23.840   9.650
  563BOLB   GL413504  25.750  24.060   9.870
  563BOLB   C1C13505  25.670  23.550   9.490
  563BOLB   C2C13506  25.230  23.360   9.560
  563BOLB   C3C13507  25.220  22.910   9.450
  563BOLB   C4C13508  24.920  22.750   9.190
  563BOLB   C1D13509  25.360  23.920   9.630
  563BOLB   C2D13510  24.950  23.920   9.930
  563BOLB   C3D13511  24.610  24.030  10.210
  563BOLB   C4D13512  24.440  23.780  10.560
  564BOLB   NC113513  21.940  23.000  14.070
  564BOLB   PO113514  21.530  23.280  14.040
  564BOLB   GL113515  21.900  23.620  14.160
  564BOLB   GL213516  21.760  23.820  14.430
  564BOLB   C1A13517  22.240  23.740  14.400
  564BOLB   C2A13518  22.530  24.000  14.560
  564BOLB   C3A13519  22.800  24.250  14.750
  564BOLB   C4A13520  23.190  24.380  14.940
  564BOLB   C1B13521  21.950  24.130  14.300
  564BOLB   C2B13522  22.280  24.350  14.330
  564BOLB   C3B13523  22.560  24.650  14.380
  564BOLB   C4B13524  23.040  24.820  14.610
  564BOLB   NC213525  24.660  26.820  14.670
  564BOLB   PO213526  24.380  26.680  14.860
  564BOLB   GL313527  24.100  26.450  14.930
  564BOLB   GL413528  24.000  26.300  15.230
  564BOLB   C1C13529  23.800  25.960  14.900
  564BOLB   C2C13530  23.610  25.510  15.050
  564BOLB   C3C13531  23.500  25.090  15.240
  564BOLB   C4C13532  23.450  24.630  15.120
  564BOLB   C1D13533  24.010  25.830  15.290
  564BOLB   C2D13534  23.800  25.500  15.560
  564BOLB   C3D13535  23.540  25.210  15.730
  564BOLB   C4D13536  23.100  24.910  15.650
  565BOLB   NC113537  17.700  22.110  19.330
  565BOLB   PO113538  17.780  22.270  18.890
  565BOLB   GL113539  17.860  22.580  19.180
  565BOLB   GL213540  18.120  22.420  19.450
  565BOLB   C1A13541  17.770  22.870  19.520
  565BOLB   C2A13542  17.720  23.240  19.550
  565BOLB   C3A13543  18.000  23.540  19.780
  565BOLB   C4A13544  18.270  23.660  20.070
  565BOLB   C1B13545  18.400  22.620  19.740
  565BOLB   C2B13546  18.860  22.870  19.710
  565BOLB   C3B13547  19.260  22.970  19.950
  565BOLB   C4B13548  19.330  23.120  20.280
  565BOLB   NC213549  18.180  24.990  22.440
  565BOLB   PO213550  18.080  24.680  22.090
  565BOLB   GL313551  18.090  24.480  21.740
  565BOLB   GL413552  17.800  24.610  21.580
  565BOLB   C1C13553  18.340  24.380  21.280
  565BOLB   C2C13554  18.550  24.330  21.000
  565BOLB   C3C13555  18.570  24.140  20.670
  565BOLB   C4C13556  18.400  23.970  20.390
  565BOLB   C1D13557  17.560  24.280  21.240
  565BOLB   C2D13558  17.600  24.110  20.860
  565BOLB   C3D13559  17.250  24.260  20.610
  565BOLB   C4D13560  16.780  24.410  20.650
  566BOLB   NC113561  21.160  19.660  17.390
  566BOLB   PO113562  21.480  19.780  17.650
  566BOLB   GL113563  21.940  20.050  17.730
  566BOLB   GL213564  21.970  19.780  17.870
  566BOLB   C1A13565  22.370  20.220  17.740
  566BOLB   C2A13566  22.730  20.000  17.770
  566BOLB   C3A13567  23.180  19.800  17.870
  566BOLB   C4A13568  23.480  19.580  18.110
  566BOLB   C1B13569  22.350  19.570  18.040
  566BOLB   C2B13570  22.480  19.370  18.380
  566BOLB   C3B13571  22.630  19.020  18.700
  566BOLB   C4B13572  22.640  18.950  19.110
  566BOLB   NC213573  25.730  19.530  19.290
  566BOLB   PO213574  25.590  19.360  18.910
  566BOLB   GL313575  25.250  19.330  18.770
  566BOLB   GL413576  25.180  19.070  18.880
  566BOLB   C1C13577  24.880  19.480  18.700
  566BOLB   C2C13578  24.440  19.610  18.620
  566BOLB   C3C13579  23.990  19.610  18.610
  566BOLB   C4C13580  23.570  19.540  18.410
  566BOLB   C1D13581  24.800  18.990  18.770
  566BOLB   C2D13582  24.510  19.090  18.470
  566BOLB   C3D13583  24.250  19.340  18.210
  566BOLB   C4D13584  23.860  19.170  18.310
  567BOLB   NC113585  23.560  13.050  10.480
  567BOLB   PO113586  23.270  12.930  10.080
  567BOLB   GL113587  23.640  12.830  10.000
  567BOLB   GL213588  23.740  12.560  10.250
  567BOLB   C1A13589  23.810  12.380   9.820
  567BOLB   C2A13590  23.710  12.010   9.680
  567BOLB   C3A13591  23.630  11.820   9.300
  567BOLB   C4A13592  23.810  11.550   9.110
  567BOLB   C1B13593  24.130  12.780  10.140
  567BOLB   C2B13594  24.390  12.490   9.830
  567BOLB   C3B13595  24.280  12.390   9.450
  567BOLB   C4B13596  24.270  12.530   8.980
  567BOLB   NC213597  25.690  10.520   7.570
  567BOLB   PO213598  25.810  10.560   8.010
  567BOLB   GL313599  25.550  10.770   8.350
  567BOLB   GL413600  25.540  11.120   8.210
  567BOLB   C1C13601  25.190  10.870   8.660
  567BOLB   C2C13602  24.770  10.910   8.760
  567BOLB   C3C13603  24.460  11.160   8.640
  567BOLB   C4C13604  24.090  11.240   8.920
  567BOLB   C1D13605  25.120  11.160   8.260
  567BOLB   C2D13606  24.850  11.410   8.450
  567BOLB   C3D13607  24.600  11.660   8.700
  567BOLB   C4D13608  24.500  12.080   8.720
  568BOLB   NC113609  12.450  15.130  27.850
  568BOLB   PO113610  12.780  15.120  28.280
  568BOLB   GL113611  12.950  15.140  27.860
  568BOLB   GL213612  13.280  15.080  27.840
  568BOLB   C1A13613  12.960  15.000  27.460
  568BOLB   C2A13614  13.380  14.950  27.240
  568BOLB   C3A13615  13.770  14.960  27.140
  568BOLB   C4A13616  13.940  14.730  26.730
  568BOLB   C1B13617  13.570  14.800  27.700
  568BOLB   C2B13618  13.860  14.540  27.470
  568BOLB   C3B13619  13.970  14.370  27.060
  568BOLB   C4B13620  13.960  14.040  26.980
  568BOLB   NC213621  14.100  14.220  28.470
  568BOLB   PO213622  13.980  14.410  28.100
  568BOLB   GL313623  14.210  14.110  27.880
  568BOLB   GL413624  14.110  13.750  27.830
  568BOLB   C1C13625  14.260  14.050  27.480
  568BOLB   C2C13626  14.450  14.090  27.060
  568BOLB   C3C13627  14.540  14.220  26.670
  568BOLB   C4C13628  14.140  14.420  26.590
  568BOLB   C1D13629  13.780  13.850  27.570
  568BOLB   C2D13630  13.640  13.730  27.260
  568BOLB   C3D13631  13.830  13.540  26.850
  568BOLB   C4D13632  13.700  13.600  26.460
  569BOLB   NC113633  19.180  12.700  17.500
  569BOLB   PO113634  19.280  12.360  17.260
  569BOLB   GL113635  19.580  12.390  17.570
  569BOLB   GL213636  19.840  12.130  17.350
  569BOLB   C1A13637  19.780  12.310  17.940
  569BOLB   C2A13638  19.980  12.120  18.230
  569BOLB   C3A13639  20.030  11.830  18.460
  569BOLB   C4A13640  20.140  11.620  18.870
  569BOLB   C1B13641  20.080  11.780  17.660
  569BOLB   C2B13642  20.160  11.440  17.980
  569BOLB   C3B13643  20.480  11.380  18.250
  569BOLB   C4B13644  20.770  11.080  18.360
  569BOLB   NC213645  21.410  10.730  21.230
  569BOLB   PO213646  20.970  10.750  21.020
  569BOLB   GL313647  20.980  11.080  20.640
  569BOLB   GL413648  20.620  10.960  20.660
  569BOLB   C1C13649  20.870  11.260  20.300
  569BOLB   C2C13650  20.440  11.250  20.150
  569BOLB   C3C13651  20.260  11.450  19.740
  569BOLB   C4C13652  20.200  11.520  19.300
  569BOLB   C1D13653  20.420  11.330  20.760
  569BOLB   C2D13654  20.080  11.490  20.520
  569BOLB   C3D13655  19.930  11.830  20.570
  569BOLB   C4D13656  19.830  12.300  20.790
  570BOLB   NC113657  20.510  23.840  15.570
  570BOLB   PO113658  20.610  23.990  15.200
  570BOLB   GL113659  20.980  24.200  15.600
  570BOLB   GL213660  20.940  24.470  15.710
  570BOLB   C1A13661  21.190  24.260  16.030
  570BOLB   C2A13662  21.320  24.430  16.410
  570BOLB   C3A13663  21.430  24.880  16.470
  570BOLB   C4A13664  21.540  25.270  16.490
  570BOLB   C1B13665  21.260  24.720  15.790
  570BOLB   C2B13666  21.530  24.900  15.970
  570BOLB   C3B13667  21.850  25.110  16.100
  570BOLB   C4B13668  22.170  25.350  15.800
  570BOLB   NC213669  23.370  27.140  16.250
  570BOLB   PO213670  23.340  26.830  16.630
  570BOLB   GL313671  22.950  26.650  16.600
  570BOLB   GL413672  22.680  26.610  16.890
  570BOLB   C1C13673  22.570  26.560  16.340
  570BOLB   C2C13674  22.250  26.340  16.190
  570BOLB   C3C13675  21.920  25.990  16.160
  570BOLB   C4C13676  21.860  25.620  16.340
  570BOLB   C1D13677  22.280  26.560  16.780
  570BOLB   C2D13678  21.930  26.650  16.440
  570BOLB   C3D13679  21.640  26.440  16.070
  570BOLB   C4D13680  21.490  26.690  15.670
  571BOLB   NC113681  19.870  13.690  17.650
  571BOLB   PO113682  19.830  13.220  17.540
  571BOLB   GL113683  20.050  12.900  17.870
  571BOLB   GL213684  19.870  12.930  18.170
  571BOLB   C1A13685  20.380  12.840  18.140
  571BOLB   C2A13686  20.690  12.620  18.260
  571BOLB   C3A13687  20.800  12.450  18.510
  571BOLB   C4A13688  20.780  12.290  18.950
  571BOLB   C1B13689  20.020  12.710  18.450
  571BOLB   C2B13690  20.320  12.540  18.600
  571BOLB   C3B13691  20.320  12.200  18.780
  571BOLB   C4B13692  20.070  12.050  19.130
  571BOLB   NC213693  22.300  11.680  20.940
  571BOLB   PO213694  22.250  12.100  20.770
  571BOLB   GL313695  21.930  12.030  20.590
  571BOLB   GL413696  21.650  12.030  20.730
  571BOLB   C1C13697  21.670  12.350  20.360
  571BOLB   C2C13698  21.370  12.290  19.970
  571BOLB   C3C13699  21.150  12.310  19.630
  571BOLB   C4C13700  20.930  12.160  19.310
  571BOLB   C1D13701  21.350  12.020  20.490
  571BOLB   C2D13702  21.040  11.940  20.140
  571BOLB   C3D13703  20.770  12.000  19.780
  571BOLB   C4D13704  20.320  11.950  19.670
  572BOLB   NC113705  20.750  11.520  13.350
  572BOLB   PO113706  21.010  11.340  13.130
  572BOLB   GL113707  21.180  10.920  13.230
  572BOLB   GL213708  21.220  10.720  13.580
  572BOLB   C1A13709  21.680  10.810  13.220
  572BOLB   C2A13710  22.000  10.450  13.350
  572BOLB   C3A13711  22.360  10.230  13.580
  572BOLB   C4A13712  22.720   9.950  13.740
  572BOLB   C1B13713  21.410  10.770  13.980
  572BOLB   C2B13714  21.700  10.610  14.230
  572BOLB   C3B13715  21.930  10.260  14.440
  572BOLB   C4B13716  22.350  10.020  14.570
  572BOLB   NC213717  24.550   8.090  13.580
  572BOLB   PO213718  24.720   8.590  13.600
  572BOLB   GL313719  24.500   8.850  13.920
  572BOLB   GL413720  24.640   9.080  13.990
  572BOLB   C1C13721  24.030   8.860  13.780
  572BOLB   C2C13722  23.570   9.120  13.800
  572BOLB   C3C13723  23.140   9.160  13.720
  572BOLB   C4C13724  22.930   9.540  13.810
  572BOLB   C1D13725  24.230   9.290  13.850
  572BOLB   C2D13726  23.900   9.500  13.520
  572BOLB   C3D13727  23.490   9.550  13.530
  572BOLB   C4D13728  23.270   9.870  13.860
  573BOLB   NC113729  19.740  22.300  17.950
  573BOLB   PO113730  19.920  22.000  17.740
  573BOLB   GL113731  20.240  22.200  18.160
  573BOLB   GL213732  20.050  22.350  18.330
  573BOLB   C1A13733  20.590  22.310  18.540
  573BOLB   C2A13734  20.680  22.460  18.810
  573BOLB   C3A13735  20.890  22.610  19.170
  573BOLB   C4A13736  20.930  22.590  19.670
  573BOLB   C1B13737  20.230  22.710  18.600
  573BOLB   C2B13738  20.560  22.990  18.860
  573BOLB   C3B13739  20.650  23.460  19.070
  573BOLB   C4B13740  20.960  23.470  19.380
  573BOLB   NC213741  22.490  23.910  21.220
  573BOLB   PO213742  22.360  23.530  21.410
  573BOLB   GL313743  22.110  23.290  21.000
  573BOLB   GL413744  21.820  23.570  20.930
  573BOLB   C1C13745  21.920  22.970  20.840
  573BOLB   C2C13746  21.750  22.660  20.470
  573BOLB   C3C13747  21.450  22.360  20.320
  573BOLB   C4C13748  21.110  22.360  20.100
  573BOLB   C1D13749  21.510  23.700  20.590
  573BOLB   C2D13750  21.200  23.990  20.660
  573BOLB   C3D13751  21.010  24.300  20.370
  573BOLB   C4D13752  20.660  24.530  20.060
  574BOLB   NC113753  18.800  11.990  16.960
  574BOLB   PO113754  18.460  11.950  17.280
  574BOLB   GL113755  18.720  11.620  17.270
  574BOLB   GL213756  19.010  11.830  17.340
  574BOLB   C1A13757  19.140  11.350  17.350
  574BOLB   C2A13758  19.500  11.130  17.460
  574BOLB   C3A13759  19.400  10.660  17.490
  574BOLB   C4A13760  19.540  10.320  17.560
  574BOLB   C1B13761  19.030  11.640  17.720
  574BOLB   C2B13762  19.320  11.310  18.070
  574BOLB   C3B13763  19.210  11.100  18.280
  574BOLB   C4B13764  19.020  10.820  18.520
  574BOLB   NC213765  20.400   8.640  19.220
  574BOLB   PO213766  20.320   8.390  18.920
  574BOLB   GL313767  20.310   8.720  18.720
  574BOLB   GL413768  20.260   8.600  18.380
  574BOLB   C1C13769  19.990   9.090  18.700
  574BOLB   C2C13770  19.840   9.450  18.540
  574BOLB   C3C13771  19.740   9.690  18.130
  574BOLB   C4C13772  19.680   9.930  17.750
  574BOLB   C1D13773  19.820   8.620  18.370
  574BOLB   C2D13774  19.530   8.850  18.090
  574BOLB   C3D13775  19.510   8.780  17.690
  574BOLB   C4D13776  19.160   8.750  17.430
  575BOLB   NC113777  23.030  21.560  13.500
  575BOLB   PO113778  23.180  21.240  13.400
  575BOLB   GL113779  23.550  21.330  13.640
  575BOLB   GL213780  23.650  21.100  13.390
  575BOLB   C1A13781  24.000  21.240  13.800
  575BOLB   C2A13782  24.400  21.210  13.900
  575BOLB   C3A13783  24.650  20.970  14.320
  575BOLB   C4A13784  24.600  21.060  14.720
  575BOLB   C1B13785  24.130  21.310  13.350
  575BOLB   C2B13786  24.440  21.590  13.540
  575BOLB   C3B13787  24.870  21.430  13.660
  575BOLB   C4B13788  25.070  21.660  14.060
  575BOLB   NC213789  27.090  21.930  15.570
  575BOLB   PO213790  26.690  22.010  15.740
  575BOLB   GL313791  26.350  21.860  15.760
  575BOLB   GL413792  26.120  22.180  15.730
  575BOLB   C1C13793  25.910  21.650  15.680
  575BOLB   C2C13794  25.520  21.490  15.610
  575BOLB   C3C13795  25.120  21.340  15.350
  575BOLB   C4C13796  24.850  21.110  15.050
  575BOLB   C1D13797  25.990  22.160  15.350
  575BOLB   C2D13798  25.580  22.110  15.130
  575BOLB   C3D13799  25.240  22.060  14.890
  575BOLB   C4D13800  24.750  22.200  14.870
  576BOLB   NC113801  19.640  23.520  16.160
  576BOLB   PO113802  19.670  23.940  16.330
  576BOLB   GL113803  19.770  24.380  16.500
  576BOLB   GL213804  19.600  24.600  16.720
  576BOLB   C1A13805  20.060  24.500  16.760
  576BOLB   C2A13806  20.370  24.670  16.990
  576BOLB   C3A13807  20.590  24.870  17.190
  576BOLB   C4A13808  21.000  24.990  17.430
  576BOLB   C1B13809  19.760  25.020  16.760
  576BOLB   C2B13810  20.060  25.190  16.870
  576BOLB   C3B13811  20.520  25.250  16.840
  576BOLB   C4B13812  20.680  25.710  16.830
  576BOLB   NC213813  21.430  26.920  19.470
  576BOLB   PO213814  21.510  26.470  19.270
  576BOLB   GL313815  21.330  26.310  18.950
  576BOLB   GL413816  21.110  26.420  18.690
  576BOLB   C1C13817  21.470  26.020  18.620
  576BOLB   C2C13818  21.180  25.690  18.490
  576BOLB   C3C13819  21.040  25.630  18.110
  576BOLB   C4C13820  21.020  25.200  17.850
  576BOLB   C1D13821  20.740  26.190  18.690
  576BOLB   C2D13822  20.740  25.890  18.390
  576BOLB   C3D13823  20.480  25.580  18.110
  576BOLB   C4D13824  20.550  25.290  17.840
  577BOLB   NC113825  19.450  23.330   8.460
  577BOLB   PO113826  19.390  23.160   8.120
  577BOLB   GL113827  19.520  23.530   7.960
  577BOLB   GL213828  19.560  23.770   8.210
  577BOLB   C1A13829  19.370  23.820   7.620
  577BOLB   C2A13830  19.430  24.050   7.240
  577BOLB   C3A13831  19.370  24.410   7.070
  577BOLB   C4A13832  19.500  24.810   6.870
  577BOLB   C1B13833  19.710  24.110   7.890
  577BOLB   C2B13834  19.840  24.270   7.410
  577BOLB   C3B13835  19.920  24.610   7.070
  577BOLB   C4B13836  20.240  24.850   7.100
  577BOLB   NC213837  19.180  26.590   5.510
  577BOLB   PO213838  19.370  26.410   5.170
  577BOLB   GL313839  19.220  25.970   5.430
  577BOLB   GL413840  19.520  25.880   5.630
  577BOLB   C1C13841  19.070  25.750   5.790
  577BOLB   C2C13842  19.050  25.450   5.900
  577BOLB   C3C13843  19.190  25.190   6.210
  577BOLB   C4C13844  19.440  24.940   6.410
  577BOLB   C1D13845  19.540  25.820   5.950
  577BOLB   C2D13846  19.230  25.910   6.420
  577BOLB   C3D13847  19.180  25.590   6.700
  577BOLB   C4D13848  19.470  25.270   6.850
  578BOLB   NC113849  22.490  11.980  10.500
  578BOLB   PO113850  22.540  12.390  10.420
  578BOLB   GL113851  22.900  12.170  10.220
  578BOLB   GL213852  22.980  11.980  10.600
  578BOLB   C1A13853  23.360  12.170  10.130
  578BOLB   C2A13854  23.720  12.070  10.200
  578BOLB   C3A13855  24.050  11.780  10.350
  578BOLB   C4A13856  24.360  11.520  10.590
  578BOLB   C1B13857  23.130  11.690  10.290
  578BOLB   C2B13858  23.250  11.240  10.250
  578BOLB   C3B13859  23.440  10.870  10.040
  578BOLB   C4B13860  23.830  10.770  10.260
  578BOLB   NC213861  26.100   9.800  10.410
  578BOLB   PO213862  25.910   9.630  10.780
  578BOLB   GL313863  25.610   9.880  11.040
  578BOLB   GL413864  25.750   9.810  11.410
  578BOLB   C1C13865  25.300  10.050  10.800
  578BOLB   C2C13866  25.100  10.440  10.610
  578BOLB   C3C13867  24.900  10.900  10.520
  578BOLB   C4C13868  24.670  11.240  10.740
  578BOLB   C1D13869  25.550  10.080  11.670
  578BOLB   C2D13870  25.420  10.570  11.670
  578BOLB   C3D13871  25.180  10.940  11.570
  578BOLB   C4D13872  24.850  11.200  11.810
  579BOLB   NC113873  20.100  15.170  17.760
  579BOLB   PO113874  20.550  15.190  17.630
  579BOLB   GL113875  20.800  14.870  17.910
  579BOLB   GL213876  21.020  15.040  18.050
  579BOLB   C1A13877  20.670  14.820  18.320
  579BOLB   C2A13878  20.630  14.930  18.750
  579BOLB   C3A13879  20.860  14.780  19.040
  579BOLB   C4A13880  21.080  14.550  19.360
  579BOLB   C1B13881  21.210  14.640  17.950
  579BOLB   C2B13882  21.520  14.530  18.060
  579BOLB   C3B13883  21.690  14.440  18.470
  579BOLB   C4B13884  21.860  14.210  18.790
  579BOLB   NC213885  22.260  13.640  21.470
  579BOLB   PO213886  21.940  13.350  21.540
  579BOLB   GL313887  21.750  13.680  21.260
  579BOLB   GL413888  22.070  13.780  21.080
  579BOLB   C1C13889  21.600  13.810  20.780
  579BOLB   C2C13890  21.630  14.040  20.350
  579BOLB   C3C13891  21.700  14.280  19.950
  579BOLB   C4C13892  21.450  14.430  19.650
  579BOLB   C1D13893  22.040  14.000  20.750
  579BOLB   C2D13894  22.110  13.990  20.250
  579BOLB   C3D13895  22.210  14.370  20.060
  579BOLB   C4D13896  22.050  14.470  19.670
  580BOLB   NC113897  23.780  15.060   9.920
  580BOLB   PO113898  23.970  15.380   9.710
  580BOLB   GL113899  24.260  15.050   9.610
  580BOLB   GL213900  24.090  14.830   9.480
  580BOLB   C1A13901  24.620  14.820   9.440
  580BOLB   C2A13902  24.750  14.340   9.400
  580BOLB   C3A13903  25.070  14.270   9.180
  580BOLB   C4A13904  25.440  14.160   9.010
  580BOLB   C1B13905  24.270  14.460   9.260
  580BOLB   C2B13906  24.690  14.570   8.880
  580BOLB   C3B13907  25.080  14.690   8.960
  580BOLB   C4B13908  25.470  14.630   8.850
  580BOLB   NC213909  27.630  14.560   8.220
  580BOLB   PO213910  27.690  14.240   8.490
  580BOLB   GL313911  27.360  14.400   8.820
  580BOLB   GL413912  27.340  14.760   8.680
  580BOLB   C1C13913  26.910  14.550   8.780
  580BOLB   C2C13914  26.530  14.630   9.080
  580BOLB   C3C13915  26.230  14.390   9.120
  580BOLB   C4C13916  25.930  14.130   9.010
  580BOLB   C1D13917  26.850  15.000   8.780
  580BOLB   C2D13918  26.480  15.150   8.890
  580BOLB   C3D13919  26.120  15.230   9.110
  580BOLB   C4D13920  25.790  15.240   9.350
  581BOLB   NC113921  23.190  21.550   9.720
  581BOLB   PO113922  23.240  21.880  10.110
  581BOLB   GL113923  23.650  21.770   9.830
  581BOLB   GL213924  23.690  21.500   9.610
  581BOLB   C1A13925  23.910  21.960   9.570
  581BOLB   C2A13926  24.100  22.120   9.190
  581BOLB   C3A13927  24.140  22.390   8.830
  581BOLB   C4A13928  24.410  22.760   8.660
  581BOLB   C1B13929  24.090  21.520   9.790
  581BOLB   C2B13930  24.390  21.780   9.780
  581BOLB   C3B13931  24.520  22.170   9.610
  581BOLB   C4B13932  24.960  22.320   9.430
  581BOLB   NC213933  26.270  23.950   9.190
  581BOLB   PO213934  26.100  24.290   9.530
  581BOLB   GL313935  25.770  24.180   9.250
  581BOLB   GL413936  25.480  24.390   9.320
  581BOLB   C1C13937  25.430  23.920   9.060
  581BOLB   C2C13938  25.350  23.350   9.060
  581BOLB   C3C13939  25.160  23.000   8.820
  581BOLB   C4C13940  24.820  22.800   8.700
  581BOLB   C1D13941  25.090  24.260   9.390
  581BOLB   C2D13942  24.950  23.920   9.380
  581BOLB   C3D13943  24.780  23.530   9.640
  581BOLB   C4D13944  24.800  23.080   9.700
  582BOLB   NC113945   7.870   6.120  12.650
  582BOLB   PO113946   7.570   6.380  12.790
  582BOLB   GL113947   7.840   6.550  12.990
  582BOLB   GL213948   7.970   6.690  12.790
  582BOLB   C1A13949   7.870   6.840  13.450
  582BOLB   C2A13950   8.250   7.010  13.700
  582BOLB   C3A13951   8.670   7.260  13.550
  582BOLB   C4A13952   8.880   7.490  13.330
  582BOLB   C1B13953   8.150   7.120  12.670
  582BOLB   C2B13954   8.230   7.480  12.850
  582BOLB   C3B13955   8.540   7.740  13.090
  582BOLB   C4B13956   8.750   7.990  13.250
  582BOLB   NC213957   7.220   6.900  11.160
  582BOLB   PO213958   7.510   7.220  11.410
  582BOLB   GL313959   7.720   7.220  11.830
  582BOLB   GL413960   7.610   7.410  11.990
  582BOLB   C1C13961   8.100   7.370  12.120
  582BOLB   C2C13962   8.450   7.370  12.340
  582BOLB   C3C13963   8.680   7.350  12.680
  582BOLB   C4C13964   8.940   7.540  12.920
  582BOLB   C1D13965   7.770   7.820  11.880
  582BOLB   C2D13966   8.110   8.070  11.860
  582BOLB   C3D13967   8.450   7.840  11.990
  582BOLB   C4D13968   8.820   7.920  12.050
  583BOLB   NC113969  23.900  15.120  10.950
  583BOLB   PO113970  23.990  14.770  11.320
  583BOLB   GL113971  24.330  14.720  11.630
  583BOLB   GL213972  24.330  14.470  11.840
  583BOLB   C1A13973  24.830  14.590  11.600
  583BOLB   C2A13974  24.950  14.470  12.050
  583BOLB   C3A13975  25.230  14.170  12.010
  583BOLB   C4A13976  25.390  13.800  12.190
  583BOLB   C1B13977  24.640  14.190  11.790
  583BOLB   C2B13978  24.880  13.800  11.960
  583BOLB   C3B13979  24.770  13.480  12.160
  583BOLB   C4B13980  24.450  13.310  12.110
  583BOLB   NC213981  27.320  12.320  11.670
  583BOLB   PO213982  27.290  12.740  11.440
  583BOLB   GL313983  26.800  12.630  11.430
  583BOLB   GL413984  26.630  12.590  11.180
  583BOLB   C1C13985  26.360  12.640  11.590
  583BOLB   C2C13986  26.190  12.910  11.900
  583BOLB   C3C13987  25.720  13.120  11.890
  583BOLB   C4C13988  25.670  13.470  11.990
  583BOLB   C1D13989  26.180  12.640  11.110
  583BOLB   C2D13990  25.730  12.720  10.930
  583BOLB   C3D13991  25.350  12.910  10.790
  583BOLB   C4D13992  25.070  13.280  10.780
  584BOLB   NC113993  17.450  19.220  20.550
  584BOLB   PO113994  17.450  18.840  20.640
  584BOLB   GL113995  17.640  18.760  20.970
  584BOLB   GL213996  17.950  19.080  20.940
  584BOLB   C1A13997  17.640  18.820  21.310
  584BOLB   C2A13998  17.800  18.770  21.730
  584BOLB   C3A13999  18.000  18.760  22.140
  584BOLB   C4A14000  18.420  18.760  22.370
  584BOLB   C1B14001  18.120  19.010  21.400
  584BOLB   C2B14002  18.400  18.900  21.840
  584BOLB   C3B14003  18.750  18.580  22.060
  584BOLB   C4B14004  19.120  18.340  21.860
  584BOLB   NC214005  19.930  19.540  24.490
  584BOLB   PO214006  19.660  19.490  24.250
  584BOLB   GL314007  19.350  19.380  23.950
  584BOLB   GL414008  19.350  19.690  23.750
  584BOLB   C1C14009  19.320  19.210  23.520
  584BOLB   C2C14010  19.180  19.060  23.170
  584BOLB   C3C14011  19.250  18.930  22.790
  584BOLB   C4C14012  18.860  18.930  22.440
  584BOLB   C1D14013  19.240  19.750  23.320
  584BOLB   C2D14014  19.020  19.820  22.880
  584BOLB   C3D14015  18.780  19.870  22.510
  584BOLB   C4D14016  18.950  19.940  22.130
  585BOLB   NC114017  14.050  24.770  15.760
  585BOLB   PO114018  14.360  25.030  15.610
  585BOLB   GL114019  14.250  25.350  15.850
  585BOLB   GL214020  14.370  25.690  15.780
  585BOLB   C1A14021  14.070  25.510  16.240
  585BOLB   C2A14022  14.040  25.900  16.400
  585BOLB   C3A14023  13.870  26.110  16.750
  585BOLB   C4A14024  13.630  26.480  16.880
  585BOLB   C1B14025  14.490  25.880  16.210
  585BOLB   C2B14026  14.440  26.150  16.580
  585BOLB   C3B14027  14.340  26.310  16.910
  585BOLB   C4B14028  14.340  26.650  17.140
  585BOLB   NC214029  13.540  28.200  18.460
  585BOLB   PO214030  13.030  28.180  18.480
  585BOLB   GL314031  13.190  27.790  18.360
  585BOLB   GL414032  13.420  27.690  18.660
  585BOLB   C1C14033  13.220  27.470  17.980
  585BOLB   C2C14034  13.090  26.990  17.900
  585BOLB   C3C14035  13.140  26.760  17.470
  585BOLB   C4C14036  13.360  26.620  17.150
  585BOLB   C1D14037  13.150  27.340  18.590
  585BOLB   C2D14038  13.040  26.890  18.570
  585BOLB   C3D14039  12.810  26.470  18.580
  585BOLB   C4D14040  12.620  26.300  18.290
  586BOLB   NC114041  22.420  14.600  14.620
  586BOLB   PO114042  22.250  14.600  14.980
  586BOLB   GL114043  22.760  14.350  14.960
  586BOLB   GL214044  22.840  14.610  14.750
  586BOLB   C1A14045  23.070  14.080  14.940
  586BOLB   C2A14046  23.290  13.810  15.160
  586BOLB   C3A14047  23.630  13.750  15.340
  586BOLB   C4A14048  24.090  13.580  15.540
  586BOLB   C1B14049  23.170  14.600  14.960
  586BOLB   C2B14050  23.530  14.260  15.120
  586BOLB   C3B14051  23.920  14.290  15.370
  586BOLB   C4B14052  24.200  14.070  15.650
  586BOLB   NC214053  25.700  13.220  17.610
  586BOLB   PO214054  26.090  13.450  17.290
  586BOLB   GL314055  25.690  13.450  17.080
  586BOLB   GL414056  25.450  13.570  17.220
  586BOLB   C1C14057  25.380  13.380  16.740
  586BOLB   C2C14058  25.130  13.520  16.450
  586BOLB   C3C14059  24.820  13.600  16.210
  586BOLB   C4C14060  24.480  13.610  15.820
  586BOLB   C1D14061  25.100  13.810  17.220
  586BOLB   C2D14062  24.980  14.200  17.020
  586BOLB   C3D14063  24.890  14.640  16.960
  586BOLB   C4D14064  25.100  15.070  17.120
  587BOLB   NC114065  21.310  14.200  16.740
  587BOLB   PO114066  21.670  14.240  16.510
  587BOLB   GL114067  21.820  13.930  16.810
  587BOLB   GL214068  21.690  13.820  17.030
  587BOLB   C1A14069  22.160  13.870  17.060
  587BOLB   C2A14070  22.590  13.780  17.300
  587BOLB   C3A14071  23.030  13.850  17.340
  587BOLB   C4A14072  23.450  13.870  17.650
  587BOLB   C1B14073  21.850  13.430  17.070
  587BOLB   C2B14074  22.300  13.390  17.220
  587BOLB   C3B14075  22.440  13.010  17.420
  587BOLB   C4B14076  22.630  12.770  17.700
  587BOLB   NC214077  24.970  13.430  19.080
  587BOLB   PO214078  24.660  13.550  19.350
  587BOLB   GL314079  24.420  13.800  19.220
  587BOLB   GL414080  24.120  13.680  19.350
  587BOLB   C1C14081  24.000  13.980  19.000
  587BOLB   C2C14082  23.610  14.030  18.840
  587BOLB   C3C14083  23.420  14.050  18.500
  587BOLB   C4C14084  23.380  13.940  18.100
  587BOLB   C1D14085  23.910  13.470  19.040
  587BOLB   C2D14086  23.650  13.370  18.760
  587BOLB   C3D14087  23.630  13.540  18.400
  587BOLB   C4D14088  23.310  13.390  18.070
  588BOLB   NC114089  18.190  15.100   4.930
  588BOLB   PO114090  18.130  14.890   4.550
  588BOLB   GL114091  18.230  14.450   4.480
  588BOLB   GL214092  18.080  14.390   4.360
  588BOLB   C1A14093  18.650  14.250   4.300
  588BOLB   C2A14094  19.020  14.150   4.020
  588BOLB   C3A14095  19.320  13.930   3.780
  588BOLB   C4A14096  19.340  14.100   3.300
  588BOLB   C1B14097  17.990  14.370   3.920
  588BOLB   C2B14098  18.210  14.160   3.500
  588BOLB   C3B14099  18.150  13.840   3.340
  588BOLB   C4B14100  18.420  13.580   3.090
  588BOLB   NC214101  19.640  12.120   1.740
  588BOLB   PO214102  19.940  12.460   1.450
  588BOLB   GL314103  19.880  12.850   1.690
  588BOLB   GL414104  20.130  12.870   2.000
  588BOLB   C1C14105  19.820  13.350   1.830
  588BOLB   C2C14106  19.840  13.550   2.220
  588BOLB   C3C14107  19.780  13.870   2.690
  588BOLB   C4C14108  19.710  14.070   3.060
  588BOLB   C1D14109  19.760  13.050   2.220
  588BOLB   C2D14110  19.660  13.220   2.610
  588BOLB   C3D14111  19.640  13.480   2.980
  588BOLB   C4D14112  19.580  13.640   3.310
  589BOLB   NC114113  22.940  16.790  14.540
  589BOLB   PO114114  23.360  16.830  14.320
  589BOLB   GL114115  23.810  16.660  14.440
  589BOLB   GL214116  23.770  16.630  14.740
  589BOLB   C1A14117  24.230  16.850  14.590
  589BOLB   C2A14118  24.620  17.070  14.930
  589BOLB   C3A14119  24.980  17.290  15.090
  589BOLB   C4A14120  25.270  17.360  15.430
  589BOLB   C1B14121  24.060  16.390  14.880
  589BOLB   C2B14122  24.250  16.250  15.180
  589BOLB   C3B14123  24.460  15.960  15.540
  589BOLB   C4B14124  24.740  15.920  15.640
  589BOLB   NC214125  26.910  16.410  16.580
  589BOLB   PO214126  27.270  16.350  16.220
  589BOLB   GL314127  26.930  16.350  16.060
  589BOLB   GL414128  26.660  16.530  16.180
  589BOLB   C1C14129  26.560  16.280  15.780
  589BOLB   C2C14130  26.190  16.370  15.850
  589BOLB   C3C14131  25.880  16.700  15.690
  589BOLB   C4C14132  25.550  17.060  15.590
  589BOLB   C1D14133  26.570  16.770  15.780
  589BOLB   C2D14134  26.230  16.860  15.410
  589BOLB   C3D14135  25.800  16.820  15.220
  589BOLB   C4D14136  25.470  17.050  15.060
  590BOLB   NC114137  23.440  21.190  11.180
  590BOLB   PO114138  23.390  21.110  10.780
  590BOLB   GL114139  23.790  21.280  10.810
  590BOLB   GL214140  23.920  21.070  11.060
  590BOLB   C1A14141  24.130  21.580  10.710
  590BOLB   C2A14142  24.360  21.910  10.600
  590BOLB   C3A14143  24.730  22.100  10.620
  590BOLB   C4A14144  25.040  22.190  11.000
  590BOLB   C1B14145  24.280  21.270  11.050
  590BOLB   C2B14146  24.460  21.590  11.040
  590BOLB   C3B14147  24.500  21.980  11.080
  590BOLB   C4B14148  24.410  22.340  10.910
  590BOLB   NC214149  27.560  22.330  10.080
  590BOLB   PO214150  27.150  22.240  10.240
  590BOLB   GL314151  26.760  22.090  10.310
  590BOLB   GL414152  26.670  21.830  10.160
  590BOLB   C1C14153  26.450  22.000  10.550
  590BOLB   C2C14154  26.090  22.110  10.730
  590BOLB   C3C14155  25.800  22.250  10.810
  590BOLB   C4C14156  25.460  22.230  11.000
  590BOLB   C1D14157  26.200  21.710  10.080
  590BOLB   C2D14158  25.800  21.750   9.940
  590BOLB   C3D14159  25.490  21.760  10.180
  590BOLB   C4D14160  25.070  22.010  10.260
  591BOLB   NC114161  19.240  13.860   5.000
  591BOLB   PO114162  19.630  13.870   5.260
  591BOLB   GL114163  19.800  13.890   4.900
  591BOLB   GL214164  19.660  13.730   4.680
  591BOLB   C1A14165  20.100  14.060   4.580
  591BOLB   C2A14166  20.120  14.210   4.180
  591BOLB   C3A14167  20.270  14.360   3.850
  591BOLB   C4A14168  20.570  14.130   3.650
  591BOLB   C1B14169  20.030  13.580   4.450
  591BOLB   C2B14170  20.330  13.690   4.250
  591BOLB   C3B14171  20.710  13.910   4.100
  591BOLB   C4B14172  21.050  14.110   3.840
  591BOLB   NC214173  22.330  13.310   2.000
  591BOLB   PO214174  21.950  13.420   1.800
  591BOLB   GL314175  21.650  13.790   1.870
  591BOLB   GL414176  21.450  13.850   1.630
  591BOLB   C1C14177  21.460  13.900   2.230
  591BOLB   C2C14178  21.040  14.000   2.430
  591BOLB   C3C14179  20.690  13.990   2.810
  591BOLB   C4C14180  20.600  13.990   3.200
  591BOLB   C1D14181  21.090  13.980   1.930
  591BOLB   C2D14182  20.770  13.840   2.030
  591BOLB   C3D14183  20.630  13.620   2.400
  591BOLB   C4D14184  20.210  13.640   2.560
  592BOLB   NC114185  17.510  15.930   4.340
  592BOLB   PO114186  17.420  15.420   4.390
  592BOLB   GL114187  17.690  15.540   4.040
  592BOLB   GL214188  17.740  15.830   3.940
  592BOLB   C1A14189  17.550  15.390   3.690
  592BOLB   C2A14190  17.580  15.390   3.350
  592BOLB   C3A14191  17.730  15.170   3.020
  592BOLB   C4A14192  17.770  14.980   2.560
  592BOLB   C1B14193  17.840  15.790   3.510
  592BOLB   C2B14194  17.920  15.690   3.120
  592BOLB   C3B14195  17.940  15.640   2.720
  592BOLB   C4B14196  17.950  15.830   2.300
  592BOLB   NC214197  17.990  14.530   0.320
  592BOLB   PO214198  17.580  14.370   0.470
  592BOLB   GL314199  17.770  14.230   0.930
  592BOLB   GL414200  17.480  14.010   0.860
  592BOLB   C1C14201  17.750  14.140   1.310
  592BOLB   C2C14202  17.530  14.370   1.730
  592BOLB   C3C14203  17.500  14.680   1.930
  592BOLB   C4C14204  17.540  14.760   2.210
  592BOLB   C1D14205  17.240  14.240   1.030
  592BOLB   C2D14206  17.470  14.580   1.250
  592BOLB   C3D14207  17.490  14.970   1.530
  592BOLB   C4D14208  17.550  15.270   1.550
  593BOLB   NC114209  24.030  16.450  13.370
  593BOLB   PO114210  23.920  16.860  13.340
  593BOLB   GL114211  24.340  17.030  13.510
  593BOLB   GL214212  24.480  17.300  13.450
  593BOLB   C1A14213  24.640  17.060  13.800
  593BOLB   C2A14214  25.080  17.010  13.840
  593BOLB   C3A14215  25.390  16.770  14.080
  593BOLB   C4A14216  25.510  16.430  14.050
  593BOLB   C1B14217  24.880  17.280  13.390
  593BOLB   C2B14218  25.340  17.480  13.350
  593BOLB   C3B14219  25.510  17.790  13.120
  593BOLB   C4B14220  26.020  17.890  12.940
  593BOLB   NC214221  28.000  17.110  13.270
  593BOLB   PO214222  27.810  16.870  13.700
  593BOLB   GL314223  27.450  16.930  13.400
  593BOLB   GL414224  27.530  17.140  13.190
  593BOLB   C1C14225  27.010  16.840  13.370
  593BOLB   C2C14226  26.630  16.560  13.570
  593BOLB   C3C14227  26.230  16.350  13.770
  593BOLB   C4C14228  25.800  16.300  13.820
  593BOLB   C1D14229  27.040  17.320  13.180
  593BOLB   C2D14230  26.720  17.280  13.440
  593BOLB   C3D14231  26.330  17.110  13.610
  593BOLB   C4D14232  25.890  16.820  13.820
  594BOLB   NC114233  15.740  15.810   4.100
  594BOLB   PO114234  15.530  15.540   3.710
  594BOLB   GL114235  15.640  15.710   3.320
  594BOLB   GL214236  15.470  15.970   3.250
  594BOLB   C1A14237  15.640  15.680   2.920
  594BOLB   C2A14238  15.470  15.390   2.680
  594BOLB   C3A14239  15.490  15.010   2.580
  594BOLB   C4A14240  15.590  14.660   2.390
  594BOLB   C1B14241  15.880  16.180   3.100
  594BOLB   C2B14242  16.130  16.120   2.720
  594BOLB   C3B14243  16.180  16.190   2.200
  594BOLB   C4B14244  16.240  15.830   2.010
  594BOLB   NC214245  15.550  13.490   0.530
  594BOLB   PO214246  15.660  13.140   0.620
  594BOLB   GL314247  15.830  13.330   0.930
  594BOLB   GL414248  16.040  13.490   0.790
  594BOLB   C1C14249  15.750  13.270   1.380
  594BOLB   C2C14250  15.670  13.540   1.580
  594BOLB   C3C14251  15.560  13.830   1.960
  594BOLB   C4C14252  15.540  14.180   2.180
  594BOLB   C1D14253  16.450  13.650   0.990
  594BOLB   C2D14254  16.640  13.550   1.450
  594BOLB   C3D14255  17.030  13.600   1.580
  594BOLB   C4D14256  17.470  13.760   1.330
  595BOLB   NC114257  21.130  22.450  16.480
  595BOLB   PO114258  21.180  22.100  16.750
  595BOLB   GL114259  21.370  22.040  17.010
  595BOLB   GL214260  21.450  21.790  17.080
  595BOLB   C1A14261  21.610  22.300  17.300
  595BOLB   C2A14262  21.830  22.380  17.630
  595BOLB   C3A14263  22.010  22.690  17.750
  595BOLB   C4A14264  22.350  22.920  18.010
  595BOLB   C1B14265  21.890  21.830  17.120
  595BOLB   C2B14266  22.140  22.030  17.230
  595BOLB   C3B14267  22.560  22.090  17.230
  595BOLB   C4B14268  22.990  22.150  17.130
  595BOLB   NC214269  23.260  24.950  19.340
  595BOLB   PO214270  23.390  24.770  18.920
  595BOLB   GL314271  23.070  24.510  18.850
  595BOLB   GL414272  22.770  24.600  18.570
  595BOLB   C1C14273  23.100  24.090  18.720
  595BOLB   C2C14274  23.230  23.680  18.520
  595BOLB   C3C14275  22.990  23.480  18.260
  595BOLB   C4C14276  22.760  23.230  18.000
  595BOLB   C1D14277  22.610  24.500  18.180
  595BOLB   C2D14278  22.310  24.450  17.760
  595BOLB   C3D14279  21.930  24.510  17.510
  595BOLB   C4D14280  21.540  24.480  17.310
  596BOLB   NC114281  22.520  22.010  14.840
  596BOLB   PO114282  22.580  22.480  14.950
  596BOLB   GL114283  22.580  22.810  15.010
  596BOLB   GL214284  22.810  22.890  14.950
  596BOLB   C1A14285  22.570  23.120  15.340
  596BOLB   C2A14286  22.560  23.250  15.800
  596BOLB   C3A14287  22.960  23.550  15.990
  596BOLB   C4A14288  22.940  24.070  16.080
  596BOLB   C1B14289  22.920  23.390  15.180
  596BOLB   C2B14290  22.740  23.750  15.490
  596BOLB   C3B14291  22.390  23.950  15.700
  596BOLB   C4B14292  22.100  24.300  15.630
  596BOLB   NC214293  23.230  26.540  17.040
  596BOLB   PO214294  23.530  26.370  16.780
  596BOLB   GL314295  23.650  25.940  16.780
  596BOLB   GL414296  23.720  26.050  16.430
  596BOLB   C1C14297  23.750  25.470  16.550
  596BOLB   C2C14298  23.640  25.030  16.460
  596BOLB   C3C14299  23.420  24.880  16.100
  596BOLB   C4C14300  23.110  24.590  16.000
  596BOLB   C1D14301  23.360  25.890  16.320
  596BOLB   C2D14302  22.980  25.660  16.340
  596BOLB   C3D14303  22.880  25.230  16.130
  596BOLB   C4D14304  22.740  24.870  16.020
  597BOLB   NC114305  12.780  11.130   8.140
  597BOLB   PO114306  12.680  10.760   7.870
  597BOLB   GL114307  12.410  10.400   7.670
  597BOLB   GL214308  12.360  10.070   7.830
  597BOLB   C1A14309  12.180  10.320   7.390
  597BOLB   C2A14310  11.890  10.120   7.090
  597BOLB   C3A14311  11.640   9.940   6.780
  597BOLB   C4A14312  11.370   9.930   6.450
  597BOLB   C1B14313  12.240   9.760   7.510
  597BOLB   C2B14314  12.360   9.390   7.180
  597BOLB   C3B14315  12.370   9.600   6.710
  597BOLB   C4B14316  12.400   9.480   6.290
  597BOLB   NC214317   9.050   9.230   5.570
  597BOLB   PO214318   8.940   9.150   6.000
  597BOLB   GL314319   9.450   9.330   5.950
  597BOLB   GL414320   9.620   9.210   6.280
  597BOLB   C1C14321   9.950   9.480   6.010
  597BOLB   C2C14322  10.150   9.840   6.110
  597BOLB   C3C14323  10.600   9.890   6.300
  597BOLB   C4C14324  11.040   9.790   6.250
  597BOLB   C1D14325  10.050   9.360   6.450
  597BOLB   C2D14326  10.080   9.350   6.890
  597BOLB   C3D14327   9.860   9.470   7.220
  597BOLB   C4D14328   9.560   9.400   7.590
  598BOLB   NC114329  12.570   9.800   9.800
  598BOLB   PO114330  12.940   9.600   9.570
  598BOLB   GL114331  12.870   9.260   9.640
  598BOLB   GL214332  13.040   9.070   9.380
  598BOLB   C1A14333  12.640   8.950   9.710
  598BOLB   C2A14334  12.420   8.640   9.770
  598BOLB   C3A14335  12.200   8.250   9.950
  598BOLB   C4A14336  11.980   7.830  10.050
  598BOLB   C1B14337  13.090   8.650   9.470
  598BOLB   C2B14338  13.000   8.210   9.390
  598BOLB   C3B14339  13.100   7.800   9.360
  598BOLB   C4B14340  13.090   7.380   9.560
  598BOLB   NC214341  11.310   5.630   9.300
  598BOLB   PO214342  11.260   5.590   9.760
  598BOLB   GL314343  11.380   5.970   9.830
  598BOLB   GL414344  11.100   6.250   9.760
  598BOLB   C1C14345  11.750   6.240   9.790
  598BOLB   C2C14346  11.790   6.650   9.840
  598BOLB   C3C14347  11.870   6.980  10.020
  598BOLB   C4C14348  11.870   7.350  10.130
  598BOLB   C1D14349  11.160   6.740   9.800
  598BOLB   C2D14350  11.110   7.150   9.880
  598BOLB   C3D14351  10.950   7.540  10.080
  598BOLB   C4D14352  11.030   8.000  10.240
  599BOLB   NC114353  17.400  16.680  20.680
  599BOLB   PO114354  16.870  16.550  20.630
  599BOLB   GL114355  17.040  16.600  21.070
  599BOLB   GL214356  17.330  16.450  21.140
  599BOLB   C1A14357  17.190  16.810  21.400
  599BOLB   C2A14358  17.200  16.760  21.820
  599BOLB   C3A14359  17.230  16.640  22.230
  599BOLB   C4A14360  17.220  16.380  22.580
  599BOLB   C1B14361  17.380  16.180  21.530
  599BOLB   C2B14362  17.530  15.910  21.820
  599BOLB   C3B14363  17.620  16.260  21.950
  599BOLB   C4B14364  17.750  16.590  22.210
  599BOLB   NC214365  18.740  15.830  24.600
  599BOLB   PO214366  18.510  16.160  24.630
  599BOLB   GL314367  18.450  16.200  24.130
  599BOLB   GL414368  18.570  16.520  23.920
  599BOLB   C1C14369  18.180  16.190  23.790
  599BOLB   C2C14370  18.020  15.900  23.530
  599BOLB   C3C14371  17.720  15.970  23.160
  599BOLB   C4C14372  17.400  16.140  22.880
  599BOLB   C1D14373  18.400  16.610  23.590
  599BOLB   C2D14374  18.790  16.870  23.230
  599BOLB   C3D14375  19.170  17.110  23.040
  599BOLB   C4D14376  19.490  17.420  23.110
  600BOLB   NC114377  14.630   9.270   8.840
  600BOLB   PO114378  14.190   9.110   8.970
  600BOLB   GL114379  13.940   8.780   8.980
  600BOLB   GL214380  13.640   8.960   8.880
  600BOLB   C1A14381  13.880   8.380   9.040
  600BOLB   C2A14382  13.620   7.970   9.040
  600BOLB   C3A14383  13.230   7.740   8.810
  600BOLB   C4A14384  12.920   7.490   8.650
  600BOLB   C1B14385  13.570   8.470   8.600
  600BOLB   C2B14386  13.530   8.050   8.560
  600BOLB   C3B14387  13.290   7.930   8.350
  600BOLB   C4B14388  13.100   8.110   7.950
  600BOLB   NC214389  10.530   6.480   8.340
  600BOLB   PO214390  10.890   6.370   8.200
  600BOLB   GL314391  11.080   6.740   8.200
  600BOLB   GL414392  10.870   6.910   8.360
  600BOLB   C1C14393  11.370   6.960   8.190
  600BOLB   C2C14394  11.740   7.250   8.170
  600BOLB   C3C14395  12.010   7.600   8.290
  600BOLB   C4C14396  12.490   7.580   8.440
  600BOLB   C1D14397  10.910   7.270   8.660
  600BOLB   C2D14398  10.930   7.740   8.760
  600BOLB   C3D14399  11.230   8.110   8.690
  600BOLB   C4D14400  11.490   8.370   8.710
  601BOLB   NC114401  14.420  20.210   5.710
  601BOLB   PO114402  14.060  20.290   5.840
  601BOLB   GL114403  13.970  20.560   5.540
  601BOLB   GL214404  14.070  20.870   5.660
  601BOLB   C1A14405  13.550  20.740   5.180
  601BOLB   C2A14406  13.240  20.860   4.880
  601BOLB   C3A14407  13.030  21.150   4.680
  601BOLB   C4A14408  12.790  21.500   4.460
  601BOLB   C1B14409  13.870  21.120   5.370
  601BOLB   C2B14410  13.790  21.570   5.220
  601BOLB   C3B14411  13.510  21.870   5.060
  601BOLB   C4B14412  13.060  21.970   5.270
  601BOLB   NC214413  13.760  23.620   3.180
  601BOLB   PO214414  13.220  23.640   3.100
  601BOLB   GL314415  13.000  23.400   3.380
  601BOLB   GL414416  13.000  23.330   3.740
  601BOLB   C1C14417  12.860  22.960   3.480
  601BOLB   C2C14418  13.040  22.520   3.730
  601BOLB   C3C14419  13.040  22.130   3.970
  601BOLB   C4C14420  12.760  21.850   4.270
  601BOLB   C1D14421  13.190  22.960   4.020
  601BOLB   C2D14422  13.350  22.540   4.210
  601BOLB   C3D14423  13.630  22.400   4.470
  601BOLB   C4D14424  13.770  22.260   4.870
  602BOLB   NC114425  10.080  11.330  11.990
  602BOLB   PO114426  10.250  10.880  11.980
  602BOLB   GL114427   9.860  10.740  11.870
  602BOLB   GL214428   9.900  10.470  12.080
  602BOLB   C1A14429   9.490  10.450  11.720
  602BOLB   C2A14430   9.280  10.180  11.480
  602BOLB   C3A14431   8.930  10.070  11.180
  602BOLB   C4A14432   8.680   9.700  11.100
  602BOLB   C1B14433   9.650  10.150  12.170
  602BOLB   C2B14434   9.620   9.820  12.380
  602BOLB   C3B14435   9.200   9.640  12.290
  602BOLB   C4B14436   8.780   9.620  12.350
  602BOLB   NC214437   7.500   7.920  10.100
  602BOLB   PO214438   7.410   8.080  10.450
  602BOLB   GL314439   7.800   8.090  10.640
  602BOLB   GL414440   7.880   7.850  10.940
  602BOLB   C1C14441   8.150   8.320  10.470
  602BOLB   C2C14442   8.280   8.720  10.620
  602BOLB   C3C14443   8.440   9.120  10.880
  602BOLB   C4C14444   8.470   9.330  11.150
  602BOLB   C1D14445   8.040   8.220  11.100
  602BOLB   C2D14446   8.340   8.390  11.150
  602BOLB   C3D14447   8.560   8.710  11.100
  602BOLB   C4D14448   8.900   8.990  11.120
  603BOLB   NC114449  21.490  10.990  10.150
  603BOLB   PO114450  21.330  10.560  10.340
  603BOLB   GL114451  21.380  10.220  10.260
  603BOLB   GL214452  21.370  10.290   9.810
  603BOLB   C1A14453  21.710   9.850  10.330
  603BOLB   C2A14454  21.960   9.490  10.410
  603BOLB   C3A14455  21.920   9.080  10.480
  603BOLB   C4A14456  22.040   8.840  10.850
  603BOLB   C1B14457  21.600  10.100   9.580
  603BOLB   C2B14458  21.910   9.880   9.380
  603BOLB   C3B14459  22.080   9.530   9.410
  603BOLB   C4B14460  22.370   9.390   9.550
  603BOLB   NC214461  22.910   6.800  10.990
  603BOLB   PO214462  23.030   6.990  10.610
  603BOLB   GL314463  22.980   7.400  10.790
  603BOLB   GL414464  22.880   7.430  10.410
  603BOLB   C1C14465  22.920   7.590  11.090
  603BOLB   C2C14466  22.720   7.980  11.100
  603BOLB   C3C14467  22.410   8.160  11.080
  603BOLB   C4C14468  22.260   8.480  11.050
  603BOLB   C1D14469  22.590   7.790  10.650
  603BOLB   C2D14470  22.310   8.200  10.600
  603BOLB   C3D14471  22.160   8.560  10.440
  603BOLB   C4D14472  21.910   8.690  10.100
  604BOLB   NC114473  18.030  16.610  19.840
  604BOLB   PO114474  18.180  16.310  20.180
  604BOLB   GL114475  18.330  16.210  20.530
  604BOLB   GL214476  18.300  16.390  20.800
  604BOLB   C1A14477  18.650  15.990  20.730
  604BOLB   C2A14478  18.720  16.080  21.140
  604BOLB   C3A14479  18.610  16.070  21.520
  604BOLB   C4A14480  18.640  16.150  22.040
  604BOLB   C1B14481  18.610  16.630  20.980
  604BOLB   C2B14482  18.950  16.500  21.170
  604BOLB   C3B14483  19.280  16.200  21.270
  604BOLB   C4B14484  19.550  15.910  21.280
  604BOLB   NC214485  20.080  16.360  23.880
  604BOLB   PO214486  19.970  15.930  23.970
  604BOLB   GL314487  19.740  16.100  23.600
  604BOLB   GL414488  19.920  16.280  23.390
  604BOLB   C1C14489  19.460  16.030  23.230
  604BOLB   C2C14490  19.280  15.880  22.820
  604BOLB   C3C14491  18.940  15.850  22.530
  604BOLB   C4C14492  18.860  16.050  22.320
  604BOLB   C1D14493  19.740  16.340  23.010
  604BOLB   C2D14494  19.880  16.470  22.670
  604BOLB   C3D14495  19.730  16.380  22.350
  604BOLB   C4D14496  19.370  16.170  22.380
  605BOLB   NC114497  22.110  18.460  17.060
  605BOLB   PO114498  22.310  18.030  16.950
  605BOLB   GL114499  22.480  17.680  17.340
  605BOLB   GL214500  22.620  17.490  17.240
  605BOLB   C1A14501  22.870  17.710  17.550
  605BOLB   C2A14502  22.900  17.800  18.000
  605BOLB   C3A14503  23.040  18.170  18.330
  605BOLB   C4A14504  23.010  18.480  18.600
  605BOLB   C1B14505  22.710  17.210  17.540
  605BOLB   C2B14506  22.840  16.980  17.900
  605BOLB   C3B14507  23.270  16.860  18.070
  605BOLB   C4B14508  23.630  17.010  17.980
  605BOLB   NC214509  24.310  19.700  20.800
  605BOLB   PO214510  24.060  19.910  20.510
  605BOLB   GL314511  23.850  19.780  20.120
  605BOLB   GL414512  23.690  20.010  20.040
  605BOLB   C1C14513  23.650  19.670  19.640
  605BOLB   C2C14514  23.520  19.350  19.300
  605BOLB   C3C14515  23.210  19.140  19.100
  605BOLB   C4C14516  23.190  18.800  18.780
  605BOLB   C1D14517  23.350  20.100  19.780
  605BOLB   C2D14518  22.900  20.150  19.570
  605BOLB   C3D14519  22.540  19.890  19.280
  605BOLB   C4D14520  22.140  19.920  19.260
  606BOLB   NC114521  15.130  15.180   4.460
  606BOLB   PO114522  15.260  15.220   4.000
  606BOLB   GL114523  15.400  15.040   3.680
  606BOLB   GL214524  15.360  15.240   3.350
  606BOLB   C1A14525  15.200  14.700   3.360
  606BOLB   C2A14526  15.020  14.410   3.100
  606BOLB   C3A14527  14.900  14.050   2.990
  606BOLB   C4A14528  14.750  13.850   2.560
  606BOLB   C1B14529  15.590  15.030   3.080
  606BOLB   C2B14530  15.560  14.610   2.920
  606BOLB   C3B14531  15.490  14.220   2.950
  606BOLB   C4B14532  15.700  13.850   3.010
  606BOLB   NC214533  14.760  15.040  31.340
  606BOLB   PO214534  14.920  14.660   0.140
  606BOLB   GL314535  14.830  14.560   0.640
  606BOLB   GL414536  14.980  14.320   0.640
  606BOLB   C1C14537  14.640  14.360   1.010
  606BOLB   C2C14538  14.320  14.090   1.260
  606BOLB   C3C14539  14.280  13.990   1.730
  606BOLB   C4C14540  14.440  13.850   2.170
  606BOLB   C1D14541  15.060  14.080   1.010
  606BOLB   C2D14542  14.740  13.720   1.220
  606BOLB   C3D14543  14.290  13.590   1.350
  606BOLB   C4D14544  13.990  13.310   1.440
  607BOLB   NC114545  19.570  15.520   4.620
  607BOLB   PO114546  19.300  15.220   4.480
  607BOLB   GL114547  19.240  14.890   4.360
  607BOLB   GL214548  19.400  14.890   4.030
  607BOLB   C1A14549  19.220  14.420   4.390
  607BOLB   C2A14550  19.530  14.050   4.400
  607BOLB   C3A14551  19.620  13.760   4.150
  607BOLB   C4A14552  19.840  13.740   3.820
  607BOLB   C1B14553  19.840  14.930   3.870
  607BOLB   C2B14554  19.900  15.140   3.450
  607BOLB   C3B14555  20.120  15.000   3.060
  607BOLB   C4B14556  20.250  14.620   2.760
  607BOLB   NC214557  21.500  13.310   1.970
  607BOLB   PO214558  21.270  12.940   2.030
  607BOLB   GL314559  21.170  13.150   2.330
  607BOLB   GL414560  21.090  13.470   2.250
  607BOLB   C1C14561  20.920  13.420   2.730
  607BOLB   C2C14562  20.530  13.530   2.890
  607BOLB   C3C14563  20.170  13.680   3.090
  607BOLB   C4C14564  20.040  13.700   3.460
  607BOLB   C1D14565  21.500  13.430   2.640
  607BOLB   C2D14566  21.310  13.490   3.060
  607BOLB   C3D14567  21.050  13.710   3.200
  607BOLB   C4D14568  20.970  13.790   3.530
  608BOLB   NC114569  17.290   9.290  10.560
  608BOLB   PO114570  17.070   9.130  10.120
  608BOLB   GL114571  17.060   8.740  10.060
  608BOLB   GL214572  16.770   8.750  10.120
  608BOLB   C1A14573  17.230   8.380  10.070
  608BOLB   C2A14574  17.340   8.000   9.850
  608BOLB   C3A14575  17.520   7.630   9.790
  608BOLB   C4A14576  17.650   7.270  10.040
  608BOLB   C1B14577  16.550   8.270  10.060
  608BOLB   C2B14578  16.340   7.890   9.880
  608BOLB   C3B14579  16.020   7.720   9.500
  608BOLB   C4B14580  15.860   7.390   9.170
  608BOLB   NC214581  19.180   5.010  10.000
  608BOLB   PO214582  18.730   4.920   9.990
  608BOLB   GL314583  18.700   5.360   9.880
  608BOLB   GL414584  18.690   5.540   9.580
  608BOLB   C1C14585  18.620   5.780   9.990
  608BOLB   C2C14586  18.370   6.140   9.980
  608BOLB   C3C14587  17.940   6.310  10.020
  608BOLB   C4C14588  17.780   6.840  10.000
  608BOLB   C1D14589  18.300   5.760   9.630
  608BOLB   C2D14590  17.990   6.110   9.580
  608BOLB   C3D14591  17.930   6.440   9.470
  608BOLB   C4D14592  17.620   6.810   9.570
  609BOLB   NC114593  20.080  22.220  17.310
  609BOLB   PO114594  20.300  22.700  17.360
  609BOLB   GL114595  20.560  22.840  17.570
  609BOLB   GL214596  20.790  22.600  17.560
  609BOLB   C1A14597  20.680  23.170  17.900
  609BOLB   C2A14598  20.870  23.420  18.160
  609BOLB   C3A14599  21.020  23.730  17.970
  609BOLB   C4A14600  21.000  24.110  18.050
  609BOLB   C1B14601  21.130  22.890  17.850
  609BOLB   C2B14602  21.290  23.180  18.150
  609BOLB   C3B14603  21.440  23.530  18.390
  609BOLB   C4B14604  21.070  23.840  18.480
  609BOLB   NC214605  23.190  24.940  18.460
  609BOLB   PO214606  23.060  25.300  18.540
  609BOLB   GL314607  22.750  25.050  18.240
  609BOLB   GL414608  22.760  25.080  17.910
  609BOLB   C1C14609  22.270  24.880  18.160
  609BOLB   C2C14610  22.010  24.570  18.180
  609BOLB   C3C14611  21.680  24.400  18.170
  609BOLB   C4C14612  21.330  24.330  18.160
  609BOLB   C1D14613  22.540  24.920  17.480
  609BOLB   C2D14614  22.410  24.610  17.260
  609BOLB   C3D14615  22.320  24.460  16.830
  609BOLB   C4D14616  22.490  24.530  16.300
  610BOLB   NC114617  15.730  18.710   4.310
  610BOLB   PO114618  16.110  18.560   4.100
  610BOLB   GL114619  16.220  18.520   3.710
  610BOLB   GL214620  16.430  18.720   3.700
  610BOLB   C1A14621  16.080  18.420   3.350
  610BOLB   C2A14622  16.300  18.130   3.020
  610BOLB   C3A14623  16.470  18.000   2.640
  610BOLB   C4A14624  16.870  17.980   2.460
  610BOLB   C1B14625  16.430  18.780   3.320
  610BOLB   C2B14626  16.330  18.880   2.870
  610BOLB   C3B14627  16.350  18.950   2.500
  610BOLB   C4B14628  16.370  19.280   2.270
  610BOLB   NC214629  17.470  18.500   0.320
  610BOLB   PO214630  17.750  18.100   0.490
  610BOLB   GL314631  17.310  18.200   0.630
  610BOLB   GL414632  17.390  18.450   0.860
  610BOLB   C1C14633  17.080  18.010   0.890
  610BOLB   C2C14634  17.190  17.830   1.340
  610BOLB   C3C14635  17.010  17.800   1.790
  610BOLB   C4C14636  17.200  17.770   2.200
  610BOLB   C1D14637  17.100  18.410   1.140
  610BOLB   C2D14638  16.870  18.640   1.420
  610BOLB   C3D14639  16.920  18.640   1.870
  610BOLB   C4D14640  16.920  18.630   2.370
  611BOLB   NC114641  23.550  19.880  12.830
  611BOLB   PO114642  23.630  20.290  12.710
  611BOLB   GL114643  24.150  20.300  12.740
  611BOLB   GL214644  24.190  20.060  12.900
  611BOLB   C1A14645  24.500  20.470  12.890
  611BOLB   C2A14646  24.930  20.700  13.040
  611BOLB   C3A14647  25.200  21.010  12.990
  611BOLB   C4A14648  25.520  21.220  13.170
  611BOLB   C1B14649  24.690  19.950  13.030
  611BOLB   C2B14650  25.010  20.070  13.180
  611BOLB   C3B14651  25.330  20.040  13.220
  611BOLB   C4B14652  25.740  20.090  13.430
  611BOLB   NC214653  27.320  21.500  13.940
  611BOLB   PO214654  27.560  21.170  13.710
  611BOLB   GL314655  27.130  21.220  13.530
  611BOLB   GL414656  26.910  21.500  13.530
  611BOLB   C1C14657  26.830  20.860  13.570
  611BOLB   C2C14658  26.510  20.860  13.310
  611BOLB   C3C14659  26.150  21.110  13.300
  611BOLB   C4C14660  25.750  21.030  13.450
  611BOLB   C1D14661  26.530  21.300  13.630
  611BOLB   C2D14662  26.140  21.360  13.780
  611BOLB   C3D14663  25.850  21.660  13.980
  611BOLB   C4D14664  25.460  21.840  13.860
  612BOLB   NC114665  20.150  19.480  18.990
  612BOLB   PO114666  20.150  19.960  18.870
  612BOLB   GL114667  20.520  20.060  19.100
  612BOLB   GL214668  20.540  20.270  19.050
  612BOLB   C1A14669  20.640  20.040  19.490
  612BOLB   C2A14670  20.690  20.180  19.860
  612BOLB   C3A14671  21.030  20.250  19.940
  612BOLB   C4A14672  21.470  20.280  20.050
  612BOLB   C1B14673  20.840  20.490  19.280
  612BOLB   C2B14674  21.190  20.690  19.510
  612BOLB   C3B14675  21.270  20.740  19.890
  612BOLB   C4B14676  21.510  20.880  20.260
  612BOLB   NC214677  23.560  21.440  21.270
  612BOLB   PO214678  23.230  21.250  21.300
  612BOLB   GL314679  23.070  21.250  20.830
  612BOLB   GL414680  23.190  20.950  20.670
  612BOLB   C1C14681  22.610  21.020  20.710
  612BOLB   C2C14682  22.160  20.930  20.650
  612BOLB   C3C14683  21.970  20.850  20.210
  612BOLB   C4C14684  21.800  20.470  20.090
  612BOLB   C1D14685  22.970  20.790  20.450
  612BOLB   C2D14686  22.510  20.730  20.350
  612BOLB   C3D14687  22.220  20.290  20.340
  612BOLB   C4D14688  21.960  19.800  20.280
  613BOLB   NC114689   9.680  21.320  11.310
  613BOLB   PO114690   9.380  21.320  11.590
  613BOLB   GL114691   9.060  21.500  11.380
  613BOLB   GL214692   8.930  21.550  11.620
  613BOLB   C1A14693   8.660  21.740  11.180
  613BOLB   C2A14694   8.380  22.060  10.970
  613BOLB   C3A14695   8.060  22.140  10.810
  613BOLB   C4A14696   7.940  22.560  10.550
  613BOLB   C1B14697   9.000  21.990  11.530
  613BOLB   C2B14698   8.880  22.370  11.650
  613BOLB   C3B14699   8.510  22.580  11.610
  613BOLB   C4B14700   8.340  22.990  11.820
  613BOLB   NC214701   5.680  24.000  10.430
  613BOLB   PO214702   6.000  23.820  10.480
  613BOLB   GL314703   6.190  23.350  10.600
  613BOLB   GL414704   6.500  23.460  10.790
  613BOLB   C1C14705   6.460  22.970  10.650
  613BOLB   C2C14706   6.890  23.040  10.680
  613BOLB   C3C14707   7.220  23.030  10.390
  613BOLB   C4C14708   7.710  22.890  10.400
  613BOLB   C1D14709   6.710  23.400  10.360
  613BOLB   C2D14710   6.860  23.180  10.070
  613BOLB   C3D14711   7.320  23.130   9.940
  613BOLB   C4D14712   7.420  22.800  10.040
  614BOLB   NC114713   4.400  19.230  23.050
  614BOLB   PO114714   4.120  19.410  22.590
  614BOLB   GL114715   4.320  19.380  22.270
  614BOLB   GL214716   4.570  19.630  22.480
  614BOLB   C1A14717   4.370  19.340  21.890
  614BOLB   C2A14718   4.750  19.130  21.810
  614BOLB   C3A14719   4.930  19.020  21.500
  614BOLB   C4A14720   5.290  19.020  21.370
  614BOLB   C1B14721   4.700  19.670  22.080
  614BOLB   C2B14722   4.700  19.640  21.690
  614BOLB   C3B14723   4.460  19.350  21.380
  614BOLB   C4B14724   4.010  19.140  21.420
  614BOLB   NC214725   4.640  20.200  22.930
  614BOLB   PO214726   4.660  19.700  23.130
  614BOLB   GL314727   4.910  19.370  22.920
  614BOLB   GL414728   4.860  19.070  22.990
  614BOLB   C1C14729   5.250  19.370  22.690
  614BOLB   C2C14730   5.630  19.460  22.380
  614BOLB   C3C14731   5.660  19.250  22.010
  614BOLB   C4C14732   5.600  19.050  21.600
  614BOLB   C1D14733   4.900  19.250  22.460
  614BOLB   C2D14734   5.220  19.220  22.210
  614BOLB   C3D14735   5.200  18.830  21.920
  614BOLB   C4D14736   5.090  18.550  21.570
  615BOLB   NC114737  13.600  29.050  15.200
  615BOLB   PO114738  13.450  29.400  14.900
  615BOLB   GL114739  13.500  28.930  14.730
  615BOLB   GL214740  13.530  28.900  14.370
  615BOLB   C1A14741  13.370  28.540  14.920
  615BOLB   C2A14742  13.480  28.080  15.000
  615BOLB   C3A14743  13.460  27.680  14.940
  615BOLB   C4A14744  13.490  27.330  15.310
  615BOLB   C1B14745  13.920  28.730  14.490
  615BOLB   C2B14746  14.270  28.760  14.330
  615BOLB   C3B14747  14.510  28.610  14.610
  615BOLB   C4B14748  14.860  28.720  14.960
  615BOLB   NC214749  13.970  24.740  15.280
  615BOLB   PO214750  13.510  24.820  15.280
  615BOLB   GL314751  13.380  25.240  15.210
  615BOLB   GL414752  13.080  25.260  15.320
  615BOLB   C1C14753  13.410  25.630  15.330
  615BOLB   C2C14754  13.760  25.980  15.210
  615BOLB   C3C14755  13.780  26.420  15.120
  615BOLB   C4C14756  13.710  26.860  15.160
  615BOLB   C1D14757  12.930  25.690  15.180
  615BOLB   C2D14758  12.690  26.100  15.110
  615BOLB   C3D14759  12.330  26.450  14.880
  615BOLB   C4D14760  12.130  26.520  14.490
  616BOLB   NC114761  20.530  12.840  16.640
  616BOLB   PO114762  20.690  12.940  17.080
  616BOLB   GL114763  21.060  12.790  17.380
  616BOLB   GL214764  21.340  12.950  17.360
  616BOLB   C1A14765  21.360  12.460  17.550
  616BOLB   C2A14766  21.770  12.290  17.550
  616BOLB   C3A14767  21.970  11.930  17.680
  616BOLB   C4A14768  22.430  11.790  17.490
  616BOLB   C1B14769  21.710  12.840  17.610
  616BOLB   C2B14770  21.950  12.640  17.900
  616BOLB   C3B14771  22.400  12.550  18.040
  616BOLB   C4B14772  22.850  12.680  18.160
  616BOLB   NC214773  24.000  10.310  17.970
  616BOLB   PO214774  24.210  10.630  18.040
  616BOLB   GL314775  24.000  11.020  18.080
  616BOLB   GL414776  24.140  11.150  17.790
  616BOLB   C1C14777  23.660  11.300  17.950
  616BOLB   C2C14778  23.570  11.720  17.680
  616BOLB   C3C14779  23.280  11.950  17.430
  616BOLB   C4C14780  22.820  11.900  17.340
  616BOLB   C1D14781  23.800  11.140  17.440
  616BOLB   C2D14782  23.360  11.360  17.370
  616BOLB   C3D14783  22.970  11.550  17.600
  616BOLB   C4D14784  22.730  11.480  17.910
  617BOLB   NC114785  19.860  16.540   0.420
  617BOLB   PO114786  20.040  16.870   0.630
  617BOLB   GL114787  20.280  16.700   0.970
  617BOLB   GL214788  20.590  16.470   1.070
  617BOLB   C1A14789  19.930  16.550   1.290
  617BOLB   C2A14790  19.560  16.610   1.530
  617BOLB   C3A14791  19.270  16.620   1.850
  617BOLB   C4A14792  18.950  16.690   2.120
  617BOLB   C1B14793  20.630  16.600   1.460
  617BOLB   C2B14794  20.320  16.530   1.800
  617BOLB   C3B14795  20.190  16.740   2.260
  617BOLB   C4B14796  19.830  17.080   2.360
  617BOLB   NC214797  18.170  16.570   4.790
  617BOLB   PO214798  18.480  16.540   4.390
  617BOLB   GL314799  18.560  16.520   4.090
  617BOLB   GL414800  18.840  16.450   3.900
  617BOLB   C1C14801  18.400  16.460   3.690
  617BOLB   C2C14802  18.640  16.540   3.390
  617BOLB   C3C14803  18.730  16.720   3.060
  617BOLB   C4C14804  18.920  16.720   2.620
  617BOLB   C1D14805  19.150  16.440   3.490
  617BOLB   C2D14806  19.290  16.690   3.010
  617BOLB   C3D14807  19.410  16.740   2.560
  617BOLB   C4D14808  19.480  16.400   2.270
  618BOLB   NC114809  12.290   8.970  11.540
  618BOLB   PO114810  12.190   9.270  11.230
  618BOLB   GL114811  12.180   8.900  11.010
  618BOLB   GL214812  12.030   8.680  11.160
  618BOLB   C1A14813  12.090   8.580  10.650
  618BOLB   C2A14814  11.960   8.280  10.410
  618BOLB   C3A14815  11.850   7.850  10.530
  618BOLB   C4A14816  11.810   7.410  10.620
  618BOLB   C1B14817  11.750   8.380  11.040
  618BOLB   C2B14818  11.620   8.090  10.990
  618BOLB   C3B14819  11.620   7.640  11.020
  618BOLB   C4B14820  11.850   7.430  11.220
  618BOLB   NC214821  12.400   5.260  10.970
  618BOLB   PO214822  12.300   5.120  11.420
  618BOLB   GL314823  12.260   5.540  11.600
  618BOLB   GL414824  12.440   5.690  11.210
  618BOLB   C1C14825  12.000   5.860  11.590
  618BOLB   C2C14826  12.140   6.270  11.380
  618BOLB   C3C14827  12.080   6.730  11.240
  618BOLB   C4C14828  11.990   7.070  10.990
  618BOLB   C1D14829  12.290   5.970  11.040
  618BOLB   C2D14830  11.970   6.300  10.760
  618BOLB   C3D14831  11.630   6.720  10.920
  618BOLB   C4D14832  11.510   7.130  10.860
  619BOLB   NC114833  18.470  22.730  18.020
  619BOLB   PO114834  18.490  23.160  17.890
  619BOLB   GL114835  18.690  23.320  18.230
  619BOLB   GL214836  18.470  23.540  18.160
  619BOLB   C1A14837  19.090  23.380  18.320
  619BOLB   C2A14838  19.430  23.540  18.580
  619BOLB   C3A14839  19.790  23.760  18.790
  619BOLB   C4A14840  20.230  23.840  18.980
  619BOLB   C1B14841  18.780  23.770  18.420
  619BOLB   C2B14842  19.080  23.790  18.850
  619BOLB   C3B14843  19.390  23.870  19.060
  619BOLB   C4B14844  19.490  23.800  19.480
  619BOLB   NC214845  22.380  24.980  19.720
  619BOLB   PO214846  22.500  24.610  19.930
  619BOLB   GL314847  22.220  24.500  19.660
  619BOLB   GL414848  22.500  24.360  19.480
  619BOLB   C1C14849  21.840  24.430  19.450
  619BOLB   C2C14850  21.480  24.110  19.450
  619BOLB   C3C14851  21.080  23.980  19.370
  619BOLB   C4C14852  20.680  23.910  19.280
  619BOLB   C1D14853  22.390  23.950  19.390
  619BOLB   C2D14854  22.330  23.670  19.090
  619BOLB   C3D14855  22.410  23.310  18.850
  619BOLB   C4D14856  22.580  22.870  18.960
  620BOLB   NC114857  14.100  23.620  18.280
  620BOLB   PO114858  13.600  23.450  18.230
  620BOLB   GL114859  13.410  23.690  18.460
  620BOLB   GL214860  13.150  23.620  18.430
  620BOLB   C1A14861  13.370  24.100  18.600
  620BOLB   C2A14862  13.090  24.450  18.560
  620BOLB   C3A14863  12.890  24.770  18.500
  620BOLB   C4A14864  12.610  25.010  18.750
  620BOLB   C1B14865  12.700  23.880  18.420
  620BOLB   C2B14866  12.290  24.070  18.500
  620BOLB   C3B14867  11.920  24.430  18.640
  620BOLB   C4B14868  11.710  24.750  18.950
  620BOLB   NC214869  11.940  27.370  19.910
  620BOLB   PO214870  12.120  27.240  19.500
  620BOLB   GL314871  12.560  26.990  19.430
  620BOLB   GL414872  12.910  26.890  19.530
  620BOLB   C1C14873  12.660  26.570  19.260
  620BOLB   C2C14874  12.870  26.390  19.070
  620BOLB   C3C14875  12.890  25.870  19.070
  620BOLB   C4C14876  12.670  25.410  18.930
  620BOLB   C1D14877  13.150  26.800  19.140
  620BOLB   C2D14878  13.330  26.490  19.070
  620BOLB   C3D14879  13.310  26.130  18.790
  620BOLB   C4D14880  13.270  25.800  18.490
  621BOLB   NC114881  21.790  12.780   7.210
  621BOLB   PO114882  22.120  13.100   7.180
  621BOLB   GL114883  22.170  13.060   6.800
  621BOLB   GL214884  22.440  13.220   6.710
  621BOLB   C1A14885  22.130  12.930   6.330
  621BOLB   C2A14886  22.180  12.840   5.900
  621BOLB   C3A14887  22.020  12.640   5.480
  621BOLB   C4A14888  22.270  12.580   5.150
  621BOLB   C1B14889  22.860  13.300   6.470
  621BOLB   C2B14890  23.260  13.450   6.280
  621BOLB   C3B14891  23.490  13.160   6.020
  621BOLB   C4B14892  23.430  12.700   6.040
  621BOLB   NC214893  24.100  11.140   4.430
  621BOLB   PO214894  23.890  11.130   4.130
  621BOLB   GL314895  23.640  11.430   4.420
  621BOLB   GL414896  23.720  11.600   4.750
  621BOLB   C1C14897  23.290  11.610   4.370
  621BOLB   C2C14898  22.940  11.770   4.510
  621BOLB   C3C14899  22.700  12.120   4.680
  621BOLB   C4C14900  22.290  12.460   4.800
  621BOLB   C1D14901  23.590  11.690   5.100
  621BOLB   C2D14902  23.240  11.710   5.330
  621BOLB   C3D14903  23.030  12.060   5.540
  621BOLB   C4D14904  22.570  12.010   5.730
  622BOLB   NC114905  27.700  13.920  13.090
  622BOLB   PO114906  27.620  13.560  13.250
  622BOLB   GL114907  27.260  13.810  13.480
  622BOLB   GL214908  27.120  14.010  13.270
  622BOLB   C1A14909  27.150  14.250  13.740
  622BOLB   C2A14910  27.220  14.570  14.060
  622BOLB   C3A14911  27.090  15.020  14.140
  622BOLB   C4A14912  26.780  15.290  14.320
  622BOLB   C1B14913  26.610  13.950  13.170
  622BOLB   C2B14914  26.270  13.890  12.880
  622BOLB   C3B14915  25.860  13.870  12.800
  622BOLB   C4B14916  25.500  14.020  12.700
  622BOLB   NC214917  28.240  15.440  14.920
  622BOLB   PO214918  27.830  15.330  14.980
  622BOLB   GL314919  27.450  15.410  14.780
  622BOLB   GL414920  27.570  15.190  14.500
  622BOLB   C1C14921  27.170  15.500  15.080
  622BOLB   C2C14922  26.760  15.610  15.150
  622BOLB   C3C14923  26.560  15.700  14.810
  622BOLB   C4C14924  26.560  15.530  14.400
  622BOLB   C1D14925  27.300  15.430  14.300
  622BOLB   C2D14926  27.010  15.700  14.580
  622BOLB   C3D14927  26.900  16.010  14.760
  622BOLB   C4D14928  26.440  16.190  14.870
  623BOLB   NC114929  23.200  20.380   8.990
  623BOLB   PO114930  23.330  20.260   8.630
  623BOLB   GL114931  23.740  20.410   8.580
  623BOLB   GL214932  23.840  20.420   8.970
  623BOLB   C1A14933  24.160  20.350   8.380
  623BOLB   C2A14934  24.490  20.520   8.330
  623BOLB   C3A14935  24.830  20.650   8.050
  623BOLB   C4A14936  25.010  20.640   7.620
  623BOLB   C1B14937  24.180  20.680   8.760
  623BOLB   C2B14938  24.310  21.070   8.900
  623BOLB   C3B14939  24.580  21.460   8.930
  623BOLB   C4B14940  25.080  21.590   8.940
  623BOLB   NC214941  26.540  20.240   5.310
  623BOLB   PO214942  26.310  20.380   5.670
  623BOLB   GL314943  26.040  20.430   5.960
  623BOLB   GL414944  25.890  20.160   5.900
  623BOLB   C1C14945  25.860  20.400   6.350
  623BOLB   C2C14946  25.700  20.560   6.710
  623BOLB   C3C14947  25.360  20.840   6.880
  623BOLB   C4C14948  25.150  20.710   7.220
  623BOLB   C1D14949  25.990  19.920   6.260
  623BOLB   C2D14950  25.740  19.610   6.480
  623BOLB   C3D14951  25.750  19.230   6.630
  623BOLB   C4D14952  25.360  18.970   6.520
  624BOLB   NC114953  22.330  16.860  16.160
  624BOLB   PO114954  22.360  16.920  16.660
  624BOLB   GL114955  22.660  16.610  16.550
  624BOLB   GL214956  22.930  16.710  16.480
  624BOLB   C1A14957  22.860  16.390  16.980
  624BOLB   C2A14958  23.350  16.130  17.020
  624BOLB   C3A14959  23.610  15.840  16.970
  624BOLB   C4A14960  23.930  15.700  17.150
  624BOLB   C1B14961  23.330  16.650  16.840
  624BOLB   C2B14962  23.690  16.500  17.160
  624BOLB   C3B14963  24.050  16.210  17.290
  624BOLB   C4B14964  24.380  15.970  17.230
  624BOLB   NC214965  26.730  15.390  18.040
  624BOLB   PO214966  26.320  15.120  17.960
  624BOLB   GL314967  26.020  15.150  17.660
  624BOLB   GL414968  25.800  14.890  17.540
  624BOLB   C1C14969  25.650  15.350  17.620
  624BOLB   C2C14970  25.200  15.450  17.440
  624BOLB   C3C14971  24.750  15.400  17.320
  624BOLB   C4C14972  24.260  15.480  17.100
  624BOLB   C1D14973  25.620  14.980  17.270
  624BOLB   C2D14974  25.550  15.300  17.060
  624BOLB   C3D14975  25.440  15.650  16.840
  624BOLB   C4D14976  25.380  15.980  16.550
  625BOLB   NC114977  21.570  21.310  16.990
  625BOLB   PO114978  21.060  21.180  17.020
  625BOLB   GL114979  21.230  21.080  17.270
  625BOLB   GL214980  21.270  21.410  17.370
  625BOLB   C1A14981  21.500  21.150  17.680
  625BOLB   C2A14982  21.880  21.290  17.950
  625BOLB   C3A14983  22.240  21.300  17.850
  625BOLB   C4A14984  22.620  21.530  17.970
  625BOLB   C1B14985  21.550  21.720  17.570
  625BOLB   C2B14986  21.900  21.840  17.670
  625BOLB   C3B14987  22.160  22.050  17.840
  625BOLB   C4B14988  22.360  22.450  17.990
  625BOLB   NC214989  24.690  22.630  19.020
  625BOLB   PO214990  24.530  22.890  19.230
  625BOLB   GL314991  24.210  22.520  19.040
  625BOLB   GL414992  24.390  22.310  18.770
  625BOLB   C1C14993  23.820  22.390  18.840
  625BOLB   C2C14994  23.690  22.010  18.490
  625BOLB   C3C14995  23.410  21.760  18.050
  625BOLB   C4C14996  23.010  21.680  18.060
  625BOLB   C1D14997  24.240  21.990  18.640
  625BOLB   C2D14998  24.130  21.680  18.350
  625BOLB   C3D14999  23.860  21.460  18.060
  625BOLB   C4D15000  23.630  21.410  17.750
  626BOLB   NC115001  24.270  15.670  11.480
  626BOLB   PO115002  24.240  16.110  11.450
  626BOLB   GL115003  24.660  16.010  11.510
  626BOLB   GL215004  24.870  16.220  11.350
  626BOLB   C1A15005  25.030  15.730  11.390
  626BOLB   C2A15006  25.330  15.490  11.500
  626BOLB   C3A15007  25.440  15.110  11.640
  626BOLB   C4A15008  25.780  14.840  11.530
  626BOLB   C1B15009  25.370  16.040  11.350
  626BOLB   C2B15010  25.820  16.080  11.400
  626BOLB   C3B15011  26.310  16.250  11.440
  626BOLB   C4B15012  26.390  16.540  11.030
  626BOLB   NC215013  28.370  15.340  11.730
  626BOLB   PO215014  27.950  15.260  11.540
  626BOLB   GL315015  27.620  15.300  11.550
  626BOLB   GL415016  27.620  15.390  11.910
  626BOLB   C1C15017  27.280  15.200  11.480
  626BOLB   C2C15018  26.800  15.180  11.470
  626BOLB   C3C15019  26.550  14.910  11.510
  626BOLB   C4C15020  26.160  14.830  11.560
  626BOLB   C1D15021  27.290  15.720  12.020
  626BOLB   C2D15022  26.920  15.850  12.130
  626BOLB   C3D15023  26.390  15.850  12.140
  626BOLB   C4D15024  26.200  15.860  11.820
  627BOLB   NC115025  21.630  18.480  17.150
  627BOLB   PO115026  21.790  18.090  17.200
  627BOLB   GL115027  22.090  18.010  17.580
  627BOLB   GL215028  22.000  18.040  17.820
  627BOLB   C1A15029  22.490  18.070  17.820
  627BOLB   C2A15030  22.600  18.250  18.230
  627BOLB   C3A15031  22.550  17.990  18.550
  627BOLB   C4A15032  22.860  17.960  18.850
  627BOLB   C1B15033  22.140  17.970  18.180
  627BOLB   C2B15034  22.320  17.600  18.340
  627BOLB   C3B15035  22.470  17.540  18.810
  627BOLB   C4B15036  22.610  17.500  19.210
  627BOLB   NC215037  24.830  17.320  20.100
  627BOLB   PO215038  24.610  17.700  20.030
  627BOLB   GL315039  24.260  17.990  19.870
  627BOLB   GL415040  24.240  17.770  19.610
  627BOLB   C1C15041  24.220  18.310  19.630
  627BOLB   C2C15042  23.800  18.510  19.590
  627BOLB   C3C15043  23.380  18.290  19.490
  627BOLB   C4C15044  23.250  18.000  19.160
  627BOLB   C1D15045  23.970  17.540  19.280
  627BOLB   C2D15046  23.590  17.470  19.160
  627BOLB   C3D15047  23.340  17.080  19.270
  627BOLB   C4D15048  23.090  16.700  19.200
  628BOLB   NC115049  12.330   9.520  13.250
  628BOLB   PO115050  12.590   9.320  13.050
  628BOLB   GL115051  12.460   9.030  13.520
  628BOLB   GL215052  12.150   9.190  13.540
  628BOLB   C1A15053  12.420   8.620  13.800
  628BOLB   C2A15054  12.450   8.210  14.080
  628BOLB   C3A15055  12.530   7.980  14.410
  628BOLB   C4A15056  12.490   7.590  14.590
  628BOLB   C1B15057  11.900   8.880  13.780
  628BOLB   C2B15058  11.820   8.520  13.740
  628BOLB   C3B15059  11.560   8.190  13.760
  628BOLB   C4B15060  11.240   7.920  13.720
  628BOLB   NC215061  11.870   5.040  15.480
  628BOLB   PO215062  11.820   5.270  15.730
  628BOLB   GL315063  11.880   5.690  15.660
  628BOLB   GL415064  12.160   5.720  15.900
  628BOLB   C1C15065  12.050   6.190  15.650
  628BOLB   C2C15066  12.070   6.400  15.200
  628BOLB   C3C15067  12.000   6.890  15.050
  628BOLB   C4C15068  12.200   7.210  14.810
  628BOLB   C1D15069  12.540   5.940  15.940
  628BOLB   C2D15070  12.760   6.200  16.250
  628BOLB   C3D15071  12.870   6.330  16.750
  628BOLB   C4D15072  12.720   5.980  17.020
  629BOLB   NC115073  27.440  13.500  11.840
  629BOLB   PO115074  27.550  13.610  11.380
  629BOLB   GL115075  27.140  13.810  11.530
  629BOLB   GL215076  27.140  14.140  11.420
  629BOLB   C1A15077  26.690  14.080  11.720
  629BOLB   C2A15078  26.540  14.390  11.780
  629BOLB   C3A15079  26.330  14.700  11.990
  629BOLB   C4A15080  26.290  14.850  12.430
  629BOLB   C1B15081  26.690  14.250  11.200
  629BOLB   C2B15082  26.290  14.380  11.200
  629BOLB   C3B15083  26.030  14.340  11.430
  629BOLB   C4B15084  25.850  14.480  11.790
  629BOLB   NC215085  28.370  14.500  12.950
  629BOLB   PO215086  28.070  14.740  12.740
  629BOLB   GL315087  27.650  14.840  12.840
  629BOLB   GL415088  27.550  14.750  13.130
  629BOLB   C1C15089  27.440  15.120  12.780
  629BOLB   C2C15090  27.200  15.290  12.930
  629BOLB   C3C15091  26.720  15.150  12.930
  629BOLB   C4C15092  26.470  14.950  12.730
  629BOLB   C1D15093  27.190  14.540  13.340
  629BOLB   C2D15094  26.950  14.740  13.690
  629BOLB   C3D15095  26.630  14.570  13.790
  629BOLB   C4D15096  26.480  14.310  14.090
  630BOLB   NC115097  20.670  22.210   8.000
  630BOLB   PO115098  21.000  22.400   7.760
  630BOLB   GL115099  21.290  22.480   7.430
  630BOLB   GL215100  21.060  22.530   7.090
  630BOLB   C1A15101  21.620  22.770   7.360
  630BOLB   C2A15102  21.810  22.960   7.080
  630BOLB   C3A15103  21.670  23.240   6.690
  630BOLB   C4A15104  21.500  23.300   6.230
  630BOLB   C1B15105  21.070  22.540   6.650
  630BOLB   C2B15106  21.140  22.650   6.300
  630BOLB   C3B15107  21.220  22.980   5.960
  630BOLB   C4B15108  21.320  23.060   5.560
  630BOLB   NC215109  21.250  25.650   5.780
  630BOLB   PO215110  21.620  25.600   5.960
  630BOLB   GL315111  21.500  25.210   6.040
  630BOLB   GL415112  21.230  25.210   6.040
  630BOLB   C1C15113  21.370  24.720   5.990
  630BOLB   C2C15114  21.180  24.340   5.890
  630BOLB   C3C15115  21.300  23.920   5.750
  630BOLB   C4C15116  21.470  23.540   5.840
  630BOLB   C1D15117  21.070  25.400   6.520
  630BOLB   C2D15118  20.850  25.430   6.920
  630BOLB   C3D15119  20.830  25.170   7.340
  630BOLB   C4D15120  20.840  24.730   7.210
  631BOLB   NC115121  12.350   9.860  10.690
  631BOLB   PO115122  12.300   9.710  10.310
  631BOLB   GL115123  12.050   9.260  10.290
  631BOLB   GL215124  11.650   9.330  10.000
  631BOLB   C1A15125  11.850   8.910  10.360
  631BOLB   C2A15126  11.600   8.610  10.460
  631BOLB   C3A15127  11.490   8.170  10.370
  631BOLB   C4A15128  11.320   7.830  10.600
  631BOLB   C1B15129  11.490   9.000  10.030
  631BOLB   C2B15130  11.380   8.570   9.890
  631BOLB   C3B15131  11.160   8.210   9.660
  631BOLB   C4B15132  11.130   7.970   9.270
  631BOLB   NC215133  10.840   5.760  10.000
  631BOLB   PO215134  10.710   5.730  10.480
  631BOLB   GL315135  11.020   6.070  10.420
  631BOLB   GL415136  11.210   5.860  10.290
  631BOLB   C1C15137  11.130   6.470  10.230
  631BOLB   C2C15138  10.870   6.930  10.370
  631BOLB   C3C15139  11.030   7.220  10.690
  631BOLB   C4C15140  11.050   7.600  10.770
  631BOLB   C1D15141  11.550   6.180  10.220
  631BOLB   C2D15142  11.710   6.610  10.320
  631BOLB   C3D15143  11.960   6.900  10.540
  631BOLB   C4D15144  12.400   6.830  10.700
  632BOLB   NC115145  24.010  20.120  11.560
  632BOLB   PO115146  23.880  19.710  11.490
  632BOLB   GL115147  24.360  19.770  11.430
  632BOLB   GL215148  24.500  19.660  11.120
  632BOLB   C1A15149  24.730  19.980  11.380
  632BOLB   C2A15150  25.130  20.190  11.350
  632BOLB   C3A15151  25.380  20.550  11.610
  632BOLB   C4A15152  25.580  20.930  11.750
  632BOLB   C1B15153  24.980  19.570  11.130
  632BOLB   C2B15154  25.430  19.670  11.150
  632BOLB   C3B15155  25.610  19.710  11.540
  632BOLB   C4B15156  25.730  19.310  11.770
  632BOLB   NC215157  27.530  22.910  11.440
  632BOLB   PO215158  27.230  22.610  11.370
  632BOLB   GL315159  26.930  22.380  11.440
  632BOLB   GL415160  26.950  22.110  11.310
  632BOLB   C1C15161  26.490  22.350  11.600
  632BOLB   C2C15162  26.230  21.990  11.880
  632BOLB   C3C15163  26.160  21.580  11.800
  632BOLB   C4C15164  25.900  21.210  11.860
  632BOLB   C1D15165  26.990  21.650  11.260
  632BOLB   C2D15166  26.720  21.440  11.580
  632BOLB   C3D15167  26.410  21.200  11.570
  632BOLB   C4D15168  26.140  20.990  11.460
  633BOLB   NC115169  21.630  23.110  15.420
  633BOLB   PO115170  21.290  23.300  15.580
  633BOLB   GL115171  21.510  23.600  15.480
  633BOLB   GL215172  21.410  23.910  15.420
  633BOLB   C1A15173  21.910  23.840  15.490
  633BOLB   C2A15174  22.260  23.920  15.200
  633BOLB   C3A15175  22.680  24.200  15.260
  633BOLB   C4A15176  22.940  24.440  15.420
  633BOLB   C1B15177  21.590  24.180  15.650
  633BOLB   C2B15178  21.650  24.420  15.980
  633BOLB   C3B15179  22.000  24.560  16.170
  633BOLB   C4B15180  21.960  24.800  16.500
  633BOLB   NC215181  24.840  25.980  15.650
  633BOLB   PO215182  24.750  25.830  15.240
  633BOLB   GL315183  24.540  25.470  15.110
  633BOLB   GL415184  24.560  25.480  14.860
  633BOLB   C1C15185  24.190  25.230  15.220
  633BOLB   C2C15186  23.960  24.960  15.530
  633BOLB   C3C15187  23.700  24.730  15.520
  633BOLB   C4C15188  23.390  24.510  15.600
  633BOLB   C1D15189  24.390  25.100  14.710
  633BOLB   C2D15190  24.190  24.760  14.510
  633BOLB   C3D15191  24.080  24.400  14.320
  633BOLB   C4D15192  24.210  23.980  14.100
  634BOLB   NC115193  21.560  16.300  17.990
  634BOLB   PO115194  21.240  16.240  18.310
  634BOLB   GL115195  21.670  16.120  18.430
  634BOLB   GL215196  21.680  15.850  18.540
  634BOLB   C1A15197  22.000  16.220  18.680
  634BOLB   C2A15198  22.390  16.180  18.930
  634BOLB   C3A15199  22.570  15.990  19.260
  634BOLB   C4A15200  22.780  15.900  19.670
  634BOLB   C1B15201  21.660  15.760  19.020
  634BOLB   C2B15202  21.890  15.830  19.360
  634BOLB   C3B15203  22.170  15.880  19.770
  634BOLB   C4B15204  22.520  15.870  20.130
  634BOLB   NC215205  23.580  14.540  21.360
  634BOLB   PO215206  23.740  14.450  20.860
  634BOLB   GL315207  23.380  14.680  20.740
  634BOLB   GL415208  23.280  14.780  20.920
  634BOLB   C1C15209  23.320  14.980  20.440
  634BOLB   C2C15210  23.490  15.360  20.270
  634BOLB   C3C15211  23.410  15.470  19.880
  634BOLB   C4C15212  23.130  15.610  19.600
  634BOLB   C1D15213  23.030  15.120  20.830
  634BOLB   C2D15214  22.670  15.340  20.990
  634BOLB   C3D15215  22.390  15.600  20.940
  634BOLB   C4D15216  22.280  15.640  20.570
  635BOLB   NC115217  22.350  20.190  15.900
  635BOLB   PO115218  22.240  20.540  16.080
  635BOLB   GL115219  22.640  20.550  16.300
  635BOLB   GL215220  22.740  20.820  16.400
  635BOLB   C1A15221  23.080  20.360  16.350
  635BOLB   C2A15222  23.530  20.540  16.470
  635BOLB   C3A15223  24.030  20.570  16.370
  635BOLB   C4A15224  24.280  20.910  16.320
  635BOLB   C1B15225  23.080  20.820  16.540
  635BOLB   C2B15226  23.390  20.790  16.860
  635BOLB   C3B15227  23.850  20.900  16.720
  635BOLB   C4B15228  24.100  21.240  16.690
  635BOLB   NC215229  25.500  22.540  17.840
  635BOLB   PO215230  25.390  22.840  17.450
  635BOLB   GL315231  25.050  22.560  17.500
  635BOLB   GL415232  25.000  22.460  17.850
  635BOLB   C1C15233  24.660  22.380  17.300
  635BOLB   C2C15234  24.670  22.040  17.060
  635BOLB   C3C15235  24.550  21.710  16.580
  635BOLB   C4C15236  24.420  21.360  16.280
  635BOLB   C1D15237  24.560  22.330  17.820
  635BOLB   C2D15238  24.240  22.200  17.450
  635BOLB   C3D15239  24.200  22.170  17.000
  635BOLB   C4D15240  24.250  22.130  16.520
  636BOLB   NC115241  15.190  24.610  17.160
  636BOLB   PO115242  14.860  24.530  16.870
  636BOLB   GL115243  14.670  24.860  17.180
  636BOLB   GL215244  14.830  24.780  17.580
  636BOLB   C1A15245  14.550  25.270  17.350
  636BOLB   C2A15246  14.560  25.590  17.550
  636BOLB   C3A15247  14.610  25.850  17.970
  636BOLB   C4A15248  14.330  26.130  18.040
  636BOLB   C1B15249  14.920  25.200  17.800
  636BOLB   C2B15250  15.180  25.590  18.020
  636BOLB   C3B15251  15.090  25.990  18.250
  636BOLB   C4B15252  14.720  26.200  18.420
  636BOLB   NC215253  13.670  28.570  19.070
  636BOLB   PO215254  13.760  28.270  18.890
  636BOLB   GL315255  13.880  27.840  18.860
  636BOLB   GL415256  13.960  27.690  19.210
  636BOLB   C1C15257  14.090  27.440  18.700
  636BOLB   C2C15258  14.030  27.110  18.470
  636BOLB   C3C15259  13.950  26.710  18.390
  636BOLB   C4C15260  14.030  26.460  18.120
  636BOLB   C1D15261  13.660  27.370  18.930
  636BOLB   C2D15262  13.600  26.940  18.880
  636BOLB   C3D15263  13.480  26.560  18.630
  636BOLB   C4D15264  13.170  26.320  18.320
  637BOLB   NC115265  11.370  15.110   5.970
  637BOLB   PO115266  10.920  15.060   6.030
  637BOLB   GL115267  10.600  14.950   5.890
  637BOLB   GL215268  10.730  14.740   5.670
  637BOLB   C1A15269  10.280  14.600   5.800
  637BOLB   C2A15270   9.920  14.600   5.560
  637BOLB   C3A15271   9.790  14.570   5.160
  637BOLB   C4A15272   9.560  14.520   4.800
  637BOLB   C1B15273  10.530  15.020   5.400
  637BOLB   C2B15274  10.090  14.970   5.210
  637BOLB   C3B15275  10.140  14.850   4.850
  637BOLB   C4B15276  10.120  14.420   4.710
  637BOLB   NC215277   7.770  15.000   3.770
  637BOLB   PO215278   7.630  14.630   4.030
  637BOLB   GL315279   7.950  14.440   4.230
  637BOLB   GL415280   8.110  14.220   4.330
  637BOLB   C1C15281   8.300  14.300   3.920
  637BOLB   C2C15282   8.680  14.170   3.840
  637BOLB   C3C15283   9.070  14.180   4.050
  637BOLB   C4C15284   9.250  14.160   4.620
  637BOLB   C1D15285   8.600  14.260   4.460
  637BOLB   C2D15286   8.860  14.580   4.680
  637BOLB   C3D15287   9.160  15.000   4.630
  637BOLB   C4D15288   9.210  15.270   5.060
  638BOLB   NC115289  16.920  17.120  20.640
  638BOLB   PO115290  16.980  17.390  20.930
  638BOLB   GL115291  17.260  17.420  21.260
  638BOLB   GL215292  17.190  17.590  21.450
  638BOLB   C1A15293  17.390  17.200  21.690
  638BOLB   C2A15294  17.420  17.480  21.990
  638BOLB   C3A15295  17.580  17.560  22.380
  638BOLB   C4A15296  17.780  17.920  22.560
  638BOLB   C1B15297  17.200  17.960  21.690
  638BOLB   C2B15298  17.560  17.960  21.920
  638BOLB   C3B15299  17.980  17.810  22.120
  638BOLB   C4B15300  18.080  17.590  22.440
  638BOLB   NC215301  19.180  17.820  24.540
  638BOLB   PO215302  18.830  18.170  24.430
  638BOLB   GL315303  18.650  18.290  24.070
  638BOLB   GL415304  18.550  17.970  24.090
  638BOLB   C1C15305  18.530  18.320  23.590
  638BOLB   C2C15306  18.570  18.330  23.150
  638BOLB   C3C15307  18.350  18.520  22.870
  638BOLB   C4C15308  18.040  18.320  22.820
  638BOLB   C1D15309  18.500  17.680  23.830
  638BOLB   C2D15310  18.230  17.500  23.430
  638BOLB   C3D15311  17.760  17.380  23.160
  638BOLB   C4D15312  17.460  17.540  22.880
  639BOLB   NC115313  17.430  12.420  18.650
  639BOLB   PO115314  17.190  12.750  18.830
  639BOLB   GL115315  17.350  12.540  19.180
  639BOLB   GL215316  17.060  12.530  19.390
  639BOLB   C1A15317  17.540  12.140  19.370
  639BOLB   C2A15318  17.670  11.800  19.560
  639BOLB   C3A15319  17.940  11.470  19.780
  639BOLB   C4A15320  18.380  11.300  19.730
  639BOLB   C1B15321  17.050  12.400  19.790
  639BOLB   C2B15322  17.180  12.010  20.040
  639BOLB   C3B15323  17.130  11.770  20.480
  639BOLB   C4B15324  17.280  11.640  20.790
  639BOLB   NC215325  19.390   9.980  21.450
  639BOLB   PO215326  19.700  10.020  21.100
  639BOLB   GL315327  19.620  10.070  20.650
  639BOLB   GL415328  19.610   9.890  20.440
  639BOLB   C1C15329  19.250  10.280  20.520
  639BOLB   C2C15330  19.230  10.550  20.200
  639BOLB   C3C15331  18.900  10.770  19.880
  639BOLB   C4C15332  18.540  10.970  19.710
  639BOLB   C1D15333  19.500  10.110  20.080
  639BOLB   C2D15334  19.280  10.350  19.720
  639BOLB   C3D15335  19.250  10.520  19.380
  639BOLB   C4D15336  18.880  10.740  19.310
  640BOLB   NC115337  22.370  14.320   7.480
  640BOLB   PO115338  22.420  14.690   7.770
  640BOLB   GL115339  22.910  14.630   7.640
  640BOLB   GL215340  23.120  14.780   7.870
  640BOLB   C1A15341  23.140  14.580   7.400
  640BOLB   C2A15342  23.440  14.520   7.110
  640BOLB   C3A15343  23.500  14.500   6.800
  640BOLB   C4A15344  23.580  14.380   6.410
  640BOLB   C1B15345  23.440  14.870   7.650
  640BOLB   C2B15346  23.850  14.800   7.380
  640BOLB   C3B15347  23.950  14.640   6.990
  640BOLB   C4B15348  24.060  14.340   6.640
  640BOLB   NC215349  25.550  13.210   4.760
  640BOLB   PO215350  25.160  13.130   4.840
  640BOLB   GL315351  24.910  13.180   5.170
  640BOLB   GL415352  25.040  13.310   5.430
  640BOLB   C1C15353  24.600  13.480   5.380
  640BOLB   C2C15354  24.220  13.710   5.430
  640BOLB   C3C15355  23.990  13.970   5.690
  640BOLB   C4C15356  23.900  14.250   6.000
  640BOLB   C1D15357  24.730  13.040   5.580
  640BOLB   C2D15358  24.510  12.960   5.970
  640BOLB   C3D15359  24.280  12.760   6.300
  640BOLB   C4D15360  24.070  12.410   6.520
  641BOLB   NC115361  17.930  14.470  19.830
  641BOLB   PO115362  17.640  14.530  20.090
  641BOLB   GL115363  17.790  14.640  20.440
  641BOLB   GL215364  17.700  14.600  20.740
  641BOLB   C1A15365  18.230  14.600  20.670
  641BOLB   C2A15366  18.470  14.430  21.050
  641BOLB   C3A15367  18.380  14.290  21.460
  641BOLB   C4A15368  18.400  13.990  21.730
  641BOLB   C1B15369  17.930  14.780  21.120
  641BOLB   C2B15370  18.050  14.620  21.510
  641BOLB   C3B15371  18.050  14.640  21.950
  641BOLB   C4B15372  18.090  14.940  22.330
  641BOLB   NC215373  19.440  12.810  23.580
  641BOLB   PO215374  19.150  12.700  23.330
  641BOLB   GL315375  19.120  12.830  22.900
  641BOLB   GL415376  19.010  13.110  23.030
  641BOLB   C1C15377  19.230  13.040  22.500
  641BOLB   C2C15378  19.000  13.460  22.350
  641BOLB   C3C15379  18.600  13.440  22.110
  641BOLB   C4C15380  18.380  13.690  21.960
  641BOLB   C1D15381  18.770  13.370  22.810
  641BOLB   C2D15382  18.600  13.740  22.720
  641BOLB   C3D15383  18.660  14.170  22.760
  641BOLB   C4D15384  18.780  14.440  22.610
  642BOLB   NC115385  10.810  26.440  22.490
  642BOLB   PO115386  10.760  26.530  22.110
  642BOLB   GL115387  10.970  26.200  22.030
  642BOLB   GL215388  10.770  26.060  21.830
  642BOLB   C1A15389  11.170  25.870  22.250
  642BOLB   C2A15390  11.180  25.440  22.090
  642BOLB   C3A15391  11.250  24.980  22.130
  642BOLB   C4A15392  11.270  24.610  22.470
  642BOLB   C1B15393  10.850  25.770  21.490
  642BOLB   C2B15394  10.930  25.420  21.120
  642BOLB   C3B15395  10.780  25.380  20.690
  642BOLB   C4B15396  10.720  25.740  20.450
  642BOLB   NC215397  12.960  25.320  24.310
  642BOLB   PO215398  12.870  25.700  24.090
  642BOLB   GL315399  12.720  25.390  23.900
  642BOLB   GL415400  12.870  25.120  23.790
  642BOLB   C1C15401  12.350  25.250  23.720
  642BOLB   C2C15402  12.010  25.050  23.550
  642BOLB   C3C15403  11.800  24.850  23.220
  642BOLB   C4C15404  11.480  24.670  22.910
  642BOLB   C1D15405  12.470  24.890  24.080
  642BOLB   C2D15406  12.520  24.570  24.350
  642BOLB   C3D15407  12.540  24.080  24.530
  642BOLB   C4D15408  12.530  23.640  24.550
  643BOLB   NC115409  21.020  19.750   6.890
  643BOLB   PO115410  21.270  20.170   6.900
  643BOLB   GL115411  21.600  20.230   6.430
  643BOLB   GL215412  21.680  20.010   6.400
  643BOLB   C1A15413  21.740  20.330   5.960
  643BOLB   C2A15414  22.120  20.390   5.720
  643BOLB   C3A15415  22.590  20.510   5.620
  643BOLB   C4A15416  22.850  20.680   5.350
  643BOLB   C1B15417  22.070  20.130   6.250
  643BOLB   C2B15418  22.420  20.500   6.110
  643BOLB   C3B15419  22.770  20.730   6.050
  643BOLB   C4B15420  23.020  21.080   6.060
  643BOLB   NC215421  24.900  20.240   3.550
  643BOLB   PO215422  24.760  20.280   4.040
  643BOLB   GL315423  24.650  20.210   4.410
  643BOLB   GL415424  24.770  19.970   4.540
  643BOLB   C1C15425  24.380  20.340   4.740
  643BOLB   C2C15426  23.940  20.360   4.930
  643BOLB   C3C15427  23.680  20.510   5.240
  643BOLB   C4C15428  23.270  20.520   5.380
  643BOLB   C1D15429  24.640  19.900   4.980
  643BOLB   C2D15430  24.370  19.850   5.350
  643BOLB   C3D15431  24.150  19.600   5.600
  643BOLB   C4D15432  23.790  19.320   5.680
  644BOLB   NC115433  21.940  12.090  13.530
  644BOLB   PO115434  22.240  12.310  13.860
  644BOLB   GL115435  22.090  11.970  14.060
  644BOLB   GL215436  22.010  11.990  14.330
  644BOLB   C1A15437  22.020  11.510  14.150
  644BOLB   C2A15438  22.400  11.230  14.270
  644BOLB   C3A15439  22.700  10.980  14.480
  644BOLB   C4A15440  22.940  10.770  14.810
  644BOLB   C1B15441  22.200  11.640  14.580
  644BOLB   C2B15442  22.550  11.490  14.750
  644BOLB   C3B15443  22.970  11.560  15.050
  644BOLB   C4B15444  23.300  11.150  15.070
  644BOLB   NC215445  24.450   8.600  15.410
  644BOLB   PO215446  24.300   9.030  15.450
  644BOLB   GL315447  24.150   9.490  15.420
  644BOLB   GL415448  24.370   9.740  15.530
  644BOLB   C1C15449  23.930   9.930  15.440
  644BOLB   C2C15450  23.690  10.290  15.460
  644BOLB   C3C15451  23.320  10.280  15.190
  644BOLB   C4C15452  23.090  10.620  15.140
  644BOLB   C1D15453  24.390  10.150  15.480
  644BOLB   C2D15454  24.120  10.460  15.490
  644BOLB   C3D15455  23.860  10.550  15.110
  644BOLB   C4D15456  23.610  10.850  14.870
  645BOLB   NC115457  15.200  24.140  17.610
  645BOLB   PO115458  15.510  24.340  17.420
  645BOLB   GL115459  15.500  24.460  17.900
  645BOLB   GL215460  15.140  24.520  17.920
  645BOLB   C1A15461  15.550  24.820  18.200
  645BOLB   C2A15462  15.450  25.160  18.220
  645BOLB   C3A15463  15.460  25.430  18.490
  645BOLB   C4A15464  15.430  25.660  18.740
  645BOLB   C1B15465  14.920  24.810  18.120
  645BOLB   C2B15466  14.930  25.100  18.300
  645BOLB   C3B15467  14.910  25.500  18.480
  645BOLB   C4B15468  14.890  25.800  18.660
  645BOLB   NC215469  14.560  28.180  18.960
  645BOLB   PO215470  15.060  28.010  19.010
  645BOLB   GL315471  15.110  27.660  18.700
  645BOLB   GL415472  15.500  27.750  18.700
  645BOLB   C1C15473  15.100  27.200  18.540
  645BOLB   C2C15474  14.960  26.800  18.630
  645BOLB   C3C15475  15.020  26.370  18.780
  645BOLB   C4C15476  15.300  26.070  18.990
  645BOLB   C1D15477  15.520  27.410  18.470
  645BOLB   C2D15478  15.470  27.020  18.110
  645BOLB   C3D15479  15.690  26.840  17.750
  645BOLB   C4D15480  15.810  26.430  17.510
  646BOLB   NC115481  20.160  10.060  10.050
  646BOLB   PO115482  19.910  10.120   9.580
  646BOLB   GL115483  19.980   9.720   9.500
  646BOLB   GL215484  20.000   9.690   9.210
  646BOLB   C1A15485  19.950   9.290   9.510
  646BOLB   C2A15486  19.900   8.810   9.290
  646BOLB   C3A15487  19.780   8.470   9.010
  646BOLB   C4A15488  19.680   8.010   8.930
  646BOLB   C1B15489  20.450   9.390   9.330
  646BOLB   C2B15490  20.840   9.050   9.260
  646BOLB   C3B15491  20.800   8.700   9.310
  646BOLB   C4B15492  21.090   8.470   9.100
  646BOLB   NC215493  20.380   5.650   9.340
  646BOLB   PO215494  19.990   5.490   9.370
  646BOLB   GL315495  20.050   6.020   9.300
  646BOLB   GL415496  20.110   6.120   9.030
  646BOLB   C1C15497  19.980   6.550   9.350
  646BOLB   C2C15498  19.970   6.980   9.490
  646BOLB   C3C15499  20.100   7.390   9.530
  646BOLB   C4C15500  19.920   7.710   9.190
  646BOLB   C1D15501  20.390   6.440   9.080
  646BOLB   C2D15502  20.500   6.850   9.220
  646BOLB   C3D15503  20.440   7.020   9.570
  646BOLB   C4D15504  20.310   7.100   9.950
  647BOLB   NC115505   2.470  16.180  11.260
  647BOLB   PO115506   2.240  15.770  11.370
  647BOLB   GL115507   2.320  15.440  11.660
  647BOLB   GL215508   2.260  15.230  11.900
  647BOLB   C1A15509   2.670  15.470  12.010
  647BOLB   C2A15510   3.070  15.580  12.110
  647BOLB   C3A15511   3.160  15.770  12.500
  647BOLB   C4A15512   2.980  15.910  12.830
  647BOLB   C1B15513   2.570  14.980  12.280
  647BOLB   C2B15514   2.800  14.890  12.670
  647BOLB   C3B15515   3.130  14.830  12.890
  647BOLB   C4B15516   3.220  14.480  13.170
  647BOLB   NC215517   1.930  17.670  12.290
  647BOLB   PO215518   1.700  17.640  12.610
  647BOLB   GL315519   2.090  17.580  12.750
  647BOLB   GL415520   2.330  17.740  12.600
  647BOLB   C1C15521   2.320  17.240  12.930
  647BOLB   C2C15522   2.470  16.950  13.150
  647BOLB   C3C15523   2.760  16.600  13.270
  647BOLB   C4C15524   2.810  16.250  13.250
  647BOLB   C1D15525   2.760  17.420  12.610
  647BOLB   C2D15526   2.850  17.000  12.770
  647BOLB   C3D15527   3.000  17.010  13.210
  647BOLB   C4D15528   3.410  17.150  13.380
  648BOLB   NC115529  18.780  23.960   9.460
  648BOLB   PO115530  18.790  24.210   9.830
  648BOLB   GL115531  18.880  24.440   9.590
  648BOLB   GL215532  18.720  24.430   9.170
  648BOLB   C1A15533  18.980  24.800   9.350
  648BOLB   C2A15534  19.020  25.060   8.900
  648BOLB   C3A15535  18.970  25.430   8.860
  648BOLB   C4A15536  19.080  25.810   8.610
  648BOLB   C1B15537  18.590  24.770   9.040
  648BOLB   C2B15538  18.300  25.170   8.940
  648BOLB   C3B15539  18.480  25.460   8.710
  648BOLB   C4B15540  18.500  25.590   8.290
  648BOLB   NC215541  18.830  26.860   6.270
  648BOLB   PO215542  18.630  27.150   6.540
  648BOLB   GL315543  18.630  26.710   6.720
  648BOLB   GL415544  18.450  26.540   6.540
  648BOLB   C1C15545  18.680  26.510   7.050
  648BOLB   C2C15546  18.710  26.410   7.470
  648BOLB   C3C15547  18.950  26.290   7.830
  648BOLB   C4C15548  18.960  25.970   8.220
  648BOLB   C1D15549  18.340  26.130   6.630
  648BOLB   C2D15550  18.240  25.670   6.770
  648BOLB   C3D15551  18.210  25.340   6.980
  648BOLB   C4D15552  18.390  24.890   7.120
  649BOLB   NC115553  13.900  21.400   7.270
  649BOLB   PO115554  13.480  21.500   7.140
  649BOLB   GL115555  13.320  21.770   6.790
  649BOLB   GL215556  13.560  22.010   6.650
  649BOLB   C1A15557  13.080  21.790   6.420
  649BOLB   C2A15558  12.700  21.940   6.180
  649BOLB   C3A15559  12.380  22.040   5.890
  649BOLB   C4A15560  12.500  22.340   5.690
  649BOLB   C1B15561  13.540  22.420   6.380
  649BOLB   C2B15562  13.410  22.650   6.000
  649BOLB   C3B15563  13.070  22.860   5.950
  649BOLB   C4B15564  12.980  23.230   6.060
  649BOLB   NC215565  11.640  24.370   4.610
  649BOLB   PO215566  11.390  24.310   5.020
  649BOLB   GL315567  11.560  24.050   5.210
  649BOLB   GL415568  11.800  23.960   4.970
  649BOLB   C1C15569  11.750  23.570   5.280
  649BOLB   C2C15570  12.130  23.290   5.270
  649BOLB   C3C15571  12.230  22.980   5.530
  649BOLB   C4C15572  12.520  22.700   5.530
  649BOLB   C1D15573  12.150  23.650   4.910
  649BOLB   C2D15574  12.620  23.430   5.060
  649BOLB   C3D15575  12.660  23.170   5.280
  649BOLB   C4D15576  12.910  23.000   5.510
  650BOLB   NC115577  16.110   9.070  12.100
  650BOLB   PO115578  16.560   9.020  12.060
  650BOLB   GL115579  16.440   8.630  12.220
  650BOLB   GL215580  16.320   8.730  12.410
  650BOLB   C1A15581  16.400   8.200  12.000
  650BOLB   C2A15582  16.490   7.710  11.960
  650BOLB   C3A15583  16.500   7.290  11.970
  650BOLB   C4A15584  16.260   6.920  12.200
  650BOLB   C1B15585  16.160   8.280  12.500
  650BOLB   C2B15586  15.870   7.940  12.660
  650BOLB   C3B15587  15.690   7.490  12.660
  650BOLB   C4B15588  15.700   7.110  12.940
  650BOLB   NC215589  16.450   4.650  12.300
  650BOLB   PO215590  16.780   4.680  12.540
  650BOLB   GL315591  16.840   5.060  12.320
  650BOLB   GL415592  16.490   5.150  12.190
  650BOLB   C1C15593  16.950   5.510  12.300
  650BOLB   C2C15594  16.570   5.750  12.450
  650BOLB   C3C15595  16.260   6.060  12.370
  650BOLB   C4C15596  16.170   6.500  12.340
  650BOLB   C1D15597  16.180   5.370  12.530
  650BOLB   C2D15598  16.190   5.750  12.800
  650BOLB   C3D15599  16.310   5.790  13.160
  650BOLB   C4D15600  16.060   5.950  13.590
  651BOLB   NC115601   9.490  14.400   8.050
  651BOLB   PO115602   9.630  14.020   7.810
  651BOLB   GL115603   9.420  13.760   7.560
  651BOLB   GL215604   9.470  13.460   7.590
  651BOLB   C1A15605   9.010  13.620   7.290
  651BOLB   C2A15606   8.570  13.420   7.290
  651BOLB   C3A15607   8.170  13.470   7.400
  651BOLB   C4A15608   7.740  13.390   7.220
  651BOLB   C1B15609   9.090  13.250   7.610
  651BOLB   C2B15610   8.790  12.960   7.400
  651BOLB   C3B15611   8.590  12.610   7.380
  651BOLB   C4B15612   8.540  12.210   7.670
  651BOLB   NC215613   5.330  14.250   6.420
  651BOLB   PO215614   5.610  14.160   6.730
  651BOLB   GL315615   5.990  14.180   6.740
  651BOLB   GL415616   6.170  14.410   7.000
  651BOLB   C1C15617   6.470  13.990   6.780
  651BOLB   C2C15618   6.670  13.620   6.900
  651BOLB   C3C15619   6.940  13.280   7.070
  651BOLB   C4C15620   7.370  13.190   7.070
  651BOLB   C1D15621   6.490  14.550   7.220
  651BOLB   C2D15622   6.860  14.950   7.180
  651BOLB   C3D15623   7.410  14.960   7.140
  651BOLB   C4D15624   7.690  15.060   7.340
  652BOLB   NC115625  18.310  10.890   6.520
  652BOLB   PO115626  18.180  11.240   6.380
  652BOLB   GL115627  18.230  10.930   5.920
  652BOLB   GL215628  18.510  10.760   5.820
  652BOLB   C1A15629  18.410  11.020   5.350
  652BOLB   C2A15630  18.380  10.680   5.020
  652BOLB   C3A15631  18.410  10.380   4.700
  652BOLB   C4A15632  18.580  10.030   4.620
  652BOLB   C1B15633  18.840  10.650   5.510
  652BOLB   C2B15634  19.230  10.400   5.380
  652BOLB   C3B15635  19.520  10.300   5.160
  652BOLB   C4B15636  19.820  10.460   4.790
  652BOLB   NC215637  19.570   8.850   3.220
  652BOLB   PO215638  19.460   9.160   2.930
  652BOLB   GL315639  19.210   9.490   3.070
  652BOLB   GL415640  19.010   9.820   2.980
  652BOLB   C1C15641  19.280   9.620   3.530
  652BOLB   C2C15642  19.330   9.870   3.950
  652BOLB   C3C15643  19.310   9.930   4.380
  652BOLB   C4C15644  18.900  10.020   4.430
  652BOLB   C1D15645  18.930   9.980   3.450
  652BOLB   C2D15646  18.700  10.020   3.810
  652BOLB   C3D15647  18.520  10.050   4.120
  652BOLB   C4D15648  18.210  10.370   4.140
  653BOLB   NC115649  18.280  24.860  15.680
  653BOLB   PO115650  18.120  24.890  16.150
  653BOLB   GL115651  18.400  25.170  16.060
  653BOLB   GL215652  18.680  25.190  15.880
  653BOLB   C1A15653  18.520  25.430  16.310
  653BOLB   C2A15654  18.540  25.750  16.620
  653BOLB   C3A15655  18.770  25.960  16.870
  653BOLB   C4A15656  19.040  26.020  17.110
  653BOLB   C1B15657  18.890  25.290  15.410
  653BOLB   C2B15658  19.200  25.710  15.320
  653BOLB   C3B15659  19.330  26.000  15.430
  653BOLB   C4B15660  19.690  26.170  15.620
  653BOLB   NC215661  18.380  28.410  17.950
  653BOLB   PO215662  18.760  28.170  17.810
  653BOLB   GL315663  18.700  27.850  17.930
  653BOLB   GL415664  18.340  27.890  17.940
  653BOLB   C1C15665  18.550  27.400  17.880
  653BOLB   C2C15666  18.690  26.950  17.930
  653BOLB   C3C15667  19.060  26.830  17.660
  653BOLB   C4C15668  19.180  26.440  17.370
  653BOLB   C1D15669  17.970  27.800  18.130
  653BOLB   C2D15670  17.800  27.450  18.140
  653BOLB   C3D15671  17.410  27.270  18.100
  653BOLB   C4D15672  17.100  26.920  18.280
  654BOLB   NC115673  24.420  17.890  10.050
  654BOLB   PO115674  24.360  17.440   9.990
  654BOLB   GL115675  24.710  17.380   9.860
  654BOLB   GL215676  24.850  17.550  10.110
  654BOLB   C1A15677  25.110  17.070   9.920
  654BOLB   C2A15678  25.380  16.800   9.790
  654BOLB   C3A15679  25.750  16.540   9.980
  654BOLB   C4A15680  26.130  16.520  10.100
  654BOLB   C1B15681  25.280  17.500  10.020
  654BOLB   C2B15682  25.640  17.650  10.040
  654BOLB   C3B15683  25.800  17.890  10.320
  654BOLB   C4B15684  25.980  18.280  10.310
  654BOLB   NC215685  28.430  16.720  11.200
  654BOLB   PO215686  28.190  16.970  11.440
  654BOLB   GL315687  27.800  17.080  11.370
  654BOLB   GL415688  27.810  17.310  11.260
  654BOLB   C1C15689  27.300  17.110  11.290
  654BOLB   C2C15690  27.100  16.990  10.980
  654BOLB   C3C15691  26.750  16.700  10.710
  654BOLB   C4C15692  26.290  16.550  10.520
  654BOLB   C1D15693  27.620  17.120  10.910
  654BOLB   C2D15694  27.320  16.890  10.560
  654BOLB   C3D15695  27.100  16.600  10.370
  654BOLB   C4D15696  27.260  16.440  10.050
  655BOLB   NC115697  14.360  17.660   4.860
  655BOLB   PO115698  14.560  17.440   4.530
  655BOLB   GL115699  14.470  17.330   4.190
  655BOLB   GL215700  14.170  17.220   4.150
  655BOLB   C1A15701  14.650  17.460   3.800
  655BOLB   C2A15702  14.390  17.470   3.420
  655BOLB   C3A15703  14.140  17.730   3.150
  655BOLB   C4A15704  13.720  17.760   3.070
  655BOLB   C1B15705  13.820  17.420   3.880
  655BOLB   C2B15706  13.490  17.650   3.570
  655BOLB   C3B15707  13.330  18.020   3.320
  655BOLB   C4B15708  13.270  18.440   3.170
  655BOLB   NC215709  11.900  18.130   1.180
  655BOLB   PO215710  11.680  18.260   1.380
  655BOLB   GL315711  11.850  17.950   1.640
  655BOLB   GL415712  11.770  17.740   1.450
  655BOLB   C1C15713  12.170  17.780   1.910
  655BOLB   C2C15714  12.500  17.820   2.200
  655BOLB   C3C15715  12.870  17.750   2.570
  655BOLB   C4C15716  13.310  17.730   2.840
  655BOLB   C1D15717  11.830  17.390   1.670
  655BOLB   C2D15718  12.050  17.290   2.090
  655BOLB   C3D15719  11.910  17.020   2.550
  655BOLB   C4D15720  12.230  16.990   2.960
  656BOLB   NC115721  18.050  17.800  20.160
  656BOLB   PO115722  18.380  17.530  20.080
  656BOLB   GL115723  18.490  17.670  20.500
  656BOLB   GL215724  18.770  17.380  20.580
  656BOLB   C1A15725  18.860  17.810  20.780
  656BOLB   C2A15726  18.970  18.030  21.170
  656BOLB   C3A15727  19.310  18.080  21.480
  656BOLB   C4A15728  19.630  18.260  21.650
  656BOLB   C1B15729  19.240  17.390  20.670
  656BOLB   C2B15730  19.730  17.610  20.670
  656BOLB   C3B15731  20.040  17.880  20.940
  656BOLB   C4B15732  19.960  18.160  21.280
  656BOLB   NC215733  20.650  18.970  23.510
  656BOLB   PO215734  20.920  18.630  23.490
  656BOLB   GL315735  21.010  18.810  23.160
  656BOLB   GL415736  20.970  18.550  22.920
  656BOLB   C1C15737  20.700  18.990  22.840
  656BOLB   C2C15738  20.440  18.880  22.500
  656BOLB   C3C15739  20.090  18.600  22.200
  656BOLB   C4C15740  19.990  18.490  21.790
  656BOLB   C1D15741  20.600  18.500  22.730
  656BOLB   C2D15742  20.250  18.400  22.640
  656BOLB   C3D15743  19.800  18.260  22.460
  656BOLB   C4D15744  19.510  18.350  22.150
  657BOLB   NC115745  19.830  20.350  18.190
  657BOLB   PO115746  20.110  20.650  18.180
  657BOLB   GL115747  20.320  20.760  18.680
  657BOLB   GL215748  20.300  20.990  18.710
  657BOLB   C1A15749  20.460  20.800  19.150
  657BOLB   C2A15750  20.810  21.010  19.350
  657BOLB   C3A15751  21.030  21.220  19.720
  657BOLB   C4A15752  21.160  21.330  20.140
  657BOLB   C1B15753  20.460  21.310  19.090
  657BOLB   C2B15754  20.590  21.480  19.450
  657BOLB   C3B15755  20.710  21.490  19.910
  657BOLB   C4B15756  20.740  21.350  20.380
  657BOLB   NC215757  22.350  21.000  22.270
  657BOLB   PO215758  21.960  21.000  22.370
  657BOLB   GL315759  21.830  20.930  21.960
  657BOLB   GL415760  22.140  20.980  21.780
  657BOLB   C1C15761  21.690  20.990  21.530
  657BOLB   C2C15762  21.470  21.010  21.150
  657BOLB   C3C15763  21.250  20.940  20.800
  657BOLB   C4C15764  21.190  21.170  20.560
  657BOLB   C1D15765  22.130  21.260  21.400
  657BOLB   C2D15766  21.900  21.140  21.060
  657BOLB   C3D15767  21.730  21.230  20.590
  657BOLB   C4D15768  21.680  21.330  20.100
  658BOLB   NC115769  19.140  12.340  16.320
  658BOLB   PO115770  19.260  12.200  16.760
  658BOLB   GL115771  19.460  11.940  17.120
  658BOLB   GL215772  19.450  11.590  17.090
  658BOLB   C1A15773  19.510  11.870  17.600
  658BOLB   C2A15774  19.570  11.550  17.740
  658BOLB   C3A15775  19.790  11.130  17.830
  658BOLB   C4A15776  19.870  10.730  17.710
  658BOLB   C1B15777  19.840  11.460  17.250
  658BOLB   C2B15778  20.180  11.190  17.430
  658BOLB   C3B15779  20.480  11.090  17.620
  658BOLB   C4B15780  20.670  10.730  17.900
  658BOLB   NC215781  21.480   9.600  19.400
  658BOLB   PO215782  21.720   9.600  19.060
  658BOLB   GL315783  21.410   9.920  18.940
  658BOLB   GL415784  21.330  10.080  19.260
  658BOLB   C1C15785  21.020  10.080  18.680
  658BOLB   C2C15786  20.630  10.040  18.360
  658BOLB   C3C15787  20.360  10.290  18.170
  658BOLB   C4C15788  20.120  10.440  17.870
  658BOLB   C1D15789  21.070  10.400  19.150
  658BOLB   C2D15790  20.770  10.490  18.800
  658BOLB   C3D15791  20.420  10.730  18.530
  658BOLB   C4D15792  20.220  10.770  18.160
  659BOLB   NC115793  16.380  14.570   4.060
  659BOLB   PO115794  16.650  14.870   4.280
  659BOLB   GL115795  16.700  14.920   3.870
  659BOLB   GL215796  16.720  15.170   3.770
  659BOLB   C1A15797  16.850  14.710   3.470
  659BOLB   C2A15798  16.870  14.810   3.040
  659BOLB   C3A15799  16.860  14.550   2.630
  659BOLB   C4A15800  16.760  14.350   2.290
  659BOLB   C1B15801  16.640  15.130   3.320
  659BOLB   C2B15802  16.510  15.150   2.920
  659BOLB   C3B15803  16.840  15.230   2.590
  659BOLB   C4B15804  17.070  14.880   2.320
  659BOLB   NC215805  16.280  14.490  31.080
  659BOLB   PO215806  16.360  14.230  31.320
  659BOLB   GL315807  16.200  14.220   0.360
  659BOLB   GL415808  16.380  14.460   0.570
  659BOLB   C1C15809  15.920  14.500   0.680
  659BOLB   C2C15810  15.860  14.470   1.080
  659BOLB   C3C15811  16.150  14.420   1.480
  659BOLB   C4C15812  16.450  14.430   1.910
  659BOLB   C1D15813  16.340  14.570   1.010
  659BOLB   C2D15814  16.470  14.720   1.350
  659BOLB   C3D15815  16.510  14.920   1.830
  659BOLB   C4D15816  16.580  14.910   2.190
  660BOLB   NC115817  19.090  24.030  17.100
  660BOLB   PO115818  18.750  23.700  17.160
  660BOLB   GL115819  18.880  23.930  17.600
  660BOLB   GL215820  18.630  24.100  17.810
  660BOLB   C1A15821  19.140  24.330  17.730
  660BOLB   C2A15822  19.460  24.280  18.010
  660BOLB   C3A15823  19.700  24.340  18.390
  660BOLB   C4A15824  19.720  24.740  18.570
  660BOLB   C1B15825  18.910  24.190  18.140
  660BOLB   C2B15826  19.040  24.580  18.270
  660BOLB   C3B15827  19.260  24.900  18.300
  660BOLB   C4B15828  19.750  24.710  18.060
  660BOLB   NC215829  20.080  26.300  20.390
  660BOLB   PO215830  20.340  26.300  20.070
  660BOLB   GL315831  20.150  25.960  20.010
  660BOLB   GL415832  19.790  26.080  20.050
  660BOLB   C1C15833  19.880  25.620  19.790
  660BOLB   C2C15834  19.590  25.360  19.700
  660BOLB   C3C15835  19.750  25.030  19.440
  660BOLB   C4C15836  19.800  24.790  19.070
  660BOLB   C1D15837  19.470  25.930  19.710
  660BOLB   C2D15838  19.180  25.640  19.660
  660BOLB   C3D15839  18.870  25.370  19.640
  660BOLB   C4D15840  18.600  24.940  19.660
  661BOLB   NC115841   3.580  10.770  20.110
  661BOLB   PO115842   4.020  11.010  20.190
  661BOLB   GL115843   4.390  11.060  19.980
  661BOLB   GL215844   4.560  11.090  20.300
  661BOLB   C1A15845   4.700  11.360  19.810
  661BOLB   C2A15846   4.750  11.600  19.420
  661BOLB   C3A15847   4.830  11.510  18.980
  661BOLB   C4A15848   4.930  11.560  18.590
  661BOLB   C1B15849   4.890  11.300  20.410
  661BOLB   C2B15850   4.980  11.590  20.140
  661BOLB   C3B15851   5.150  11.870  19.780
  661BOLB   C4B15852   5.150  11.940  19.380
  661BOLB   NC215853   3.340  11.630  19.170
  661BOLB   PO215854   3.210  12.020  19.230
  661BOLB   GL315855   3.490  12.080  18.950
  661BOLB   GL415856   3.460  12.340  18.900
  661BOLB   C1C15857   3.870  12.270  18.790
  661BOLB   C2C15858   4.190  12.200  18.560
  661BOLB   C3C15859   4.370  12.040  18.150
  661BOLB   C4C15860   4.630  11.750  18.230
  661BOLB   C1D15861   3.430  12.420  18.450
  661BOLB   C2D15862   3.650  12.550  18.040
  661BOLB   C3D15863   3.900  12.870  17.960
  661BOLB   C4D15864   4.230  12.880  17.650
  662BOLB   NC115865  11.050  10.830   9.620
  662BOLB   PO115866  10.680  11.070   9.850
  662BOLB   GL115867  10.250  10.740   9.930
  662BOLB   GL215868  10.470  10.580  10.180
  662BOLB   C1A15869   9.870  10.430   9.940
  662BOLB   C2A15870   9.520  10.120   9.950
  662BOLB   C3A15871   9.350   9.820  10.230
  662BOLB   C4A15872   9.200   9.410  10.360
  662BOLB   C1B15873  10.570  10.130  10.110
  662BOLB   C2B15874  10.420   9.700   9.880
  662BOLB   C3B15875  10.620   9.450   9.840
  662BOLB   C4B15876  10.550   9.050   9.910
  662BOLB   NC215877   8.250   7.230   9.100
  662BOLB   PO215878   8.350   7.500   9.540
  662BOLB   GL315879   8.640   7.650   9.760
  662BOLB   GL415880   8.840   7.370   9.960
  662BOLB   C1C15881   8.540   7.880  10.080
  662BOLB   C2C15882   8.510   8.390  10.040
  662BOLB   C3C15883   8.630   8.780  10.180
  662BOLB   C4C15884   8.940   9.150  10.210
  662BOLB   C1D15885   9.310   7.610  10.050
  662BOLB   C2D15886   9.540   7.780  10.400
  662BOLB   C3D15887   9.780   8.170  10.560
  662BOLB   C4D15888  10.110   8.500  10.590
  663BOLB   NC115889  23.180  13.880  12.810
  663BOLB   PO115890  23.350  13.570  12.470
  663BOLB   GL115891  23.650  13.250  12.590
  663BOLB   GL215892  23.630  12.940  12.680
  663BOLB   C1A15893  24.050  13.230  12.610
  663BOLB   C2A15894  24.450  13.240  12.580
  663BOLB   C3A15895  24.930  13.210  12.640
  663BOLB   C4A15896  25.360  13.430  12.810
  663BOLB   C1B15897  24.030  12.750  12.820
  663BOLB   C2B15898  24.440  12.710  12.690
  663BOLB   C3B15899  24.740  12.860  12.420
  663BOLB   C4B15900  24.970  13.020  12.120
  663BOLB   NC215901  26.580  11.620  12.670
  663BOLB   PO215902  26.840  11.950  12.610
  663BOLB   GL315903  26.680  12.330  12.540
  663BOLB   GL415904  26.350  12.250  12.480
  663BOLB   C1C15905  26.520  12.690  12.260
  663BOLB   C2C15906  26.330  13.030  12.380
  663BOLB   C3C15907  25.990  13.250  12.260
  663BOLB   C4C15908  25.750  13.400  12.570
  663BOLB   C1D15909  26.080  12.510  12.270
  663BOLB   C2D15910  25.710  12.660  11.990
  663BOLB   C3D15911  25.350  12.850  11.720
  663BOLB   C4D15912  24.900  12.690  11.700
  664BOLB   NC115913  22.720  17.540  15.890
  664BOLB   PO115914  22.960  17.680  15.450
  664BOLB   GL115915  23.380  17.470  15.470
  664BOLB   GL215916  23.480  17.240  15.430
  664BOLB   C1A15917  23.650  17.230  15.920
  664BOLB   C2A15918  23.990  17.350  16.150
  664BOLB   C3A15919  24.210  17.220  16.440
  664BOLB   C4A15920  24.500  16.830  16.620
  664BOLB   C1B15921  23.980  17.200  15.340
  664BOLB   C2B15922  24.360  17.470  15.210
  664BOLB   C3B15923  24.820  17.680  15.230
  664BOLB   C4B15924  25.000  17.900  14.920
  664BOLB   NC215925  26.610  15.980  17.260
  664BOLB   PO215926  26.540  16.210  17.730
  664BOLB   GL315927  26.190  16.090  17.570
  664BOLB   GL415928  25.870  16.250  17.700
  664BOLB   C1C15929  25.890  16.110  17.120
  664BOLB   C2C15930  25.720  16.420  16.890
  664BOLB   C3C15931  25.340  16.610  16.940
  664BOLB   C4C15932  24.880  16.740  16.840
  664BOLB   C1D15933  25.550  16.350  17.480
  664BOLB   C2D15934  25.340  16.610  17.370
  664BOLB   C3D15935  24.880  16.700  17.370
  664BOLB   C4D15936  24.440  16.920  17.160
  665BOLB   NC115937  17.650  10.050   7.140
  665BOLB   PO115938  17.980  10.140   6.810
  665BOLB   GL115939  18.050   9.930   6.400
  665BOLB   GL215940  17.830   9.770   6.170
  665BOLB   C1A15941  18.410   9.770   6.100
  665BOLB   C2A15942  18.480   9.690   5.670
  665BOLB   C3A15943  18.650   9.380   5.460
  665BOLB   C4A15944  18.970   9.290   5.230
  665BOLB   C1B15945  18.100   9.410   5.880
  665BOLB   C2B15946  18.530   9.250   5.960
  665BOLB   C3B15947  18.720   8.970   6.330
  665BOLB   C4B15948  18.570   8.640   6.450
  665BOLB   NC215949  20.910   7.600   4.210
  665BOLB   PO215950  20.700   8.010   4.420
  665BOLB   GL315951  20.370   8.210   4.550
  665BOLB   GL415952  20.440   8.250   4.840
  665BOLB   C1C15953  19.960   8.320   4.620
  665BOLB   C2C15954  19.900   8.730   4.720
  665BOLB   C3C15955  19.780   9.130   4.880
  665BOLB   C4C15956  19.380   9.210   5.060
  665BOLB   C1D15957  20.270   8.580   5.030
  665BOLB   C2D15958  20.210   8.850   5.480
  665BOLB   C3D15959  20.570   8.610   5.760
  665BOLB   C4D15960  20.800   8.440   6.140
  666BOLB   NC115961  17.890  15.380   4.500
  666BOLB   PO115962  17.640  14.980   4.570
  666BOLB   GL115963  17.650  15.030   4.160
  666BOLB   GL215964  18.020  14.990   4.010
  666BOLB   C1A15965  17.670  14.830   3.780
  666BOLB   C2A15966  17.760  14.850   3.450
  666BOLB   C3A15967  17.810  14.710   3.050
  666BOLB   C4A15968  18.170  14.470   2.920
  666BOLB   C1B15969  18.260  14.850   3.620
  666BOLB   C2B15970  18.410  14.770   3.250
  666BOLB   C3B15971  18.670  14.430   3.110
  666BOLB   C4B15972  18.510  14.100   3.060
  666BOLB   NC215973  18.270  13.200   0.400
  666BOLB   PO215974  18.380  13.440   0.730
  666BOLB   GL315975  18.440  13.620   0.990
  666BOLB   GL415976  18.210  13.920   1.070
  666BOLB   C1C15977  18.570  13.730   1.520
  666BOLB   C2C15978  18.520  13.930   1.860
  666BOLB   C3C15979  18.390  14.100   2.250
  666BOLB   C4C15980  18.340  14.430   2.560
  666BOLB   C1D15981  18.250  14.090   1.440
  666BOLB   C2D15982  18.020  14.270   1.660
  666BOLB   C3D15983  17.830  14.340   2.160
  666BOLB   C4D15984  17.810  14.460   2.540
  667BOLB   NC115985  13.520  23.900  17.010
  667BOLB   PO115986  13.510  24.270  17.180
  667BOLB   GL115987  13.620  24.690  17.270
  667BOLB   GL215988  13.820  24.540  17.550
  667BOLB   C1A15989  14.010  25.000  17.380
  667BOLB   C2A15990  14.090  25.340  17.610
  667BOLB   C3A15991  14.090  25.650  17.800
  667BOLB   C4A15992  13.830  25.980  18.040
  667BOLB   C1B15993  14.010  24.840  17.900
  667BOLB   C2B15994  14.000  25.260  18.150
  667BOLB   C3B15995  14.160  25.680  18.260
  667BOLB   C4B15996  14.490  25.810  18.420
  667BOLB   NC215997  13.800  27.020  20.130
  667BOLB   PO215998  13.780  27.370  19.920
  667BOLB   GL315999  14.040  27.190  19.620
  667BOLB   GL416000  14.380  27.330  19.600
  667BOLB   C1C16001  13.960  27.130  19.200
  667BOLB   C2C16002  14.080  26.630  19.000
  667BOLB   C3C16003  13.810  26.290  18.830
  667BOLB   C4C16004  13.680  26.150  18.390
  667BOLB   C1D16005  14.420  26.880  19.350
  667BOLB   C2D16006  14.650  26.570  19.110
  667BOLB   C3D16007  14.500  26.300  18.840
  667BOLB   C4D16008  14.190  26.230  18.560
  668BOLB   NC116009  17.900  13.140  18.780
  668BOLB   PO116010  17.840  12.720  18.650
  668BOLB   GL116011  17.830  12.630  19.040
  668BOLB   GL216012  17.760  12.340  18.990
  668BOLB   C1A16013  17.940  12.530  19.390
  668BOLB   C2A16014  18.100  12.140  19.590
  668BOLB   C3A16015  18.280  11.920  19.830
  668BOLB   C4A16016  18.620  11.650  20.090
  668BOLB   C1B16017  17.890  11.990  19.040
  668BOLB   C2B16018  17.940  11.480  19.190
  668BOLB   C3B16019  17.920  11.080  19.490
  668BOLB   C4B16020  17.990  10.880  19.900
  668BOLB   NC216021  20.650  10.370  20.850
  668BOLB   PO216022  20.280  10.120  20.780
  668BOLB   GL316023  20.080  10.310  20.710
  668BOLB   GL416024  19.910  10.410  20.960
  668BOLB   C1C16025  19.700  10.530  20.530
  668BOLB   C2C16026  19.450  10.900  20.530
  668BOLB   C3C16027  19.190  11.180  20.240
  668BOLB   C4C16028  18.840  11.360  20.120
  668BOLB   C1D16029  19.820  10.770  21.120
  668BOLB   C2D16030  19.600  11.220  21.250
  668BOLB   C3D16031  19.390  11.610  21.290
  668BOLB   C4D16032  19.140  11.900  21.120
  669BOLB   NC116033  21.740  15.280  17.400
  669BOLB   PO116034  21.660  15.510  17.020
  669BOLB   GL116035  22.080  15.610  17.150
  669BOLB   GL216036  22.100  15.700  17.440
  669BOLB   C1A16037  22.540  15.600  17.270
  669BOLB   C2A16038  22.790  15.620  17.560
  669BOLB   C3A16039  23.180  15.540  17.790
  669BOLB   C4A16040  23.550  15.530  18.080
  669BOLB   C1B16041  22.280  15.400  17.640
  669BOLB   C2B16042  22.560  15.280  17.820
  669BOLB   C3B16043  22.900  15.230  18.090
  669BOLB   C4B16044  23.160  14.990  18.380
  669BOLB   NC216045  25.460  16.810  19.930
  669BOLB   PO216046  24.990  16.620  19.830
  669BOLB   GL316047  24.700  16.210  19.780
  669BOLB   GL416048  24.500  16.120  19.990
  669BOLB   C1C16049  24.510  15.940  19.530
  669BOLB   C2C16050  24.200  15.950  19.160
  669BOLB   C3C16051  24.040  15.970  18.740
  669BOLB   C4C16052  23.620  15.860  18.460
  669BOLB   C1D16053  24.160  16.270  19.750
  669BOLB   C2D16054  23.870  15.910  19.530
  669BOLB   C3D16055  23.660  15.520  19.480
  669BOLB   C4D16056  23.330  15.200  19.430
  670BOLB   NC116057  23.420  15.850  14.380
  670BOLB   PO116058  23.270  15.470  14.290
  670BOLB   GL116059  23.610  15.350  14.580
  670BOLB   GL216060  23.790  15.600  14.600
  670BOLB   C1A16061  24.140  15.310  14.490
  670BOLB   C2A16062  24.400  15.220  14.830
  670BOLB   C3A16063  24.590  14.860  14.910
  670BOLB   C4A16064  24.830  14.640  15.160
  670BOLB   C1B16065  23.850  15.540  15.020
  670BOLB   C2B16066  23.800  15.310  15.440
  670BOLB   C3B16067  23.910  15.330  15.790
  670BOLB   C4B16068  24.330  15.150  15.910
  670BOLB   NC216069  26.950  12.890  15.640
  670BOLB   PO216070  26.810  12.970  16.010
  670BOLB   GL316071  26.450  13.060  15.710
  670BOLB   GL416072  26.140  12.910  15.840
  670BOLB   C1C16073  26.050  13.390  15.730
  670BOLB   C2C16074  25.850  13.850  15.890
  670BOLB   C3C16075  25.510  14.080  15.720
  670BOLB   C4C16076  25.280  14.300  15.370
  670BOLB   C1D16077  25.720  13.060  15.880
  670BOLB   C2D16078  25.260  13.090  15.870
  670BOLB   C3D16079  24.900  13.270  15.770
  670BOLB   C4D16080  24.570  13.090  15.940
  671BOLB   NC116081  17.150  24.520  14.590
  671BOLB   PO116082  17.280  24.950  14.560
  671BOLB   GL116083  17.370  25.440  14.580
  671BOLB   GL216084  17.290  25.510  14.880
  671BOLB   C1A16085  17.180  25.780  14.400
  671BOLB   C2A16086  17.200  26.210  14.470
  671BOLB   C3A16087  17.280  26.690  14.510
  671BOLB   C4A16088  17.600  27.040  14.630
  671BOLB   C1B16089  17.540  25.940  14.830
  671BOLB   C2B16090  17.600  26.360  14.740
  671BOLB   C3B16091  17.870  26.690  14.850
  671BOLB   C4B16092  18.140  27.020  14.720
  671BOLB   NC216093  18.360  29.410  14.100
  671BOLB   PO216094  18.120  29.420  14.550
  671BOLB   GL316095  18.150  29.030  14.890
  671BOLB   GL416096  18.030  29.040  15.270
  671BOLB   C1C16097  18.160  28.590  14.810
  671BOLB   C2C16098  18.190  28.100  14.810
  671BOLB   C3C16099  18.150  27.740  14.720
  671BOLB   C4C16100  17.890  27.420  14.680
  671BOLB   C1D16101  17.790  28.620  15.090
  671BOLB   C2D16102  17.620  28.440  14.810
  671BOLB   C3D16103  17.610  27.980  14.590
  671BOLB   C4D16104  17.480  27.530  14.490
  672BOLB   NC116105  12.810   9.000  12.370
  672BOLB   PO116106  12.950   9.110  12.760
  672BOLB   GL116107  13.020   8.680  12.710
  672BOLB   GL216108  13.180   8.460  12.970
  672BOLB   C1A16109  12.750   8.350  12.800
  672BOLB   C2A16110  12.610   8.050  13.090
  672BOLB   C3A16111  12.640   7.790  13.530
  672BOLB   C4A16112  12.280   7.510  13.670
  672BOLB   C1B16113  13.300   8.090  12.950
  672BOLB   C2B16114  13.280   7.810  13.310
  672BOLB   C3B16115  13.450   7.610  13.430
  672BOLB   C4B16116  13.560   7.420  13.720
  672BOLB   NC216117  12.140   5.080  12.890
  672BOLB   PO216118  11.850   5.390  12.630
  672BOLB   GL316119  11.850   5.740  12.940
  672BOLB   GL416120  11.770   5.970  12.740
  672BOLB   C1C16121  11.940   6.180  13.220
  672BOLB   C2C16122  11.870   6.580  13.080
  672BOLB   C3C16123  11.950   7.010  13.060
  672BOLB   C4C16124  11.990   7.270  13.450
  672BOLB   C1D16125  11.960   6.260  12.710
  672BOLB   C2D16126  11.950   6.350  12.340
  672BOLB   C3D16127  11.710   6.190  12.000
  672BOLB   C4D16128  11.170   6.160  11.970
  673BOLB   NC116129  13.310  25.110  14.710
  673BOLB   PO116130  13.830  25.080  14.950
  673BOLB   GL116131  13.670  25.520  14.880
  673BOLB   GL216132  14.020  25.670  14.780
  673BOLB   C1A16133  13.450  25.800  14.860
  673BOLB   C2A16134  13.340  26.220  15.090
  673BOLB   C3A16135  13.280  26.570  15.160
  673BOLB   C4A16136  13.290  26.820  15.460
  673BOLB   C1B16137  14.150  26.160  14.820
  673BOLB   C2B16138  14.560  26.370  14.540
  673BOLB   C3B16139  14.910  26.640  14.740
  673BOLB   C4B16140  15.060  27.080  14.690
  673BOLB   NC216141  12.920  29.260  16.400
  673BOLB   PO216142  12.990  28.960  16.080
  673BOLB   GL316143  13.080  28.540  15.960
  673BOLB   GL416144  12.930  28.330  15.690
  673BOLB   C1C16145  13.300  28.090  15.860
  673BOLB   C2C16146  13.650  27.870  15.850
  673BOLB   C3C16147  13.850  27.330  15.640
  673BOLB   C4C16148  13.680  26.970  15.670
  673BOLB   C1D16149  12.920  28.080  15.440
  673BOLB   C2D16150  13.320  27.800  15.420
  673BOLB   C3D16151  13.710  27.880  15.360
  673BOLB   C4D16152  14.230  27.900  15.440
  674BOLB   NC116153  16.730  12.390   4.860
  674BOLB   PO116154  16.360  12.450   5.070
  674BOLB   GL116155  16.380  12.080   4.780
  674BOLB   GL216156  16.170  11.900   4.660
  674BOLB   C1A16157  16.580  11.930   4.380
  674BOLB   C2A16158  16.880  11.740   4.140
  674BOLB   C3A16159  17.080  11.400   3.910
  674BOLB   C4A16160  17.230  11.080   3.730
  674BOLB   C1B16161  16.230  11.640   4.260
  674BOLB   C2B16162  16.160  11.200   4.100
  674BOLB   C3B16163  16.270  11.140   3.600
  674BOLB   C4B16164  16.300  10.740   3.480
  674BOLB   NC216165  18.670   9.770   2.000
  674BOLB   PO216166  18.510  10.160   2.140
  674BOLB   GL316167  18.140  10.080   2.420
  674BOLB   GL416168  18.170   9.780   2.660
  674BOLB   C1C16169  17.860  10.130   2.860
  674BOLB   C2C16170  17.540  10.450   2.820
  674BOLB   C3C16171  17.250  10.720   3.070
  674BOLB   C4C16172  17.070  10.850   3.470
  674BOLB   C1D16173  17.860   9.580   2.980
  674BOLB   C2D16174  17.870   9.680   3.350
  674BOLB   C3D16175  17.730   9.630   3.660
  674BOLB   C4D16176  17.660   9.720   4.090
  675BOLB   NC116177  21.620  23.450  11.130
  675BOLB   PO116178  21.510  23.420  10.680
  675BOLB   GL116179  21.700  23.800  10.760
  675BOLB   GL216180  21.440  23.980  10.720
  675BOLB   C1A16181  22.000  24.170  10.410
  675BOLB   C2A16182  22.110  24.320   9.970
  675BOLB   C3A16183  22.210  24.300   9.650
  675BOLB   C4A16184  22.360  24.550   9.480
  675BOLB   C1B16185  21.520  24.400  10.420
  675BOLB   C2B16186  21.770  24.710  10.240
  675BOLB   C3B16187  21.990  24.800   9.890
  675BOLB   C4B16188  22.380  24.790   9.880
  675BOLB   NC216189  24.410  25.450   8.140
  675BOLB   PO216190  24.110  25.840   8.280
  675BOLB   GL316191  23.800  25.450   8.300
  675BOLB   GL416192  23.940  25.180   8.250
  675BOLB   C1C16193  23.580  24.980   8.510
  675BOLB   C2C16194  23.380  24.730   8.850
  675BOLB   C3C16195  22.940  24.640   8.850
  675BOLB   C4C16196  22.690  24.490   9.200
  675BOLB   C1D16197  23.420  25.170   8.090
  675BOLB   C2D16198  22.890  25.070   7.990
  675BOLB   C3D16199  22.540  24.880   7.810
  675BOLB   C4D16200  22.310  24.490   7.770
  676BOLB   NC116201  17.920  10.360  14.850
  676BOLB   PO116202  18.360  10.380  15.130
  676BOLB   GL116203  18.450   9.950  15.440
  676BOLB   GL216204  18.720   9.940  15.600
  676BOLB   C1A16205  18.660   9.450  15.430
  676BOLB   C2A16206  18.780   9.040  15.440
  676BOLB   C3A16207  19.040   8.730  15.530
  676BOLB   C4A16208  19.190   8.370  15.680
  676BOLB   C1B16209  18.930   9.630  15.860
  676BOLB   C2B16210  19.170   9.340  16.220
  676BOLB   C3B16211  19.160   9.310  16.650
  676BOLB   C4B16212  19.080   9.080  17.080
  676BOLB   NC216213  19.300   6.430  16.920
  676BOLB   PO216214  19.250   6.640  17.300
  676BOLB   GL316215  19.400   6.960  16.990
  676BOLB   GL416216  19.120   6.930  16.660
  676BOLB   C1C16217  19.480   7.230  16.570
  676BOLB   C2C16218  19.490   7.510  16.320
  676BOLB   C3C16219  19.330   7.910  16.120
  676BOLB   C4C16220  19.380   8.070  15.720
  676BOLB   C1D16221  19.050   7.290  16.370
  676BOLB   C2D16222  19.040   7.690  16.530
  676BOLB   C3D16223  19.180   8.130  16.630
  676BOLB   C4D16224  19.120   8.530  16.920
  677BOLB   NC116225  14.530  22.980  19.600
  677BOLB   PO116226  14.420  23.080  19.200
  677BOLB   GL116227  14.150  23.320  19.310
  677BOLB   GL216228  14.260  23.440  19.580
  677BOLB   C1A16229  13.740  23.480  19.450
  677BOLB   C2A16230  13.500  23.800  19.640
  677BOLB   C3A16231  13.420  24.120  19.630
  677BOLB   C4A16232  13.260  24.450  19.800
  677BOLB   C1B16233  14.060  23.840  19.600
  677BOLB   C2B16234  13.880  24.040  19.900
  677BOLB   C3B16235  13.910  24.160  20.270
  677BOLB   C4B16236  13.670  24.130  20.580
  677BOLB   NC216237  12.290  26.980  21.190
  677BOLB   PO216238  12.600  26.660  20.940
  677BOLB   GL316239  12.520  26.360  20.590
  677BOLB   GL416240  12.450  26.380  20.280
  677BOLB   C1C16241  12.780  25.970  20.510
  677BOLB   C2C16242  13.140  25.600  20.340
  677BOLB   C3C16243  13.040  25.170  20.250
  677BOLB   C4C16244  13.140  24.770  20.070
  677BOLB   C1D16245  12.530  25.980  20.070
  677BOLB   C2D16246  12.740  25.520  19.990
  677BOLB   C3D16247  12.720  25.140  19.690
  677BOLB   C4D16248  12.940  24.770  19.630
  678BOLB   NC116249  22.170  20.130   7.940
  678BOLB   PO116250  22.050  20.640   7.780
  678BOLB   GL116251  22.370  20.820   7.570
  678BOLB   GL216252  22.430  20.740   7.230
  678BOLB   C1A16253  22.860  20.980   7.540
  678BOLB   C2A16254  23.240  21.190   7.290
  678BOLB   C3A16255  23.570  21.460   7.200
  678BOLB   C4A16256  24.000  21.530   6.940
  678BOLB   C1B16257  22.920  20.740   7.110
  678BOLB   C2B16258  23.330  20.880   6.920
  678BOLB   C3B16259  23.700  21.000   7.190
  678BOLB   C4B16260  23.740  20.950   7.630
  678BOLB   NC216261  25.480  22.720   6.160
  678BOLB   PO216262  25.320  23.120   6.010
  678BOLB   GL316263  25.040  22.910   6.360
  678BOLB   GL416264  24.810  23.200   6.250
  678BOLB   C1C16265  24.750  22.710   6.530
  678BOLB   C2C16266  24.680  22.460   6.860
  678BOLB   C3C16267  24.540  22.070   6.950
  678BOLB   C4C16268  24.310  21.740   6.860
  678BOLB   C1D16269  24.660  23.230   6.540
  678BOLB   C2D16270  24.480  22.960   6.860
  678BOLB   C3D16271  24.330  22.700   7.150
  678BOLB   C4D16272  23.950  22.750   7.390
  679BOLB   NC116273  23.710  20.350   9.870
  679BOLB   PO116274  23.560  20.730  10.000
  679BOLB   GL116275  23.880  21.010   9.810
  679BOLB   GL216276  24.160  21.100  10.030
  679BOLB   C1A16277  24.100  21.150   9.430
  679BOLB   C2A16278  24.540  21.150   9.400
  679BOLB   C3A16279  24.880  21.040   9.020
  679BOLB   C4A16280  25.120  21.170   8.660
  679BOLB   C1B16281  24.540  21.300   9.880
  679BOLB   C2B16282  24.900  21.230   9.830
  679BOLB   C3B16283  25.160  21.060   9.560
  679BOLB   C4B16284  25.400  21.170   9.150
  679BOLB   NC216285  26.770  22.910   8.140
  679BOLB   PO216286  26.480  22.840   7.740
  679BOLB   GL316287  26.150  22.610   7.940
  679BOLB   GL416288  25.850  22.760   7.760
  679BOLB   C1C16289  26.170  22.230   8.180
  679BOLB   C2C16290  26.000  21.860   8.190
  679BOLB   C3C16291  25.880  21.400   8.270
  679BOLB   C4C16292  25.440  21.200   8.280
  679BOLB   C1D16293  25.540  22.600   8.130
  679BOLB   C2D16294  25.100  22.580   8.330
  679BOLB   C3D16295  24.740  22.310   8.510
  679BOLB   C4D16296  24.500  22.040   8.300
  680BOLB   NC116297  18.890   9.940  14.250
  680BOLB   PO116298  19.090  10.060  14.690
  680BOLB   GL116299  19.310   9.900  14.770
  680BOLB   GL216300  19.610  10.120  14.810
  680BOLB   C1A16301  19.650   9.680  15.040
  680BOLB   C2A16302  19.630   9.220  15.210
  680BOLB   C3A16303  19.630   8.850  15.260
  680BOLB   C4A16304  19.630   8.620  15.640
  680BOLB   C1B16305  19.950  10.110  14.990
  680BOLB   C2B16306  20.180  10.000  15.320
  680BOLB   C3B16307  20.150   9.780  15.700
  680BOLB   C4B16308  20.180   9.710  16.220
  680BOLB   NC216309  19.990   6.370  17.140
  680BOLB   PO216310  19.790   6.520  16.850
  680BOLB   GL316311  19.890   7.010  16.930
  680BOLB   GL416312  20.020   7.010  16.690
  680BOLB   C1C16313  19.830   7.450  16.920
  680BOLB   C2C16314  19.620   7.840  16.730
  680BOLB   C3C16315  19.640   8.100  16.470
  680BOLB   C4C16316  19.620   8.350  16.020
  680BOLB   C1D16317  19.980   7.330  16.470
  680BOLB   C2D16318  20.010   7.710  16.240
  680BOLB   C3D16319  19.880   7.900  15.950
  680BOLB   C4D16320  19.970   8.210  15.670
  681BOLB   NC116321  15.260  10.090  15.040
  681BOLB   PO116322  15.380   9.630  15.140
  681BOLB   GL116323  15.320   9.130  15.250
  681BOLB   GL216324  15.590   9.040  15.190
  681BOLB   C1A16325  15.310   8.800  15.560
  681BOLB   C2A16326  15.320   8.400  15.570
  681BOLB   C3A16327  15.220   7.940  15.720
  681BOLB   C4A16328  15.260   7.510  15.640
  681BOLB   C1B16329  15.470   8.610  15.120
  681BOLB   C2B16330  15.670   8.230  15.300
  681BOLB   C3B16331  15.680   7.860  15.430
  681BOLB   C4B16332  15.910   7.480  15.540
  681BOLB   NC216333  15.680   5.070  14.560
  681BOLB   PO216334  15.900   5.140  15.000
  681BOLB   GL316335  15.710   5.630  15.000
  681BOLB   GL416336  15.720   5.740  14.740
  681BOLB   C1C16337  15.550   5.950  15.300
  681BOLB   C2C16338  15.420   6.260  15.500
  681BOLB   C3C16339  15.370   6.730  15.570
  681BOLB   C4C16340  15.140   7.150  15.740
  681BOLB   C1D16341  15.830   6.130  14.580
  681BOLB   C2D16342  16.100   6.360  14.270
  681BOLB   C3D16343  16.200   6.800  14.160
  681BOLB   C4D16344  16.450   7.040  14.370
  682BOLB   NC116345  23.200  13.860  11.470
  682BOLB   PO116346  23.400  13.840  11.030
  682BOLB   GL116347  23.850  13.730  11.160
  682BOLB   GL216348  24.000  13.440  11.220
  682BOLB   C1A16349  24.360  13.800  11.120
  682BOLB   C2A16350  24.700  13.750  11.130
  682BOLB   C3A16351  24.950  13.470  11.240
  682BOLB   C4A16352  25.350  13.330  11.380
  682BOLB   C1B16353  24.460  13.340  11.140
  682BOLB   C2B16354  24.670  13.040  10.940
  682BOLB   C3B16355  24.920  12.900  10.510
  682BOLB   C4B16356  25.340  12.790  10.270
  682BOLB   NC216357  27.370  11.900  12.480
  682BOLB   PO216358  27.080  11.630  12.290
  682BOLB   GL316359  26.670  11.770  12.140
  682BOLB   GL416360  26.330  11.710  12.220
  682BOLB   C1C16361  26.430  12.150  11.950
  682BOLB   C2C16362  26.030  12.360  11.810
  682BOLB   C3C16363  25.900  12.720  11.510
  682BOLB   C4C16364  25.650  13.040  11.390
  682BOLB   C1D16365  26.000  11.960  12.180
  682BOLB   C2D16366  25.680  12.170  12.240
  682BOLB   C3D16367  25.370  12.050  12.400
  682BOLB   C4D16368  24.960  11.950  12.550
  683BOLB   NC116369  21.400  18.420   6.570
  683BOLB   PO116370  21.720  18.760   6.480
  683BOLB   GL116371  21.970  19.160   6.390
  683BOLB   GL216372  22.380  19.330   6.630
  683BOLB   C1A16373  22.250  19.140   6.040
  683BOLB   C2A16374  22.310  18.800   5.730
  683BOLB   C3A16375  22.560  18.790   5.360
  683BOLB   C4A16376  22.900  18.760   4.960
  683BOLB   C1B16377  22.690  19.440   6.330
  683BOLB   C2B16378  22.940  19.760   6.240
  683BOLB   C3B16379  23.250  19.930   6.070
  683BOLB   C4B16380  23.460  20.180   5.700
  683BOLB   NC216381  25.340  19.510   3.840
  683BOLB   PO216382  24.870  19.580   3.700
  683BOLB   GL316383  24.450  19.460   3.800
  683BOLB   GL416384  24.140  19.460   3.660
  683BOLB   C1C16385  24.170  19.170   3.990
  683BOLB   C2C16386  23.890  18.960   4.320
  683BOLB   C3C16387  23.560  18.840   4.470
  683BOLB   C4C16388  23.140  18.720   4.650
  683BOLB   C1D16389  23.770  19.590   3.830
  683BOLB   C2D16390  23.540  19.740   4.130
  683BOLB   C3D16391  23.310  19.930   4.440
  683BOLB   C4D16392  23.310  20.310   4.800
  684BOLB   NC116393  20.590  18.610   5.420
  684BOLB   PO116394  20.300  18.930   5.430
  684BOLB   GL116395  20.620  19.090   5.120
  684BOLB   GL216396  20.860  18.900   5.050
  684BOLB   C1A16397  20.550  19.380   4.840
  684BOLB   C2A16398  20.420  19.590   4.380
  684BOLB   C3A16399  20.310  19.570   3.940
  684BOLB   C4A16400  20.230  19.550   3.520
  684BOLB   C1B16401  20.960  19.250   4.740
  684BOLB   C2B16402  21.120  19.420   4.390
  684BOLB   C3B16403  21.280  19.810   4.210
  684BOLB   C4B16404  21.700  20.050   4.040
  684BOLB   NC216405  20.820  19.400   1.250
  684BOLB   PO216406  20.400  19.250   1.070
  684BOLB   GL316407  20.460  18.990   1.510
  684BOLB   GL416408  20.440  18.750   1.360
  684BOLB   C1C16409  20.370  19.070   1.960
  684BOLB   C2C16410  20.180  19.160   2.260
  684BOLB   C3C16411  20.170  19.340   2.700
  684BOLB   C4C16412  20.100  19.580   3.080
  684BOLB   C1D16413  19.980  18.810   1.290
  684BOLB   C2D16414  19.620  19.020   1.220
  684BOLB   C3D16415  19.180  19.120   1.330
  684BOLB   C4D16416  18.800  19.110   1.430
  685BOLB   NC116417  16.060   9.130   9.020
  685BOLB   PO116418  15.940   9.230   8.560
  685BOLB   GL116419  16.060   8.910   8.370
  685BOLB   GL216420  16.090   8.720   8.590
  685BOLB   C1A16421  15.970   8.540   8.130
  685BOLB   C2A16422  15.660   8.390   7.850
  685BOLB   C3A16423  15.160   8.310   7.920
  685BOLB   C4A16424  14.880   8.040   7.750
  685BOLB   C1B16425  16.080   8.260   8.570
  685BOLB   C2B16426  16.050   7.860   8.390
  685BOLB   C3B16427  15.950   7.550   8.100
  685BOLB   C4B16428  15.760   7.350   7.740
  685BOLB   NC216429  13.730   6.100   6.420
  685BOLB   PO216430  13.790   5.960   6.910
  685BOLB   GL316431  13.800   6.360   7.060
  685BOLB   GL416432  14.090   6.530   6.670
  685BOLB   C1C16433  13.770   6.840   7.230
  685BOLB   C2C16434  14.090   7.210   7.350
  685BOLB   C3C16435  14.490   7.300   7.640
  685BOLB   C4C16436  14.780   7.580   7.790
  685BOLB   C1D16437  14.230   6.900   6.940
  685BOLB   C2D16438  14.610   7.140   7.130
  685BOLB   C3D16439  14.930   7.190   7.340
  685BOLB   C4D16440  15.320   7.080   7.530
  686BOLB   NC116441  22.660  15.920   7.710
  686BOLB   PO116442  22.940  16.270   8.000
  686BOLB   GL116443  23.180  16.220   7.600
  686BOLB   GL216444  23.070  15.940   7.360
  686BOLB   C1A16445  23.560  16.380   7.390
  686BOLB   C2A16446  23.790  16.620   7.070
  686BOLB   C3A16447  24.110  16.400   7.050
  686BOLB   C4A16448  24.350  16.410   6.590
  686BOLB   C1B16449  23.370  15.980   7.090
  686BOLB   C2B16450  23.690  16.110   6.950
  686BOLB   C3B16451  23.790  16.370   6.590
  686BOLB   C4B16452  23.970  16.740   6.420
  686BOLB   NC216453  26.110  15.720   5.070
  686BOLB   PO216454  25.740  15.790   4.750
  686BOLB   GL316455  25.520  16.140   5.050
  686BOLB   GL416456  25.620  16.400   5.080
  686BOLB   C1C16457  25.330  16.310   5.490
  686BOLB   C2C16458  25.240  16.420   5.940
  686BOLB   C3C16459  24.890  16.110   6.150
  686BOLB   C4C16460  24.620  16.300   6.240
  686BOLB   C1D16461  25.260  16.700   5.050
  686BOLB   C2D16462  24.850  16.750   5.060
  686BOLB   C3D16463  24.430  16.430   5.100
  686BOLB   C4D16464  24.110  16.140   5.250
  687BOLB   NC116465  20.450   9.920  11.380
  687BOLB   PO116466  20.250   9.940  11.790
  687BOLB   GL116467  20.530   9.840  12.150
  687BOLB   GL216468  20.840   9.920  12.130
  687BOLB   C1A16469  20.560   9.380  12.560
  687BOLB   C2A16470  20.810   9.080  12.770
  687BOLB   C3A16471  20.960   8.770  12.890
  687BOLB   C4A16472  21.280   8.570  13.010
  687BOLB   C1B16473  21.070   9.550  11.930
  687BOLB   C2B16474  21.230   9.150  11.820
  687BOLB   C3B16475  21.580   8.840  11.770
  687BOLB   C4B16476  21.950   8.760  11.630
  687BOLB   NC216477  22.440   7.220  13.280
  687BOLB   PO216478  22.470   7.000  13.700
  687BOLB   GL316479  22.060   7.180  13.590
  687BOLB   GL416480  21.990   7.400  13.840
  687BOLB   C1C16481  21.700   7.260  13.340
  687BOLB   C2C16482  21.590   7.650  13.180
  687BOLB   C3C16483  21.790   8.090  13.140
  687BOLB   C4C16484  21.640   8.490  13.120
  687BOLB   C1D16485  21.730   7.760  13.720
  687BOLB   C2D16486  21.550   8.080  13.780
  687BOLB   C3D16487  21.260   8.330  13.990
  687BOLB   C4D16488  21.080   8.670  14.230
  688BOLB   NC116489  11.450  22.470  27.390
  688BOLB   PO116490  11.590  22.490  26.900
  688BOLB   GL116491  11.430  22.280  26.470
  688BOLB   GL216492  11.130  22.410  26.580
  688BOLB   C1A16493  11.560  22.160  26.010
  688BOLB   C2A16494  11.590  22.100  25.610
  688BOLB   C3A16495  11.600  22.290  25.260
  688BOLB   C4A16496  11.610  22.350  24.860
  688BOLB   C1B16497  11.060  22.330  26.180
  688BOLB   C2B16498  11.120  22.120  25.830
  688BOLB   C3B16499  11.190  22.080  25.360
  688BOLB   C4B16500  11.430  21.830  25.070
  688BOLB   NC216501  10.720  24.210  25.510
  688BOLB   PO216502  10.470  23.940  25.190
  688BOLB   GL316503  10.690  23.590  25.010
  688BOLB   GL416504  10.390  23.550  24.780
  688BOLB   C1C16505  10.890  23.240  24.890
  688BOLB   C2C16506  10.890  23.150  24.560
  688BOLB   C3C16507  11.080  22.840  24.490
  688BOLB   C4C16508  11.290  22.460  24.580
  688BOLB   C1D16509  10.350  23.140  24.840
  688BOLB   C2D16510  10.170  22.720  25.020
  688BOLB   C3D16511   9.910  22.350  24.940
  688BOLB   C4D16512   9.720  21.990  25.060
  689BOLB   NC116513  16.510  17.340   4.130
  689BOLB   PO116514  16.390  16.890   4.050
  689BOLB   GL116515  16.320  16.980   3.670
  689BOLB   GL216516  16.250  17.310   3.720
  689BOLB   C1A16517  16.120  16.910   3.360
  689BOLB   C2A16518  15.860  16.980   2.970
  689BOLB   C3A16519  15.650  17.180   2.580
  689BOLB   C4A16520  15.760  17.330   2.130
  689BOLB   C1B16521  15.930  17.410   3.410
  689BOLB   C2B16522  15.770  17.500   3.020
  689BOLB   C3B16523  15.460  17.520   2.880
  689BOLB   C4B16524  15.370  17.910   2.960
  689BOLB   NC216525  17.430  17.970   0.170
  689BOLB   PO216526  17.010  18.280   0.170
  689BOLB   GL316527  16.760  18.080   0.560
  689BOLB   GL416528  16.730  18.420   0.690
  689BOLB   C1C16529  16.360  17.800   0.760
  689BOLB   C2C16530  16.190  17.940   1.160
  689BOLB   C3C16531  15.860  17.810   1.490
  689BOLB   C4C16532  16.000  17.680   1.930
  689BOLB   C1D16533  16.560  18.200   1.010
  689BOLB   C2D16534  16.760  18.130   1.430
  689BOLB   C3D16535  17.130  18.250   1.670
  689BOLB   C4D16536  17.230  18.300   2.150
  690BOLB   NC116537  21.640  17.310   5.890
  690BOLB   PO116538  21.420  17.750   5.980
  690BOLB   GL116539  21.710  18.050   5.910
  690BOLB   GL216540  21.930  17.870   5.620
  690BOLB   C1A16541  22.060  18.320   5.750
  690BOLB   C2A16542  22.090  18.440   5.330
  690BOLB   C3A16543  22.340  18.420   5.020
  690BOLB   C4A16544  22.550  18.190   4.720
  690BOLB   C1B16545  22.130  17.490   5.420
  690BOLB   C2B16546  22.500  17.460   5.430
  690BOLB   C3B16547  22.860  17.200   5.260
  690BOLB   C4B16548  23.260  17.040   5.320
  690BOLB   NC216549  23.850  18.360   2.350
  690BOLB   PO216550  24.050  18.510   2.800
  690BOLB   GL316551  23.720  18.260   2.930
  690BOLB   GL416552  23.670  17.890   2.990
  690BOLB   C1C16553  23.450  18.330   3.220
  690BOLB   C2C16554  23.230  18.270   3.550
  690BOLB   C3C16555  23.080  18.150   3.950
  690BOLB   C4C16556  22.950  18.230   4.440
  690BOLB   C1D16557  23.330  17.780   3.330
  690BOLB   C2D16558  23.280  17.660   3.730
  690BOLB   C3D16559  23.110  17.630   4.230
  690BOLB   C4D16560  22.840  17.770   4.570
  691BOLB   NC116561  23.340  10.620   4.720
  691BOLB   PO116562  23.500  10.910   4.390
  691BOLB   GL116563  23.500  11.110   4.820
  691BOLB   GL216564  23.600  11.080   5.050
  691BOLB   C1A16565  23.230  11.440   4.880
  691BOLB   C2A16566  22.840  11.560   5.020
  691BOLB   C3A16567  22.440  11.410   5.310
  691BOLB   C4A16568  22.190  11.070   5.420
  691BOLB   C1B16569  23.440  11.280   5.410
  691BOLB   C2B16570  23.150  11.220   5.670
  691BOLB   C3B16571  22.970  11.340   6.100
  691BOLB   C4B16572  22.540  11.370   6.280
  691BOLB   NC216573  23.020   8.570   5.690
  691BOLB   PO216574  22.950   8.810   5.430
  691BOLB   GL316575  22.940   9.110   5.760
  691BOLB   GL416576  23.070   9.050   6.090
  691BOLB   C1C16577  22.880   9.460   5.960
  691BOLB   C2C16578  22.860   9.940   5.870
  691BOLB   C3C16579  22.480  10.210   5.720
  691BOLB   C4C16580  22.320  10.660   5.670
  691BOLB   C1D16581  23.190   9.360   6.400
  691BOLB   C2D16582  23.060   9.660   6.800
  691BOLB   C3D16583  22.930   9.950   7.130
  691BOLB   C4D16584  22.780   9.910   7.550
  692BOLB   NC116585  19.450  15.710  18.870
  692BOLB   PO116586  19.890  15.650  18.970
  692BOLB   GL116587  20.110  15.460  19.180
  692BOLB   GL216588  20.180  15.530  19.490
  692BOLB   C1A16589  20.370  15.030  19.310
  692BOLB   C2A16590  20.720  14.890  19.530
  692BOLB   C3A16591  21.150  14.990  19.630
  692BOLB   C4A16592  21.280  14.940  20.070
  692BOLB   C1B16593  20.370  15.680  19.800
  692BOLB   C2B16594  20.360  15.580  20.170
  692BOLB   C3B16595  20.080  15.360  20.520
  692BOLB   C4B16596  20.330  15.350  20.950
  692BOLB   NC216597  22.300  14.520  22.050
  692BOLB   PO216598  22.420  14.880  21.890
  692BOLB   GL316599  22.280  15.040  21.610
  692BOLB   GL416600  22.240  15.080  21.250
  692BOLB   C1C16601  21.860  15.060  21.500
  692BOLB   C2C16602  21.460  14.930  21.290
  692BOLB   C3C16603  21.380  14.880  20.820
  692BOLB   C4C16604  21.250  15.010  20.520
  692BOLB   C1D16605  22.180  15.230  20.830
  692BOLB   C2D16606  22.120  15.060  20.440
  692BOLB   C3D16607  22.290  14.840  20.080
  692BOLB   C4D16608  22.220  14.960  19.670
  693BOLB   NC116609  23.120  17.570   7.510
  693BOLB   PO116610  22.990  17.490   7.140
  693BOLB   GL116611  23.090  17.580   6.760
  693BOLB   GL216612  22.880  17.730   6.580
  693BOLB   C1A16613  23.350  17.440   6.390
  693BOLB   C2A16614  23.390  17.290   6.000
  693BOLB   C3A16615  23.630  16.980   5.620
  693BOLB   C4A16616  23.800  16.800   5.210
  693BOLB   C1B16617  23.110  18.070   6.460
  693BOLB   C2B16618  23.000  18.320   6.230
  693BOLB   C3B16619  22.940  18.650   5.810
  693BOLB   C4B16620  23.130  18.630   5.340
  693BOLB   NC216621  25.850  16.730   4.660
  693BOLB   PO216622  25.690  16.690   4.180
  693BOLB   GL316623  25.250  16.530   4.320
  693BOLB   GL416624  25.300  16.420   4.630
  693BOLB   C1C16625  24.810  16.590   4.450
  693BOLB   C2C16626  24.450  16.290   4.520
  693BOLB   C3C16627  24.030  16.350   4.660
  693BOLB   C4C16628  23.830  16.510   5.060
  693BOLB   C1D16629  24.990  16.230   4.810
  693BOLB   C2D16630  24.950  16.260   5.140
  693BOLB   C3D16631  24.740  16.410   5.480
  693BOLB   C4D16632  24.360  16.440   5.670
  694BOLB   NC116633  15.970  19.330  20.490
  694BOLB   PO116634  16.240  19.600  20.820
  694BOLB   GL116635  16.210  19.570  21.200
  694BOLB   GL216636  16.350  19.330  21.340
  694BOLB   C1A16637  16.090  19.660  21.590
  694BOLB   C2A16638  16.250  19.710  21.970
  694BOLB   C3A16639  16.460  19.890  22.400
  694BOLB   C4A16640  16.830  19.820  22.720
  694BOLB   C1B16641  15.860  19.250  21.310
  694BOLB   C2B16642  15.520  19.300  21.590
  694BOLB   C3B16643  15.400  19.120  21.990
  694BOLB   C4B16644  15.160  19.140  22.340
  694BOLB   NC216645  17.970  19.280  25.190
  694BOLB   PO216646  17.820  19.580  24.950
  694BOLB   GL316647  17.570  19.630  24.790
  694BOLB   GL416648  17.560  19.880  24.550
  694BOLB   C1C16649  17.320  19.480  24.350
  694BOLB   C2C16650  17.160  19.590  23.940
  694BOLB   C3C16651  17.100  19.670  23.460
  694BOLB   C4C16652  17.110  19.690  23.070
  694BOLB   C1D16653  17.600  19.840  24.100
  694BOLB   C2D16654  17.560  19.810  23.680
  694BOLB   C3D16655  17.470  19.930  23.330
  694BOLB   C4D16656  17.460  19.950  22.860
  695BOLB   NC116657  23.000  19.620  14.630
  695BOLB   PO116658  22.990  19.950  14.440
  695BOLB   GL116659  23.280  19.980  14.790
  695BOLB   GL216660  23.440  20.180  14.720
  695BOLB   C1A16661  23.790  19.850  14.950
  695BOLB   C2A16662  24.240  19.800  15.040
  695BOLB   C3A16663  24.490  19.510  15.200
  695BOLB   C4A16664  24.840  19.270  15.450
  695BOLB   C1B16665  23.690  20.140  14.380
  695BOLB   C2B16666  24.080  20.180  14.250
  695BOLB   C3B16667  24.400  20.260  14.300
  695BOLB   C4B16668  24.700  20.530  14.450
  695BOLB   NC216669  26.910  19.140  16.440
  695BOLB   PO216670  26.710  18.880  16.860
  695BOLB   GL316671  26.370  18.690  16.850
  695BOLB   GL416672  26.590  18.390  16.720
  695BOLB   C1C16673  25.970  18.740  16.560
  695BOLB   C2C16674  25.600  18.710  16.240
  695BOLB   C3C16675  25.230  18.840  15.960
  695BOLB   C4C16676  25.040  18.920  15.580
  695BOLB   C1D16677  26.490  18.600  16.270
  695BOLB   C2D16678  26.460  18.510  15.800
  695BOLB   C3D16679  26.360  18.850  15.690
  695BOLB   C4D16680  26.280  19.220  15.800
  696BOLB   NC116681  28.160  16.230  13.350
  696BOLB   PO116682  28.160  16.670  13.020
  696BOLB   GL116683  27.890  16.750  12.780
  696BOLB   GL216684  27.570  16.670  12.740
  696BOLB   C1A16685  27.680  17.150  12.630
  696BOLB   C2A16686  27.270  17.310  12.740
  696BOLB   C3A16687  26.840  17.370  12.700
  696BOLB   C4A16688  26.380  17.400  12.800
  696BOLB   C1B16689  27.250  16.830  12.900
  696BOLB   C2B16690  26.800  16.920  12.920
  696BOLB   C3B16691  26.460  16.950  13.150
  696BOLB   C4B16692  26.000  17.040  13.140
  696BOLB   NC216693  28.300  17.750  13.990
  696BOLB   PO216694  28.000  17.680  13.610
  696BOLB   GL316695  27.550  17.850  13.540
  696BOLB   GL416696  27.680  18.120  13.630
  696BOLB   C1C16697  27.070  17.650  13.620
  696BOLB   C2C16698  26.660  17.720  13.800
  696BOLB   C3C16699  26.290  17.600  13.680
  696BOLB   C4C16700  26.270  17.410  13.230
  696BOLB   C1D16701  27.180  18.120  13.410
  696BOLB   C2D16702  26.690  18.200  13.330
  696BOLB   C3D16703  26.280  18.000  13.370
  696BOLB   C4D16704  25.860  17.740  13.440
  697BOLB   NC116705  18.030  21.020  19.710
  697BOLB   PO116706  18.240  21.480  19.660
  697BOLB   GL116707  18.020  21.520  19.960
  697BOLB   GL216708  18.020  21.330  20.180
  697BOLB   C1A16709  17.960  21.840  20.230
  697BOLB   C2A16710  17.720  22.250  20.380
  697BOLB   C3A16711  17.940  22.680  20.380
  697BOLB   C4A16712  17.830  22.980  20.520
  697BOLB   C1B16713  18.270  21.530  20.520
  697BOLB   C2B16714  18.660  21.500  20.880
  697BOLB   C3B16715  18.910  21.270  21.190
  697BOLB   C4B16716  19.250  21.150  21.560
  697BOLB   NC216717  17.820  24.230  22.250
  697BOLB   PO216718  18.280  24.230  22.430
  697BOLB   GL316719  18.260  23.890  22.090
  697BOLB   GL416720  18.420  23.890  21.840
  697BOLB   C1C16721  17.840  23.690  21.900
  697BOLB   C2C16722  17.640  23.600  21.460
  697BOLB   C3C16723  17.780  23.570  21.080
  697BOLB   C4C16724  17.720  23.340  20.750
  697BOLB   C1D16725  18.260  23.420  21.840
  697BOLB   C2D16726  18.040  23.210  21.530
  697BOLB   C3D16727  17.640  23.020  21.270
  697BOLB   C4D16728  17.210  22.930  21.070
  698BOLB   NC116729  23.700  16.830  10.490
  698BOLB   PO116730  24.070  16.580  10.700
  698BOLB   GL116731  24.490  16.620  10.500
  698BOLB   GL216732  24.580  16.580  10.160
  698BOLB   C1A16733  24.880  16.560  10.710
  698BOLB   C2A16734  25.240  16.310  10.870
  698BOLB   C3A16735  25.630  15.970  10.930
  698BOLB   C4A16736  25.920  15.560  10.820
  698BOLB   C1B16737  25.010  16.640  10.210
  698BOLB   C2B16738  25.400  16.560  10.400
  698BOLB   C3B16739  25.700  16.450  10.710
  698BOLB   C4B16740  25.890  16.460  11.100
  698BOLB   NC216741  28.380  15.070  10.320
  698BOLB   PO216742  27.960  15.170  10.510
  698BOLB   GL316743  27.480  15.090  10.490
  698BOLB   GL416744  27.310  14.960  10.090
  698BOLB   C1C16745  27.160  15.370  10.400
  698BOLB   C2C16746  26.720  15.350  10.420
  698BOLB   C3C16747  26.390  15.080  10.570
  698BOLB   C4C16748  26.000  15.150  10.710
  698BOLB   C1D16749  26.980  14.650  10.230
  698BOLB   C2D16750  26.810  14.340  10.370
  698BOLB   C3D16751  26.590  14.000  10.360
  698BOLB   C4D16752  26.110  13.960  10.270
  699BOLB   NC116753  13.680  24.120  11.250
  699BOLB   PO116754  13.660  24.280  11.650
  699BOLB   GL116755  13.570  24.730  11.530
  699BOLB   GL216756  13.550  25.010  11.790
  699BOLB   C1A16757  13.540  25.110  11.270
  699BOLB   C2A16758  13.400  25.250  10.920
  699BOLB   C3A16759  13.070  25.510  10.810
  699BOLB   C4A16760  12.910  25.850  10.710
  699BOLB   C1B16761  13.080  24.990  11.610
  699BOLB   C2B16762  12.980  25.070  11.140
  699BOLB   C3B16763  12.890  24.800  10.680
  699BOLB   C4B16764  12.910  24.770  10.240
  699BOLB   NC216765  11.970  28.020  11.090
  699BOLB   PO216766  12.200  28.310  10.830
  699BOLB   GL316767  12.420  27.960  10.870
  699BOLB   GL416768  12.660  27.940  10.740
  699BOLB   C1C16769  12.440  27.480  10.970
  699BOLB   C2C16770  12.530  27.060  10.880
  699BOLB   C3C16771  12.620  26.610  10.730
  699BOLB   C4C16772  12.670  26.180  10.750
  699BOLB   C1D16773  12.800  27.550  10.660
  699BOLB   C2D16774  13.040  27.210  10.580
  699BOLB   C3D16775  13.030  26.860  10.350
  699BOLB   C4D16776  12.990  26.870   9.890
  700BOLB   NC116777  19.440  12.350   6.560
  700BOLB   PO116778  19.340  11.920   6.460
  700BOLB   GL116779  19.580  11.710   6.070
  700BOLB   GL216780  19.540  11.710   5.780
  700BOLB   C1A16781  19.820  11.340   5.930
  700BOLB   C2A16782  19.910  10.930   5.910
  700BOLB   C3A16783  20.070  10.510   6.090
  700BOLB   C4A16784  20.290  10.130   6.050
  700BOLB   C1B16785  19.450  11.320   5.540
  700BOLB   C2B16786  19.510  11.200   5.250
  700BOLB   C3B16787  19.500  11.250   4.850
  700BOLB   C4B16788  19.140  11.100   4.600
  700BOLB   NC216789  21.420   8.020   5.070
  700BOLB   PO216790  20.970   8.180   5.000
  700BOLB   GL316791  21.170   8.480   5.210
  700BOLB   GL416792  21.190   8.370   5.470
  700BOLB   C1C16793  21.220   8.910   5.390
  700BOLB   C2C16794  21.100   9.240   5.630
  700BOLB   C3C16795  20.980   9.640   5.760
  700BOLB   C4C16796  20.560   9.840   5.880
  700BOLB   C1D16797  21.130   8.640   5.770
  700BOLB   C2D16798  21.210   9.000   6.070
  700BOLB   C3D16799  21.100   9.340   6.190
  700BOLB   C4D16800  20.860   9.780   6.270
  701BOLB   NC116801  20.840  11.020   9.130
  701BOLB   PO116802  20.720  11.040   9.580
  701BOLB   GL116803  20.710  10.570   9.390
  701BOLB   GL216804  20.680  10.550   9.080
  701BOLB   C1A16805  20.920  10.050   9.560
  701BOLB   C2A16806  21.270   9.790   9.740
  701BOLB   C3A16807  21.570   9.550   9.550
  701BOLB   C4A16808  21.760   9.190   9.280
  701BOLB   C1B16809  20.850  10.160   9.030
  701BOLB   C2B16810  21.050   9.740   8.760
  701BOLB   C3B16811  21.300   9.400   8.620
  701BOLB   C4B16812  21.690   9.280   8.510
  701BOLB   NC216813  22.690   6.810   8.660
  701BOLB   PO216814  22.830   7.240   8.620
  701BOLB   GL316815  22.820   7.650   8.810
  701BOLB   GL416816  23.070   7.840   8.840
  701BOLB   C1C16817  22.610   7.880   9.120
  701BOLB   C2C16818  22.530   8.250   9.080
  701BOLB   C3C16819  22.570   8.740   9.070
  701BOLB   C4C16820  22.290   9.080   9.180
  701BOLB   C1D16821  22.720   8.050   8.510
  701BOLB   C2D16822  22.590   8.440   8.630
  701BOLB   C3D16823  22.250   8.640   8.730
  701BOLB   C4D16824  22.030   8.980   8.770
  702BOLB   NC116825  23.750  20.980  10.430
  702BOLB   PO116826  23.500  21.240  10.100
  702BOLB   GL116827  23.840  21.450  10.250
  702BOLB   GL216828  23.760  21.790  10.360
  702BOLB   C1A16829  24.270  21.580  10.240
  702BOLB   C2A16830  24.670  21.720  10.270
  702BOLB   C3A16831  25.060  21.510  10.260
  702BOLB   C4A16832  25.410  21.300  10.000
  702BOLB   C1B16833  24.020  22.050  10.110
  702BOLB   C2B16834  24.460  22.140  10.100
  702BOLB   C3B16835  24.690  22.460  10.290
  702BOLB   C4B16836  24.650  22.750  10.650
  702BOLB   NC216837  27.450  21.610   8.870
  702BOLB   PO216838  27.250  21.980   8.860
  702BOLB   GL316839  26.900  21.680   9.000
  702BOLB   GL416840  26.910  21.410   8.820
  702BOLB   C1C16841  26.470  21.540   8.870
  702BOLB   C2C16842  26.120  21.340   9.090
  702BOLB   C3C16843  25.820  21.370   9.350
  702BOLB   C4C16844  25.690  21.340   9.690
  702BOLB   C1D16845  26.770  21.260   8.480
  702BOLB   C2D16846  26.580  21.330   8.090
  702BOLB   C3D16847  26.360  21.180   7.820
  702BOLB   C4D16848  26.260  21.220   7.370
  703BOLB   NC116849  18.270  17.580   4.650
  703BOLB   PO116850  18.650  17.390   4.620
  703BOLB   GL116851  18.840  17.660   4.190
  703BOLB   GL216852  18.450  17.590   4.160
  703BOLB   C1A16853  18.900  17.950   3.900
  703BOLB   C2A16854  18.870  18.150   3.550
  703BOLB   C3A16855  18.890  18.390   3.170
  703BOLB   C4A16856  18.850  18.720   2.790
  703BOLB   C1B16857  18.610  17.490   3.810
  703BOLB   C2B16858  18.770  17.580   3.510
  703BOLB   C3B16859  18.720  17.510   3.150
  703BOLB   C4B16860  18.680  17.430   2.790
  703BOLB   NC216861  18.060  19.040   0.310
  703BOLB   PO216862  18.290  19.140   0.650
  703BOLB   GL316863  18.400  19.210   1.100
  703BOLB   GL416864  18.600  19.480   1.160
  703BOLB   C1C16865  18.240  19.320   1.400
  703BOLB   C2C16866  18.340  19.210   1.740
  703BOLB   C3C16867  18.390  19.070   2.110
  703BOLB   C4C16868  18.490  18.880   2.520
  703BOLB   C1D16869  18.610  19.610   1.590
  703BOLB   C2D16870  18.370  19.600   2.000
  703BOLB   C3D16871  18.130  19.690   2.350
  703BOLB   C4D16872  18.070  19.900   2.780
  704BOLB   NC116873  26.060  25.790  11.120
  704BOLB   PO116874  25.860  25.810  10.710
  704BOLB   GL116875  25.520  25.480  11.030
  704BOLB   GL216876  25.220  25.500  11.160
  704BOLB   C1A16877  25.490  25.080  10.920
  704BOLB   C2A16878  25.270  24.740  10.870
  704BOLB   C3A16879  25.020  24.490  10.740
  704BOLB   C4A16880  24.840  24.390  10.360
  704BOLB   C1B16881  24.710  25.490  11.000
  704BOLB   C2B16882  24.400  25.190  11.140
  704BOLB   C3B16883  24.190  24.770  11.130
  704BOLB   C4B16884  23.980  24.610  10.700
  704BOLB   NC216885  24.960  26.420  11.350
  704BOLB   PO216886  24.620  26.570  10.930
  704BOLB   GL316887  24.360  26.350  10.690
  704BOLB   GL416888  24.130  26.200  10.460
  704BOLB   C1C16889  24.470  25.910  10.590
  704BOLB   C2C16890  24.450  25.440  10.550
  704BOLB   C3C16891  24.640  25.090  10.220
  704BOLB   C4C16892  24.680  24.630  10.170
  704BOLB   C1D16893  24.060  25.780  10.410
  704BOLB   C2D16894  23.940  25.360  10.270
  704BOLB   C3D16895  23.760  24.990  10.050
  704BOLB   C4D16896  23.680  24.550  10.190
  705BOLB   NC116897  20.050  20.150   5.990
  705BOLB   PO116898  19.770  20.220   6.300
  705BOLB   GL116899  19.820  20.590   6.050
  705BOLB   GL216900  19.840  20.520   5.720
  705BOLB   C1A16901  19.900  21.030   5.770
  705BOLB   C2A16902  20.000  21.080   5.380
  705BOLB   C3A16903  20.320  21.120   5.130
  705BOLB   C4A16904  20.600  21.030   4.810
  705BOLB   C1B16905  19.560  20.790   5.540
  705BOLB   C2B16906  19.200  21.000   5.300
  705BOLB   C3B16907  18.940  21.250   5.100
  705BOLB   C4B16908  18.840  21.560   4.770
  705BOLB   NC216909  21.490  22.160   2.650
  705BOLB   PO216910  21.800  22.210   2.890
  705BOLB   GL316911  21.630  22.070   3.170
  705BOLB   GL416912  21.900  22.110   3.480
  705BOLB   C1C16913  21.530  21.760   3.490
  705BOLB   C2C16914  21.250  21.590   3.850
  705BOLB   C3C16915  21.060  21.270   4.160
  705BOLB   C4C16916  20.750  21.060   4.440
  705BOLB   C1D16917  21.860  21.930   3.840
  705BOLB   C2D16918  21.590  21.790   4.150
  705BOLB   C3D16919  21.380  21.600   4.410
  705BOLB   C4D16920  21.180  21.350   4.680
  706BOLB   NC116921  24.030  19.300  11.820
  706BOLB   PO116922  24.090  19.470  12.240
  706BOLB   GL116923  24.340  19.730  11.970
  706BOLB   GL216924  24.180  20.080  12.070
  706BOLB   C1A16925  24.670  20.050  11.890
  706BOLB   C2A16926  24.950  20.440  11.920
  706BOLB   C3A16927  25.240  20.570  12.250
  706BOLB   C4A16928  25.410  20.920  12.350
  706BOLB   C1B16929  24.430  20.380  12.250
  706BOLB   C2B16930  24.750  20.620  12.440
  706BOLB   C3B16931  24.950  20.980  12.430
  706BOLB   C4B16932  25.250  21.260  12.610
  706BOLB   NC216933  27.320  22.040  13.220
  706BOLB   PO216934  27.200  21.620  13.110
  706BOLB   GL316935  26.980  21.920  12.800
  706BOLB   GL416936  26.870  22.290  12.860
  706BOLB   C1C16937  26.760  21.890  12.560
  706BOLB   C2C16938  26.380  21.720  12.290
  706BOLB   C3C16939  25.970  21.400  12.360
  706BOLB   C4C16940  25.630  21.180  12.290
  706BOLB   C1D16941  26.540  21.990  13.010
  706BOLB   C2D16942  26.250  21.690  12.780
  706BOLB   C3D16943  25.840  21.570  13.060
  706BOLB   C4D16944  25.780  21.670  13.450
  707BOLB   NC116945   9.860  19.810   8.430
  707BOLB   PO116946   9.820  19.320   8.320
  707BOLB   GL116947   9.550  19.630   8.150
  707BOLB   GL216948   9.700  19.880   7.970
  707BOLB   C1A16949   9.170  19.910   7.910
  707BOLB   C2A16950   8.800  20.180   7.900
  707BOLB   C3A16951   8.650  20.200   7.560
  707BOLB   C4A16952   8.260  20.230   7.360
  707BOLB   C1B16953   9.610  20.070   7.580
  707BOLB   C2B16954   9.660  20.360   7.170
  707BOLB   C3B16955   9.270  20.430   6.880
  707BOLB   C4B16956   8.910  20.370   6.670
  707BOLB   NC216957   6.180  20.480   6.630
  707BOLB   PO216958   5.880  20.230   6.830
  707BOLB   GL316959   6.230  20.090   7.120
  707BOLB   GL416960   5.980  19.800   7.310
  707BOLB   C1C16961   6.580  19.910   7.180
  707BOLB   C2C16962   6.980  19.930   6.930
  707BOLB   C3C16963   7.460  20.190   6.830
  707BOLB   C4C16964   7.890  20.140   7.060
  707BOLB   C1D16965   6.300  20.040   7.650
  707BOLB   C2D16966   6.550  20.100   8.040
  707BOLB   C3D16967   6.890  19.810   8.220
  707BOLB   C4D16968   7.320  19.730   8.500
  708BOLB   NC116969  20.220  16.040  18.770
  708BOLB   PO116970  19.830  16.170  19.010
  708BOLB   GL116971  20.110  16.240  19.290
  708BOLB   GL216972  19.960  15.990  19.630
  708BOLB   C1A16973  20.520  16.070  19.490
  708BOLB   C2A16974  20.770  16.030  19.810
  708BOLB   C3A16975  20.930  15.790  20.030
  708BOLB   C4A16976  21.290  15.550  20.140
  708BOLB   C1B16977  20.270  16.140  19.980
  708BOLB   C2B16978  20.590  15.970  20.350
  708BOLB   C3B16979  21.010  15.810  20.520
  708BOLB   C4B16980  21.370  16.090  20.520
  708BOLB   NC216981  22.870  14.690  22.130
  708BOLB   PO216982  22.800  14.420  21.840
  708BOLB   GL316983  22.460  14.480  21.560
  708BOLB   GL416984  22.280  14.200  21.500
  708BOLB   C1C16985  22.170  14.600  21.190
  708BOLB   C2C16986  21.840  14.930  20.990
  708BOLB   C3C16987  21.700  15.240  20.630
  708BOLB   C4C16988  21.640  15.680  20.460
  708BOLB   C1D16989  21.890  14.170  21.270
  708BOLB   C2D16990  21.670  14.470  20.950
  708BOLB   C3D16991  21.440  14.360  20.690
  708BOLB   C4D16992  21.100  14.510  20.450
  709BOLB   NC116993  21.870  15.610  16.600
  709BOLB   PO116994  22.230  15.280  16.380
  709BOLB   GL116995  22.710  15.180  16.510
  709BOLB   GL216996  22.850  15.000  16.260
  709BOLB   C1A16997  22.920  14.990  16.850
  709BOLB   C2A16998  23.250  15.040  17.160
  709BOLB   C3A16999  23.510  14.730  17.480
  709BOLB   C4A17000  23.850  14.940  17.670
  709BOLB   C1B17001  23.160  14.780  16.150
  709BOLB   C2B17002  23.640  14.650  16.350
  709BOLB   C3B17003  24.070  14.570  16.640
  709BOLB   C4B17004  24.420  14.520  16.990
  709BOLB   NC217005  26.030  14.400  17.900
  709BOLB   PO217006  25.930  14.790  18.010
  709BOLB   GL317007  25.520  14.910  17.920
  709BOLB   GL417008  25.210  14.790  18.120
  709BOLB   C1C17009  25.290  15.000  17.630
  709BOLB   C2C17010  24.930  15.090  17.650
  709BOLB   C3C17011  24.530  15.140  17.720
  709BOLB   C4C17012  24.180  15.240  17.540
  709BOLB   C1D17013  24.840  14.660  17.840
  709BOLB   C2D17014  24.730  14.620  17.490
  709BOLB   C3D17015  24.580  14.940  17.230
  709BOLB   C4D17016  24.640  15.170  16.930
  710BOLB   NC117017  23.470  20.920  12.900
  710BOLB   PO117018  23.640  20.600  13.150
  710BOLB   GL117019  23.950  20.560  13.420
  710BOLB   GL217020  24.220  20.420  13.340
  710BOLB   C1A17021  24.270  20.820  13.600
  710BOLB   C2A17022  24.620  20.760  13.900
  710BOLB   C3A17023  24.940  20.980  13.910
  710BOLB   C4A17024  25.230  21.210  14.230
  710BOLB   C1B17025  24.620  20.460  13.390
  710BOLB   C2B17026  25.010  20.520  13.590
  710BOLB   C3B17027  25.400  20.530  13.310
  710BOLB   C4B17028  25.730  20.650  13.110
  710BOLB   NC217029  27.230  21.490  14.910
  710BOLB   PO217030  27.350  21.900  15.140
  710BOLB   GL317031  26.960  22.160  15.130
  710BOLB   GL417032  26.620  22.310  15.330
  710BOLB   C1C17033  26.540  22.020  14.950
  710BOLB   C2C17034  26.140  21.950  14.860
  710BOLB   C3C17035  25.700  21.790  14.730
  710BOLB   C4C17036  25.360  21.580  14.480
  710BOLB   C1D17037  26.310  22.450  15.050
  710BOLB   C2D17038  25.850  22.530  15.090
  710BOLB   C3D17039  25.530  22.570  14.840
  710BOLB   C4D17040  25.520  22.520  14.380
  711BOLB   NC117041  12.400  23.900  11.580
  711BOLB   PO117042  12.450  23.950  12.000
  711BOLB   GL117043  12.340  24.300  11.970
  711BOLB   GL217044  12.660  24.500  12.080
  711BOLB   C1A17045  12.180  24.690  11.980
  711BOLB   C2A17046  11.980  25.030  11.720
  711BOLB   C3A17047  11.750  25.260  12.020
  711BOLB   C4A17048  11.450  25.460  11.980
  711BOLB   C1B17049  12.690  24.920  12.020
  711BOLB   C2B17050  12.560  25.260  11.870
  711BOLB   C3B17051  12.270  25.490  11.900
  711BOLB   C4B17052  11.940  25.690  12.020
  711BOLB   NC217053  10.000  27.300  12.080
  711BOLB   PO217054  10.140  27.440  11.750
  711BOLB   GL317055  10.230  27.100  11.650
  711BOLB   GL417056  10.260  26.850  11.380
  711BOLB   C1C17057  10.280  26.730  11.970
  711BOLB   C2C17058  10.480  26.260  11.840
  711BOLB   C3C17059  10.750  25.900  11.940
  711BOLB   C4C17060  11.090  25.670  12.050
  711BOLB   C1D17061  10.350  26.490  11.420
  711BOLB   C2D17062  10.460  26.100  11.350
  711BOLB   C3D17063  10.730  25.680  11.450
  711BOLB   C4D17064  10.890  25.400  11.660
  712BOLB   NC117065   2.500  23.940  17.340
  712BOLB   PO117066   2.790  23.730  17.280
  712BOLB   GL117067   3.220  23.690  17.220
  712BOLB   GL217068   3.470  23.680  17.480
  712BOLB   C1A17069   3.670  23.660  17.000
  712BOLB   C2A17070   4.030  23.750  17.140
  712BOLB   C3A17071   4.390  23.700  17.300
  712BOLB   C4A17072   4.830  23.640  17.460
  712BOLB   C1B17073   3.480  23.250  17.220
  712BOLB   C2B17074   3.710  22.870  17.040
  712BOLB   C3B17075   3.670  22.540  16.800
  712BOLB   C4B17076   3.450  22.180  16.490
  712BOLB   NC217077   4.610  25.100  18.380
  712BOLB   PO217078   4.150  25.150  18.390
  712BOLB   GL317079   4.220  24.710  18.540
  712BOLB   GL417080   4.490  24.800  18.810
  712BOLB   C1C17081   4.530  24.410  18.410
  712BOLB   C2C17082   4.930  24.280  18.190
  712BOLB   C3C17083   5.180  24.180  17.880
  712BOLB   C4C17084   5.130  23.890  17.630
  712BOLB   C1D17085   4.950  24.620  18.630
  712BOLB   C2D17086   5.180  24.310  18.660
  712BOLB   C3D17087   5.070  24.100  18.980
  712BOLB   C4D17088   5.080  23.920  19.310
  713BOLB   NC117089  12.410  21.780   2.240
  713BOLB   PO117090  12.740  21.610   2.200
  713BOLB   GL117091  13.110  21.330   2.440
  713BOLB   GL217092  12.960  21.370   2.740
  713BOLB   C1A17093  13.110  20.920   2.570
  713BOLB   C2A17094  13.250  20.590   2.800
  713BOLB   C3A17095  13.070  20.470   3.220
  713BOLB   C4A17096  13.180  20.790   3.620
  713BOLB   C1B17097  12.650  21.320   3.050
  713BOLB   C2B17098  12.680  21.190   3.510
  713BOLB   C3B17099  12.690  20.790   3.750
  713BOLB   C4B17100  12.680  20.540   4.160
  713BOLB   NC217101  12.350  22.740   2.420
  713BOLB   PO217102  12.150  22.610   2.880
  713BOLB   GL317103  12.500  22.810   2.980
  713BOLB   GL417104  12.410  22.780   3.380
  713BOLB   C1C17105  12.890  22.540   3.190
  713BOLB   C2C17106  12.980  22.110   3.390
  713BOLB   C3C17107  13.250  21.820   3.580
  713BOLB   C4C17108  13.280  21.260   3.670
  713BOLB   C1D17109  12.500  22.670   3.750
  713BOLB   C2D17110  12.740  22.640   4.050
  713BOLB   C3D17111  12.760  22.380   4.490
  713BOLB   C4D17112  12.450  22.370   4.710
  714BOLB   NC117113   1.190  15.400  16.640
  714BOLB   PO117114   1.230  14.880  16.640
  714BOLB   GL117115   1.620  15.080  16.570
  714BOLB   GL217116   1.800  15.090  16.900
  714BOLB   C1A17117   1.930  14.870  16.420
  714BOLB   C2A17118   2.310  14.800  16.570
  714BOLB   C3A17119   2.710  14.660  16.600
  714BOLB   C4A17120   2.890  14.310  16.270
  714BOLB   C1B17121   2.100  15.320  16.600
  714BOLB   C2B17122   2.430  15.350  16.400
  714BOLB   C3B17123   2.850  15.150  16.430
  714BOLB   C4B17124   3.140  15.350  16.180
  714BOLB   NC217125   1.400  13.350  14.110
  714BOLB   PO217126   1.460  13.190  14.510
  714BOLB   GL317127   1.800  13.520  14.630
  714BOLB   GL417128   2.030  13.550  14.340
  714BOLB   C1C17129   2.000  13.750  14.910
  714BOLB   C2C17130   2.260  14.060  15.050
  714BOLB   C3C17131   2.510  14.000  15.490
  714BOLB   C4C17132   2.810  14.110  15.850
  714BOLB   C1D17133   2.310  13.360  14.640
  714BOLB   C2D17134   2.660  13.270  14.760
  714BOLB   C3D17135   2.720  12.890  15.010
  714BOLB   C4D17136   2.870  12.730  15.360
  715BOLB   NC117137  20.510  20.990  18.280
  715BOLB   PO117138  20.600  20.570  18.350
  715BOLB   GL117139  20.990  20.690  18.320
  715BOLB   GL217140  21.230  20.550  18.220
  715BOLB   C1A17141  21.380  20.880  18.640
  715BOLB   C2A17142  21.670  21.120  18.870
  715BOLB   C3A17143  21.970  21.320  19.180
  715BOLB   C4A17144  22.080  21.820  19.220
  715BOLB   C1B17145  21.710  20.500  18.480
  715BOLB   C2B17146  21.910  20.740  18.700
  715BOLB   C3B17147  22.390  20.590  18.980
  715BOLB   C4B17148  22.620  20.410  19.170
  715BOLB   NC217149  23.600  23.550  20.680
  715BOLB   PO217150  23.370  23.670  20.240
  715BOLB   GL317151  23.040  23.490  20.110
  715BOLB   GL417152  22.840  23.650  19.920
  715BOLB   C1C17153  22.860  23.130  19.860
  715BOLB   C2C17154  22.590  22.790  19.640
  715BOLB   C3C17155  22.390  22.630  19.360
  715BOLB   C4C17156  22.110  22.260  19.080
  715BOLB   C1D17157  22.380  23.320  19.960
  715BOLB   C2D17158  21.990  23.220  19.920
  715BOLB   C3D17159  21.740  22.860  19.980
  715BOLB   C4D17160  21.460  22.580  19.760
  716BOLB   NC117161  18.240  23.040  18.380
  716BOLB   PO117162  18.390  22.730  18.560
  716BOLB   GL117163  18.580  22.960  18.830
  716BOLB   GL217164  18.620  23.300  18.700
  716BOLB   C1A17165  18.860  22.850  19.140
  716BOLB   C2A17166  19.200  22.970  19.340
  716BOLB   C3A17167  19.610  23.120  19.460
  716BOLB   C4A17168  19.760  23.250  19.880
  716BOLB   C1B17169  18.670  23.480  19.160
  716BOLB   C2B17170  18.740  23.390  19.590
  716BOLB   C3B17171  19.220  23.510  19.840
  716BOLB   C4B17172  19.480  23.570  20.170
  716BOLB   NC217173  20.790  24.230  21.970
  716BOLB   PO217174  21.070  24.370  21.660
  716BOLB   GL317175  20.910  24.190  21.280
  716BOLB   GL417176  20.730  24.430  21.120
  716BOLB   C1C17177  20.790  23.840  20.990
  716BOLB   C2C17178  20.500  23.540  20.810
  716BOLB   C3C17179  20.280  23.250  20.550
  716BOLB   C4C17180  20.060  23.310  20.190
  716BOLB   C1D17181  20.600  24.160  20.680
  716BOLB   C2D17182  20.230  24.240  20.450
  716BOLB   C3D17183  19.810  24.040  20.200
  716BOLB   C4D17184  19.830  23.730  19.840
  717BOLB   NC117185  25.810  12.330  17.730
  717BOLB   PO117186  25.680  12.730  17.600
  717BOLB   GL117187  25.180  12.780  17.650
  717BOLB   GL217188  25.080  12.700  17.440
  717BOLB   C1A17189  24.770  12.980  17.610
  717BOLB   C2A17190  24.300  13.030  17.520
  717BOLB   C3A17191  23.950  13.330  17.540
  717BOLB   C4A17192  23.700  13.650  17.290
  717BOLB   C1B17193  24.950  12.440  17.110
  717BOLB   C2B17194  24.690  12.140  16.790
  717BOLB   C3B17195  24.400  12.100  16.460
  717BOLB   C4B17196  24.000  12.350  16.320
  717BOLB   NC217197  21.820  15.150  16.210
  717BOLB   PO217198  21.750  14.800  16.390
  717BOLB   GL317199  21.930  14.590  16.680
  717BOLB   GL417200  21.750  14.380  16.990
  717BOLB   C1C17201  22.240  14.380  16.850
  717BOLB   C2C17202  22.600  14.150  16.990
  717BOLB   C3C17203  23.010  14.060  16.850
  717BOLB   C4C17204  23.430  13.940  17.010
  717BOLB   C1D17205  21.990  14.270  17.290
  717BOLB   C2D17206  22.250  14.160  17.620
  717BOLB   C3D17207  22.450  14.160  17.930
  717BOLB   C4D17208  22.880  14.160  18.130
  718BOLB   NC117209  17.580  24.160  17.680
  718BOLB   PO117210  17.820  24.080  17.310
  718BOLB   GL117211  18.020  24.310  17.700
  718BOLB   GL217212  17.940  24.700  17.690
  718BOLB   C1A17213  18.120  24.520  18.100
  718BOLB   C2A17214  18.480  24.740  18.420
  718BOLB   C3A17215  18.800  24.850  18.700
  718BOLB   C4A17216  19.030  25.200  18.980
  718BOLB   C1B17217  18.170  25.040  17.810
  718BOLB   C2B17218  18.440  25.220  18.150
  718BOLB   C3B17219  18.410  25.200  18.650
  718BOLB   C4B17220  17.990  25.100  18.740
  718BOLB   NC217221  20.770  26.440  20.310
  718BOLB   PO217222  20.840  26.000  20.260
  718BOLB   GL317223  20.750  25.990  19.820
  718BOLB   GL417224  21.020  25.910  19.620
  718BOLB   C1C17225  20.450  25.810  19.630
  718BOLB   C2C17226  20.070  25.700  19.310
  718BOLB   C3C17227  19.620  25.630  19.280
  718BOLB   C4C17228  19.340  25.290  19.240
  718BOLB   C1D17229  21.180  25.740  19.210
  718BOLB   C2D17230  21.390  25.620  18.930
  718BOLB   C3D17231  21.520  25.290  18.590
  718BOLB   C4D17232  21.280  25.130  18.260
  719BOLB   NC117233  12.320   6.120  23.690
  719BOLB   PO117234  12.170   5.970  23.330
  719BOLB   GL117235  12.130   6.200  22.960
  719BOLB   GL217236  12.220   6.470  23.180
  719BOLB   C1A17237  12.050   6.490  22.680
  719BOLB   C2A17238  11.830   6.880  22.450
  719BOLB   C3A17239  11.890   7.260  22.480
  719BOLB   C4A17240  12.040   7.490  22.090
  719BOLB   C1B17241  12.460   6.910  23.230
  719BOLB   C2B17242  12.790   7.220  23.120
  719BOLB   C3B17243  12.930   7.290  22.670
  719BOLB   C4B17244  12.850   7.070  22.380
  719BOLB   NC217245  12.770   5.710  22.520
  719BOLB   PO217246  12.320   5.630  22.340
  719BOLB   GL317247  12.370   6.050  22.450
  719BOLB   GL417248  12.080   6.150  22.320
  719BOLB   C1C17249  12.480   6.490  22.330
  719BOLB   C2C17250  12.710   6.730  22.010
  719BOLB   C3C17251  12.470   7.030  21.710
  719BOLB   C4C17252  12.130   7.340  21.670
  719BOLB   C1D17253  12.330   6.120  21.980
  719BOLB   C2D17254  12.310   5.960  21.580
  719BOLB   C3D17255  12.280   5.800  21.160
  719BOLB   C4D17256  12.280   5.570  20.800
  720BOLB   NC117257  11.720  24.040  25.600
  720BOLB   PO117258  11.480  23.770  25.420
  720BOLB   GL117259  11.670  23.630  25.120
  720BOLB   GL217260  11.880  23.940  25.090
  720BOLB   C1A17261  11.750  23.600  24.740
  720BOLB   C2A17262  12.090  23.800  24.610
  720BOLB   C3A17263  12.280  23.840  24.160
  720BOLB   C4A17264  12.370  23.900  23.810
  720BOLB   C1B17265  11.640  24.070  24.750
  720BOLB   C2B17266  11.680  23.900  24.290
  720BOLB   C3B17267  11.630  23.470  24.190
  720BOLB   C4B17268  12.070  23.310  24.420
  720BOLB   NC217269  12.230  26.180  23.720
  720BOLB   PO217270  12.340  26.040  23.360
  720BOLB   GL317271  12.250  25.630  23.360
  720BOLB   GL417272  11.970  25.570  23.510
  720BOLB   C1C17273  12.130  25.280  23.120
  720BOLB   C2C17274  12.250  24.800  22.960
  720BOLB   C3C17275  12.480  24.410  23.120
  720BOLB   C4C17276  12.450  24.140  23.430
  720BOLB   C1D17277  11.610  25.320  23.390
  720BOLB   C2D17278  11.290  25.020  23.420
  720BOLB   C3D17279  11.100  24.570  23.570
  720BOLB   C4D17280  11.080  24.080  23.320
  721BOLB   NC117281   5.650  11.110  22.690
  721BOLB   PO117282   5.460  11.350  22.340
  721BOLB   GL117283   5.790  11.460  22.120
  721BOLB   GL217284   6.100  11.760  22.110
  721BOLB   C1A17285   5.790  11.560  21.690
  721BOLB   C2A17286   5.930  11.710  21.300
  721BOLB   C3A17287   6.180  11.690  21.080
  721BOLB   C4A17288   6.550  11.640  21.280
  721BOLB   C1B17289   6.550  11.770  22.190
  721BOLB   C2B17290   6.860  12.080  21.980
  721BOLB   C3B17291   6.900  12.570  21.990
  721BOLB   C4B17292   7.250  12.750  22.110
  721BOLB   NC217293   6.170  10.480  22.290
  721BOLB   PO217294   6.350  10.440  22.740
  721BOLB   GL317295   6.630  10.590  22.550
  721BOLB   GL417296   6.750  10.320  22.380
  721BOLB   C1C17297   6.700  11.010  22.420
  721BOLB   C2C17298   6.930  11.190  22.100
  721BOLB   C3C17299   6.960  11.560  21.860
  721BOLB   C4C17300   6.890  11.810  21.520
  721BOLB   C1D17301   6.890  10.650  22.030
  721BOLB   C2D17302   7.060  10.790  21.720
  721BOLB   C3D17303   7.110  10.800  21.300
  721BOLB   C4D17304   7.380  10.840  21.040
  722BOLB   NC117305  17.740  25.020  14.280
  722BOLB   PO117306  18.010  25.270  14.070
  722BOLB   GL117307  18.150  25.690  14.150
  722BOLB   GL217308  18.270  25.650  13.780
  722BOLB   C1A17309  18.270  26.050  14.360
  722BOLB   C2A17310  18.320  26.510  14.600
  722BOLB   C3A17311  18.630  26.850  14.850
  722BOLB   C4A17312  18.890  26.970  15.150
  722BOLB   C1B17313  18.250  26.170  13.790
  722BOLB   C2B17314  18.370  26.440  13.660
  722BOLB   C3B17315  18.410  26.810  13.480
  722BOLB   C4B17316  18.460  27.250  13.380
  722BOLB   NC217317  20.050  28.570  16.080
  722BOLB   PO217318  19.650  28.690  16.230
  722BOLB   GL317319  19.590  28.370  16.330
  722BOLB   GL417320  19.700  28.360  16.640
  722BOLB   C1C17321  19.200  28.080  16.360
  722BOLB   C2C17322  18.990  27.920  15.950
  722BOLB   C3C17323  19.060  27.650  15.500
  722BOLB   C4C17324  19.130  27.260  15.300
  722BOLB   C1D17325  19.700  27.930  16.650
  722BOLB   C2D17326  19.560  27.610  16.370
  722BOLB   C3D17327  19.270  27.110  16.380
  722BOLB   C4D17328  19.040  26.650  16.350
  723BOLB   NC117329   3.640  22.240  13.060
  723BOLB   PO117330   3.590  22.500  13.440
  723BOLB   GL117331   3.900  22.200  13.560
  723BOLB   GL217332   4.220  22.350  13.750
  723BOLB   C1A17333   3.890  21.950  13.960
  723BOLB   C2A17334   3.500  21.780  14.140
  723BOLB   C3A17335   3.450  21.430  14.540
  723BOLB   C4A17336   3.620  21.660  15.000
  723BOLB   C1B17337   4.660  22.170  13.720
  723BOLB   C2B17338   5.020  21.990  13.850
  723BOLB   C3B17339   5.430  21.920  13.720
  723BOLB   C4B17340   5.820  21.890  13.470
  723BOLB   NC217341   3.510  23.690  15.790
  723BOLB   PO217342   3.590  23.630  15.400
  723BOLB   GL317343   3.830  23.420  15.340
  723BOLB   GL417344   4.100  23.420  15.630
  723BOLB   C1C17345   3.800  22.970  15.400
  723BOLB   C2C17346   3.730  22.640  15.400
  723BOLB   C3C17347   3.700  22.320  15.620
  723BOLB   C4C17348   3.670  21.990  15.420
  723BOLB   C1D17349   4.310  23.000  15.440
  723BOLB   C2D17350   4.160  22.620  15.190
  723BOLB   C3D17351   4.010  22.200  15.130
  723BOLB   C4D17352   4.250  21.920  14.870
  724BOLB   NC117353   7.530  22.080  25.800
  724BOLB   PO117354   7.670  21.690  25.790
  724BOLB   GL117355   7.920  21.610  25.430
  724BOLB   GL217356   7.890  21.230  25.390
  724BOLB   C1A17357   7.820  21.460  24.990
  724BOLB   C2A17358   7.870  21.540  24.570
  724BOLB   C3A17359   7.970  21.640  24.140
  724BOLB   C4A17360   8.080  21.550  23.740
  724BOLB   C1B17361   8.000  20.940  25.090
  724BOLB   C2B17362   7.900  20.880  24.730
  724BOLB   C3B17363   8.160  20.690  24.490
  724BOLB   C4B17364   8.560  20.530  24.430
  724BOLB   NC217365   6.470  23.560  23.770
  724BOLB   PO217366   6.320  23.100  23.560
  724BOLB   GL317367   6.800  23.070  23.470
  724BOLB   GL417368   6.660  23.310  23.230
  724BOLB   C1C17369   7.150  22.850  23.390
  724BOLB   C2C17370   7.530  22.490  23.300
  724BOLB   C3C17371   7.860  22.250  23.230
  724BOLB   C4C17372   7.910  21.840  23.380
  724BOLB   C1D17373   6.990  23.110  22.960
  724BOLB   C2D17374   7.180  23.090  22.580
  724BOLB   C3D17375   7.560  23.050  22.270
  724BOLB   C4D17376   7.640  22.690  22.070
  725BOLB   NC117377  13.860  24.520  13.010
  725BOLB   PO117378  13.980  24.790  13.270
  725BOLB   GL117379  13.820  25.290  13.300
  725BOLB   GL217380  13.680  25.340  13.080
  725BOLB   C1A17381  13.860  25.740  13.370
  725BOLB   C2A17382  13.700  26.060  13.130
  725BOLB   C3A17383  13.370  26.210  12.920
  725BOLB   C4A17384  13.100  26.550  12.720
  725BOLB   C1B17385  13.380  25.710  12.960
  725BOLB   C2B17386  13.000  25.900  12.680
  725BOLB   C3B17387  12.840  26.230  12.380
  725BOLB   C4B17388  12.820  26.150  11.960
  725BOLB   NC217389  10.910  27.810  12.530
  725BOLB   PO217390  11.150  28.210  12.270
  725BOLB   GL317391  11.430  27.840  12.300
  725BOLB   GL417392  11.490  27.590  12.060
  725BOLB   C1C17393  11.780  27.600  12.570
  725BOLB   C2C17394  12.030  27.280  12.520
  725BOLB   C3C17395  12.390  26.980  12.470
  725BOLB   C4C17396  12.690  26.680  12.550
  725BOLB   C1D17397  11.880  27.640  12.030
  725BOLB   C2D17398  12.310  27.490  12.150
  725BOLB   C3D17399  12.590  27.400  12.500
  725BOLB   C4D17400  12.840  27.190  12.790
  726BOLB   NC117401  13.090  12.100  27.470
  726BOLB   PO117402  12.890  12.010  27.250
  726BOLB   GL117403  13.050  12.100  26.860
  726BOLB   GL217404  13.380  12.100  26.940
  726BOLB   C1A17405  12.900  12.040  26.510
  726BOLB   C2A17406  13.010  12.280  26.350
  726BOLB   C3A17407  13.360  12.450  26.060
  726BOLB   C4A17408  13.670  12.750  26.260
  726BOLB   C1B17409  13.750  11.950  26.890
  726BOLB   C2B17410  13.800  12.200  26.350
  726BOLB   C3B17411  13.980  12.490  26.000
  726BOLB   C4B17412  13.990  12.840  25.690
  726BOLB   NC217413  15.360  13.060  27.870
  726BOLB   PO217414  14.960  12.800  27.890
  726BOLB   GL317415  14.700  12.830  27.640
  726BOLB   GL417416  14.490  12.590  27.540
  726BOLB   C1C17417  14.620  13.090  27.280
  726BOLB   C2C17418  14.620  13.100  26.820
  726BOLB   C3C17419  14.260  13.120  26.650
  726BOLB   C4C17420  13.830  13.130  26.450
  726BOLB   C1D17421  14.330  12.770  27.120
  726BOLB   C2D17422  14.570  12.560  26.750
  726BOLB   C3D17423  14.730  12.740  26.370
  726BOLB   C4D17424  15.070  12.660  26.060
  727BOLB   NC117425   1.950  11.850  17.040
  727BOLB   PO117426   2.160  11.590  17.310
  727BOLB   GL117427   2.500  11.640  17.170
  727BOLB   GL217428   2.660  11.420  17.180
  727BOLB   C1A17429   2.610  11.780  16.830
  727BOLB   C2A17430   2.860  12.040  17.070
  727BOLB   C3A17431   2.940  12.270  16.810
  727BOLB   C4A17432   2.930  12.580  16.400
  727BOLB   C1B17433   3.080  11.600  17.120
  727BOLB   C2B17434   3.350  11.880  16.770
  727BOLB   C3B17435   3.340  12.200  16.520
  727BOLB   C4B17436   3.260  12.350  16.070
  727BOLB   NC217437   1.310  13.270  14.980
  727BOLB   PO217438   1.240  12.980  15.330
  727BOLB   GL317439   1.630  12.900  15.310
  727BOLB   GL417440   1.780  13.050  15.020
  727BOLB   C1C17441   2.080  12.880  15.400
  727BOLB   C2C17442   2.430  13.070  15.490
  727BOLB   C3C17443   2.780  13.080  15.700
  727BOLB   C4C17444   2.910  12.780  15.940
  727BOLB   C1D17445   2.110  13.310  15.170
  727BOLB   C2D17446   2.450  13.460  15.130
  727BOLB   C3D17447   2.780  13.390  15.220
  727BOLB   C4D17448   3.160  13.270  15.430
  728BOLB   NC117449  20.740  15.790  18.320
  728BOLB   PO117450  20.730  16.220  18.320
  728BOLB   GL117451  20.870  15.970  18.770
  728BOLB   GL217452  20.680  15.960  18.960
  728BOLB   C1A17453  21.120  15.730  19.080
  728BOLB   C2A17454  21.490  16.060  19.380
  728BOLB   C3A17455  21.820  16.210  19.640
  728BOLB   C4A17456  21.910  16.270  20.040
  728BOLB   C1B17457  20.680  15.630  19.320
  728BOLB   C2B17458  20.800  15.390  19.700
  728BOLB   C3B17459  20.740  15.240  20.190
  728BOLB   C4B17460  20.720  14.930  20.540
  728BOLB   NC217461  22.840  15.560  22.580
  728BOLB   PO217462  22.810  15.710  22.260
  728BOLB   GL317463  22.670  15.770  21.750
  728BOLB   GL417464  22.410  15.520  21.500
  728BOLB   C1C17465  22.560  16.090  21.360
  728BOLB   C2C17466  22.510  16.210  21.010
  728BOLB   C3C17467  22.190  16.160  20.640
  728BOLB   C4C17468  22.030  15.960  20.300
  728BOLB   C1D17469  21.970  15.600  21.580
  728BOLB   C2D17470  21.550  15.850  21.500
  728BOLB   C3D17471  21.100  16.020  21.370
  728BOLB   C4D17472  20.680  16.240  21.220
  729BOLB   NC117473  27.650  14.510   9.970
  729BOLB   PO117474  27.930  14.910  10.090
  729BOLB   GL117475  27.670  15.250   9.990
  729BOLB   GL217476  27.720  15.520  10.220
  729BOLB   C1A17477  27.290  15.470   9.950
  729BOLB   C2A17478  26.930  15.310   9.940
  729BOLB   C3A17479  26.650  15.030  10.060
  729BOLB   C4A17480  26.490  14.690  10.300
  729BOLB   C1B17481  27.510  15.580  10.690
  729BOLB   C2B17482  27.210  15.330  10.920
  729BOLB   C3B17483  26.980  15.050  11.010
  729BOLB   C4B17484  26.990  14.840  10.740
  729BOLB   NC217485  28.110  13.560  10.100
  729BOLB   PO217486  27.760  13.770  10.370
  729BOLB   GL317487  27.300  13.740  10.410
  729BOLB   GL417488  27.190  14.070  10.470
  729BOLB   C1C17489  26.820  13.570  10.470
  729BOLB   C2C17490  26.400  13.590  10.690
  729BOLB   C3C17491  26.310  13.990  10.840
  729BOLB   C4C17492  26.290  14.400  10.620
  729BOLB   C1D17493  26.850  13.940  10.760
  729BOLB   C2D17494  26.660  13.730  11.100
  729BOLB   C3D17495  26.270  13.540  11.120
  729BOLB   C4D17496  25.930  13.470  11.260
  730BOLB   NC117497  26.940  17.700  17.300
  730BOLB   PO117498  26.690  17.330  17.510
  730BOLB   GL117499  26.540  17.370  17.240
  730BOLB   GL217500  26.660  17.360  16.920
  730BOLB   C1A17501  26.240  17.640  17.120
  730BOLB   C2A17502  25.860  17.900  17.090
  730BOLB   C3A17503  25.500  17.900  16.930
  730BOLB   C4A17504  25.040  17.790  16.900
  730BOLB   C1B17505  26.400  17.750  16.660
  730BOLB   C2B17506  25.850  17.800  16.560
  730BOLB   C3B17507  25.430  17.970  16.460
  730BOLB   C4B17508  25.190  17.780  16.200
  730BOLB   NC217509  22.820  18.220  15.290
  730BOLB   PO217510  23.160  18.470  15.580
  730BOLB   GL317511  23.420  18.080  15.760
  730BOLB   GL417512  23.670  18.220  15.970
  730BOLB   C1C17513  23.730  17.730  15.880
  730BOLB   C2C17514  24.050  17.800  16.210
  730BOLB   C3C17515  24.360  17.720  16.290
  730BOLB   C4C17516  24.700  17.720  16.640
  730BOLB   C1D17517  24.040  18.260  16.150
  730BOLB   C2D17518  24.150  18.220  16.510
  730BOLB   C3D17519  24.400  18.100  16.920
  730BOLB   C4D17520  24.120  17.980  17.310
  731BOLB   NC117521  12.550  23.230  16.810
  731BOLB   PO117522  12.670  23.450  17.220
  731BOLB   GL117523  12.420  23.780  17.490
  731BOLB   GL217524  12.190  23.650  17.740
  731BOLB   C1A17525  12.190  24.150  17.520
  731BOLB   C2A17526  12.050  24.590  17.390
  731BOLB   C3A17527  12.010  25.020  17.150
  731BOLB   C4A17528  11.990  25.520  17.030
  731BOLB   C1B17529  12.280  23.740  18.060
  731BOLB   C2B17530  12.120  23.570  18.430
  731BOLB   C3B17531  12.140  23.230  18.690
  731BOLB   C4B17532  12.110  22.840  18.580
  731BOLB   NC217533  11.590  27.520  17.800
  731BOLB   PO217534  11.590  27.800  17.550
  731BOLB   GL317535  11.680  27.460  17.220
  731BOLB   GL417536  11.330  27.290  17.280
  731BOLB   C1C17537  11.760  27.180  16.900
  731BOLB   C2C17538  11.830  26.800  16.780
  731BOLB   C3C17539  11.840  26.350  16.770
  731BOLB   C4C17540  11.950  25.900  16.850
  731BOLB   C1D17541  11.640  27.020  17.340
  731BOLB   C2D17542  11.990  26.810  17.290
  731BOLB   C3D17543  12.190  26.470  17.170
  731BOLB   C4D17544  12.400  26.100  17.290
  732BOLB   NC117545  21.030  28.130  16.910
  732BOLB   PO117546  21.460  27.950  16.680
  732BOLB   GL117547  21.210  27.650  16.860
  732BOLB   GL217548  20.940  27.680  16.750
  732BOLB   C1A17549  21.110  27.210  16.840
  732BOLB   C2A17550  21.040  26.900  16.480
  732BOLB   C3A17551  21.010  26.530  16.420
  732BOLB   C4A17552  21.140  26.200  16.280
  732BOLB   C1B17553  20.920  27.540  16.370
  732BOLB   C2B17554  20.660  27.230  16.230
  732BOLB   C3B17555  20.660  26.780  16.150
  732BOLB   C4B17556  20.610  26.400  16.100
  732BOLB   NC217557  19.860  24.160  15.930
  732BOLB   PO217558  19.510  24.480  15.950
  732BOLB   GL317559  19.840  24.760  16.120
  732BOLB   GL417560  20.130  24.540  16.160
  732BOLB   C1C17561  20.040  25.000  16.330
  732BOLB   C2C17562  20.260  25.280  16.440
  732BOLB   C3C17563  20.820  25.440  16.430
  732BOLB   C4C17564  21.060  25.730  16.420
  732BOLB   C1D17565  20.470  24.760  16.470
  732BOLB   C2D17566  20.840  24.930  16.650
  732BOLB   C3D17567  21.120  25.260  16.790
  732BOLB   C4D17568  21.220  25.360  17.180
  733BOLB   NC117569  23.130  17.680  14.830
  733BOLB   PO117570  23.490  17.460  14.990
  733BOLB   GL117571  23.930  17.450  14.850
  733BOLB   GL217572  23.980  17.640  14.510
  733BOLB   C1A17573  24.370  17.370  14.680
  733BOLB   C2A17574  24.820  17.440  14.640
  733BOLB   C3A17575  25.290  17.520  14.690
  733BOLB   C4A17576  25.710  17.580  14.860
  733BOLB   C1B17577  24.430  17.840  14.790
  733BOLB   C2B17578  24.640  18.190  14.750
  733BOLB   C3B17579  25.010  18.410  14.860
  733BOLB   C4B17580  25.110  18.660  15.170
  733BOLB   NC217581  28.030  16.090  15.510
  733BOLB   PO217582  27.650  16.450  15.380
  733BOLB   GL317583  27.300  16.330  15.150
  733BOLB   GL417584  27.160  16.050  15.190
  733BOLB   C1C17585  26.880  16.460  15.020
  733BOLB   C2C17586  26.750  16.800  15.080
  733BOLB   C3C17587  26.410  17.150  15.060
  733BOLB   C4C17588  26.000  17.320  14.990
  733BOLB   C1D17589  26.820  16.050  15.390
  733BOLB   C2D17590  26.350  15.890  15.290
  733BOLB   C3D17591  26.010  16.010  14.900
  733BOLB   C4D17592  25.640  15.880  14.810
  734BOLB   NC117593  13.630  22.380   2.040
  734BOLB   PO117594  13.270  22.280   2.190
  734BOLB   GL117595  13.190  22.130   2.660
  734BOLB   GL217596  12.910  22.040   2.920
  734BOLB   C1A17597  13.330  21.770   2.790
  734BOLB   C2A17598  13.560  21.320   2.760
  734BOLB   C3A17599  13.670  20.950   2.920
  734BOLB   C4A17600  13.580  20.450   3.120
  734BOLB   C1B17601  13.060  21.560   3.190
  734BOLB   C2B17602  13.150  21.070   3.160
  734BOLB   C3B17603  12.810  20.830   2.940
  734BOLB   C4B17604  12.640  20.700   2.520
  734BOLB   NC217605  12.280  19.110   1.400
  734BOLB   PO217606  12.520  19.540   1.200
  734BOLB   GL317607  12.650  19.420   1.700
  734BOLB   GL417608  12.800  19.180   1.960
  734BOLB   C1C17609  13.030  19.620   1.970
  734BOLB   C2C17610  13.230  19.740   2.360
  734BOLB   C3C17611  13.420  19.920   2.660
  734BOLB   C4C17612  13.690  20.150   3.020
  734BOLB   C1D17613  12.480  19.040   2.010
  734BOLB   C2D17614  12.080  19.240   2.000
  734BOLB   C3D17615  11.680  19.170   2.140
  734BOLB   C4D17616  11.310  19.410   2.210
  735BOLB   NC117617  16.740  25.090  12.640
  735BOLB   PO117618  16.750  25.280  12.260
  735BOLB   GL117619  16.710  25.790  12.350
  735BOLB   GL217620  16.520  25.890  12.610
  735BOLB   C1A17621  16.830  26.240  12.190
  735BOLB   C2A17622  16.780  26.630  12.200
  735BOLB   C3A17623  16.740  26.960  12.450
  735BOLB   C4A17624  16.630  27.220  12.840
  735BOLB   C1B17625  16.710  25.790  13.030
  735BOLB   C2B17626  17.140  26.100  13.130
  735BOLB   C3B17627  17.250  26.490  12.970
  735BOLB   C4B17628  17.620  26.610  12.640
  735BOLB   NC217629  16.020  29.880  13.960
  735BOLB   PO217630  15.960  29.640  13.600
  735BOLB   GL317631  16.100  29.230  13.630
  735BOLB   GL417632  16.070  29.350  14.000
  735BOLB   C1C17633  16.130  28.800  13.630
  735BOLB   C2C17634  16.350  28.350  13.380
  735BOLB   C3C17635  16.350  27.980  13.140
  735BOLB   C4C17636  16.570  27.610  13.060
  735BOLB   C1D17637  16.120  28.960  14.130
  735BOLB   C2D17638  16.200  28.700  14.420
  735BOLB   C3D17639  16.270  28.660  14.800
  735BOLB   C4D17640  16.310  28.620  15.230
  736BOLB   NC117641  14.550  14.750  28.280
  736BOLB   PO117642  14.270  15.180  28.200
  736BOLB   GL117643  14.510  15.160  27.870
  736BOLB   GL217644  14.880  15.200  27.850
  736BOLB   C1A17645  14.650  15.060  27.380
  736BOLB   C2A17646  14.970  15.080  27.190
  736BOLB   C3A17647  15.370  15.300  27.230
  736BOLB   C4A17648  15.770  15.100  27.340
  736BOLB   C1B17649  15.230  14.990  27.660
  736BOLB   C2B17650  15.320  14.720  27.300
  736BOLB   C3B17651  15.360  14.480  26.990
  736BOLB   C4B17652  15.710  14.290  26.740
  736BOLB   NC217653  17.330  16.710  26.880
  736BOLB   PO217654  17.280  16.500  26.560
  736BOLB   GL317655  16.870  16.320  26.390
  736BOLB   GL417656  16.750  15.960  26.260
  736BOLB   C1C17657  16.420  16.350  26.370
  736BOLB   C2C17658  16.340  15.940  26.590
  736BOLB   C3C17659  16.160  15.610  26.900
  736BOLB   C4C17660  16.150  15.190  27.140
  736BOLB   C1D17661  16.510  16.110  25.890
  736BOLB   C2D17662  16.140  16.150  25.590
  736BOLB   C3D17663  16.090  16.370  25.250
  736BOLB   C4D17664  16.320  16.650  24.950
  737BOLB   NC117665  22.970  20.900   2.650
  737BOLB   PO117666  22.920  21.330   2.770
  737BOLB   GL117667  22.590  21.360   3.130
  737BOLB   GL217668  22.490  21.550   3.300
  737BOLB   C1A17669  22.380  21.080   3.280
  737BOLB   C2A17670  21.960  20.980   3.380
  737BOLB   C3A17671  21.580  20.780   3.310
  737BOLB   C4A17672  21.240  20.660   3.420
  737BOLB   C1B17673  22.130  21.600   3.440
  737BOLB   C2B17674  21.850  21.450   3.740
  737BOLB   C3B17675  21.620  21.290   4.120
  737BOLB   C4B17676  21.570  21.040   4.430
  737BOLB   NC217677  20.480  20.590   1.660
  737BOLB   PO217678  20.500  20.130   1.440
  737BOLB   GL317679  20.420  20.050   1.810
  737BOLB   GL417680  20.570  20.280   2.050
  737BOLB   C1C17681  20.780  19.900   2.090
  737BOLB   C2C17682  21.090  19.900   2.410
  737BOLB   C3C17683  21.120  20.040   2.810
  737BOLB   C4C17684  21.150  20.280   3.230
  737BOLB   C1D17685  20.960  20.370   2.240
  737BOLB   C2D17686  21.200  20.470   2.590
  737BOLB   C3D17687  21.360  20.830   2.800
  737BOLB   C4D17688  21.240  21.150   3.070
  738BOLB   NC117689  14.730  29.510  15.450
  738BOLB   PO117690  14.950  29.210  15.660
  738BOLB   GL117691  15.160  28.830  15.910
  738BOLB   GL217692  15.260  28.800  16.250
  738BOLB   C1A17693  15.190  28.400  15.890
  738BOLB   C2A17694  15.140  27.930  15.730
  738BOLB   C3A17695  15.440  27.520  15.920
  738BOLB   C4A17696  15.870  27.320  15.870
  738BOLB   C1B17697  14.960  28.470  16.460
  738BOLB   C2B17698  14.750  28.090  16.310
  738BOLB   C3B17699  14.600  27.850  16.080
  738BOLB   C4B17700  14.480  27.430  16.110
  738BOLB   NC217701  16.720  29.450  16.280
  738BOLB   PO217702  16.950  29.230  15.990
  738BOLB   GL317703  17.060  28.880  15.630
  738BOLB   GL417704  17.210  28.700  15.860
  738BOLB   C1C17705  16.880  28.540  15.470
  738BOLB   C2C17706  16.680  28.240  15.450
  738BOLB   C3C17707  16.430  27.850  15.590
  738BOLB   C4C17708  16.320  27.450  15.690
  738BOLB   C1D17709  17.220  28.240  15.780
  738BOLB   C2D17710  17.370  27.850  15.870
  738BOLB   C3D17711  17.520  27.370  15.830
  738BOLB   C4D17712  17.810  27.090  16.110
  739BOLB   NC117713   4.760  10.910  10.260
  739BOLB   PO117714   4.800  10.730  10.670
  739BOLB   GL117715   5.100  10.840  11.060
  739BOLB   GL217716   4.960  10.710  11.300
  739BOLB   C1A17717   5.210  11.150  11.090
  739BOLB   C2A17718   5.210  11.500  11.000
  739BOLB   C3A17719   5.500  11.870  11.130
  739BOLB   C4A17720   5.290  12.340  11.200
  739BOLB   C1B17721   5.210  10.960  11.550
  739BOLB   C2B17722   5.230  11.400  11.580
  739BOLB   C3B17723   5.430  11.650  11.860
  739BOLB   C4B17724   5.640  11.810  12.180
  739BOLB   NC217725   3.490  13.230  10.110
  739BOLB   PO217726   3.510  13.630  10.380
  739BOLB   GL317727   3.940  13.500  10.560
  739BOLB   GL417728   3.780  13.410  10.860
  739BOLB   C1C17729   4.360  13.670  10.690
  739BOLB   C2C17730   4.720  13.350  10.840
  739BOLB   C3C17731   4.990  13.090  11.090
  739BOLB   C4C17732   5.320  12.760  11.050
  739BOLB   C1D17733   4.250  13.450  11.180
  739BOLB   C2D17734   4.490  13.720  11.280
  739BOLB   C3D17735   4.330  14.050  11.550
  739BOLB   C4D17736   4.060  14.340  11.810
  740BOLB   NC117737   7.060  22.090  24.930
  740BOLB   PO117738   7.460  22.260  25.010
  740BOLB   GL117739   7.550  22.220  24.580
  740BOLB   GL217740   7.400  21.900  24.650
  740BOLB   C1A17741   7.850  22.130  24.320
  740BOLB   C2A17742   8.300  22.020  24.070
  740BOLB   C3A17743   8.680  21.960  23.890
  740BOLB   C4A17744   8.800  22.090  23.460
  740BOLB   C1B17745   7.430  21.830  24.200
  740BOLB   C2B17746   7.390  21.730  23.830
  740BOLB   C3B17747   7.620  21.450  23.540
  740BOLB   C4B17748   7.610  21.640  23.040
  740BOLB   NC217749   8.830  24.590  24.710
  740BOLB   PO217750   9.060  24.180  24.590
  740BOLB   GL317751   9.240  23.880  24.420
  740BOLB   GL417752   9.540  23.770  24.650
  740BOLB   C1C17753   9.490  23.470  24.190
  740BOLB   C2C17754   9.560  23.090  23.900
  740BOLB   C3C17755   9.370  22.820  23.580
  740BOLB   C4C17756   9.070  22.520  23.420
  740BOLB   C1D17757   9.330  23.400  24.730
  740BOLB   C2D17758   9.310  22.890  24.730
  740BOLB   C3D17759   9.550  22.570  24.660
  740BOLB   C4D17760   9.360  22.140  24.680
  741BOLB   NC117761  16.390  25.060  14.690
  741BOLB   PO117762  16.510  24.980  15.080
  741BOLB   GL117763  16.480  25.460  15.170
  741BOLB   GL217764  16.700  25.570  15.360
  741BOLB   C1A17765  16.450  25.870  15.060
  741BOLB   C2A17766  16.550  26.290  15.100
  741BOLB   C3A17767  16.380  26.620  15.220
  741BOLB   C4A17768  16.460  27.020  15.420
  741BOLB   C1B17769  16.540  25.870  15.680
  741BOLB   C2B17770  16.280  26.230  15.650
  741BOLB   C3B17771  16.300  26.620  15.790
  741BOLB   C4B17772  16.280  27.020  15.930
  741BOLB   NC217773  16.030  29.410  15.540
  741BOLB   PO217774  16.370  29.580  15.270
  741BOLB   GL317775  16.420  29.160  15.130
  741BOLB   GL417776  16.130  29.070  15.190
  741BOLB   C1C17777  16.710  28.800  14.970
  741BOLB   C2C17778  16.670  28.340  14.950
  741BOLB   C3C17779  16.750  27.890  15.130
  741BOLB   C4C17780  16.610  27.450  15.280
  741BOLB   C1D17781  15.830  28.630  15.110
  741BOLB   C2D17782  15.700  28.240  14.990
  741BOLB   C3D17783  15.510  28.020  14.660
  741BOLB   C4D17784  15.060  27.960  14.570
  742BOLB   NC117785  19.840  15.020  18.990
  742BOLB   PO117786  19.590  14.660  19.000
  742BOLB   GL117787  20.010  14.560  19.160
  742BOLB   GL217788  19.990  14.330  19.320
  742BOLB   C1A17789  20.510  14.480  19.160
  742BOLB   C2A17790  20.660  14.080  19.130
  742BOLB   C3A17791  20.890  13.680  19.200
  742BOLB   C4A17792  21.290  13.560  19.320
  742BOLB   C1B17793  20.140  14.040  19.460
  742BOLB   C2B17794  20.400  13.940  19.670
  742BOLB   C3B17795  20.740  13.640  19.750
  742BOLB   C4B17796  20.960  13.530  19.990
  742BOLB   NC217797  23.350  13.230  20.500
  742BOLB   PO217798  23.590  13.170  20.150
  742BOLB   GL317799  23.330  13.320  19.810
  742BOLB   GL417800  23.300  13.340  19.500
  742BOLB   C1C17801  22.840  13.470  19.640
  742BOLB   C2C17802  22.530  13.450  19.340
  742BOLB   C3C17803  22.200  13.600  19.230
  742BOLB   C4C17804  21.780  13.560  19.400
  742BOLB   C1D17805  23.040  13.480  19.180
  742BOLB   C2D17806  23.220  13.660  18.770
  742BOLB   C3D17807  23.030  13.680  18.390
  742BOLB   C4D17808  22.960  13.730  17.850
  743BOLB   NC117809  23.460  20.420  13.640
  743BOLB   PO117810  23.430  20.000  13.630
  743BOLB   GL117811  23.830  19.940  13.900
  743BOLB   GL217812  23.960  20.180  13.710
  743BOLB   C1A17813  24.350  19.840  14.030
  743BOLB   C2A17814  24.680  19.790  14.220
  743BOLB   C3A17815  25.090  20.030  14.310
  743BOLB   C4A17816  25.490  20.300  14.370
  743BOLB   C1B17817  24.300  20.320  13.830
  743BOLB   C2B17818  24.740  20.280  13.970
  743BOLB   C3B17819  25.050  20.540  14.130
  743BOLB   C4B17820  25.390  20.800  13.940
  743BOLB   NC217821  27.700  21.290  14.240
  743BOLB   PO217822  27.360  21.540  14.420
  743BOLB   GL317823  26.930  21.460  14.320
  743BOLB   GL417824  26.780  21.220  14.530
  743BOLB   C1C17825  26.500  21.510  14.130
  743BOLB   C2C17826  26.340  21.220  14.410
  743BOLB   C3C17827  26.090  20.940  14.580
  743BOLB   C4C17828  25.900  20.460  14.310
  743BOLB   C1D17829  26.640  20.910  14.650
  743BOLB   C2D17830  26.380  20.580  14.470
  743BOLB   C3D17831  26.380  20.200  14.160
  743BOLB   C4D17832  26.450  19.870  13.900
  744BOLB   NC117833  17.660  16.340  31.010
  744BOLB   PO117834  17.480  16.070   0.040
  744BOLB   GL117835  17.440  15.920   0.420
  744BOLB   GL217836  17.700  15.910   0.750
  744BOLB   C1A17837  17.320  15.540   0.830
  744BOLB   C2A17838  17.250  15.540   1.280
  744BOLB   C3A17839  17.310  15.650   1.710
  744BOLB   C4A17840  17.300  15.770   2.130
  744BOLB   C1B17841  17.600  16.010   1.130
  744BOLB   C2B17842  17.880  16.410   1.360
  744BOLB   C3B17843  17.860  16.560   1.770
  744BOLB   C4B17844  17.960  16.720   2.130
  744BOLB   NC217845  15.990  15.600   4.740
  744BOLB   PO217846  16.070  15.550   4.340
  744BOLB   GL317847  16.110  15.510   3.910
  744BOLB   GL417848  16.050  15.630   3.710
  744BOLB   C1C17849  16.480  15.610   3.520
  744BOLB   C2C17850  16.810  15.550   3.160
  744BOLB   C3C17851  16.860  15.740   2.830
  744BOLB   C4C17852  16.960  15.850   2.390
  744BOLB   C1D17853  16.100  15.690   3.260
  744BOLB   C2D17854  16.310  15.600   2.880
  744BOLB   C3D17855  16.400  15.650   2.460
  744BOLB   C4D17856  16.690  15.600   2.140
  745BOLB   NC117857  17.040  24.370   9.930
  745BOLB   PO117858  17.390  24.140   9.710
  745BOLB   GL117859  17.090  24.420   9.450
  745BOLB   GL217860  16.850  24.750   9.560
  745BOLB   C1A17861  17.090  24.650   9.010
  745BOLB   C2A17862  17.250  24.930   8.820
  745BOLB   C3A17863  17.380  25.230   8.460
  745BOLB   C4A17864  17.560  25.540   8.270
  745BOLB   C1B17865  17.070  25.010   9.310
  745BOLB   C2B17866  17.340  25.360   9.040
  745BOLB   C3B17867  17.480  25.680   8.940
  745BOLB   C4B17868  17.230  25.920   8.670
  745BOLB   NC217869  17.760  27.680   6.960
  745BOLB   PO217870  17.500  27.650   6.790
  745BOLB   GL317871  17.540  27.140   7.030
  745BOLB   GL417872  17.540  26.910   6.690
  745BOLB   C1C17873  17.710  26.880   7.160
  745BOLB   C2C17874  17.720  26.460   7.370
  745BOLB   C3C17875  17.680  26.450   7.870
  745BOLB   C4C17876  17.530  26.050   8.240
  745BOLB   C1D17877  17.470  26.480   6.880
  745BOLB   C2D17878  17.440  26.050   7.120
  745BOLB   C3D17879  17.530  25.860   7.420
  745BOLB   C4D17880  17.350  25.740   7.810
  746BOLB   NC117881  13.850  18.030  28.090
  746BOLB   PO117882  13.790  18.460  28.010
  746BOLB   GL117883  13.900  18.330  27.590
  746BOLB   GL217884  13.720  18.440  27.340
  746BOLB   C1A17885  14.240  18.130  27.330
  746BOLB   C2A17886  14.280  17.740  27.190
  746BOLB   C3A17887  14.540  17.580  26.950
  746BOLB   C4A17888  14.390  17.400  26.510
  746BOLB   C1B17889  13.590  18.740  27.060
  746BOLB   C2B17890  13.510  19.040  26.690
  746BOLB   C3B17891  13.350  19.350  26.480
  746BOLB   C4B17892  12.970  19.630  26.430
  746BOLB   NC217893  16.820  18.110  26.660
  746BOLB   PO217894  16.470  18.050  26.960
  746BOLB   GL317895  16.250  17.870  26.730
  746BOLB   GL417896  16.380  17.910  26.380
  746BOLB   C1C17897  15.840  17.890  26.610
  746BOLB   C2C17898  15.450  17.660  26.410
  746BOLB   C3C17899  15.080  17.420  26.290
  746BOLB   C4C17900  14.700  17.260  26.340
  746BOLB   C1D17901  16.290  18.250  26.090
  746BOLB   C2D17902  16.090  18.340  25.620
  746BOLB   C3D17903  15.860  18.010  25.440
  746BOLB   C4D17904  15.690  17.700  25.130
  747BOLB   NC117905   9.280  27.280  15.710
  747BOLB   PO117906   9.170  26.880  15.760
  747BOLB   GL117907   9.290  26.460  15.750
  747BOLB   GL217908   9.290  26.500  15.440
  747BOLB   C1A17909   9.630  26.250  15.990
  747BOLB   C2A17910   9.900  26.040  16.180
  747BOLB   C3A17911  10.200  26.180  16.490
  747BOLB   C4A17912  10.530  26.390  16.740
  747BOLB   C1B17913   9.530  26.130  15.350
  747BOLB   C2B17914   9.670  25.730  15.320
  747BOLB   C3B17915   9.840  25.310  15.340
  747BOLB   C4B17916   9.850  24.800  15.530
  747BOLB   NC217917  11.970  27.420  18.570
  747BOLB   PO217918  11.610  27.470  18.300
  747BOLB   GL317919  11.870  27.140  18.080
  747BOLB   GL417920  12.050  26.900  18.270
  747BOLB   C1C17921  11.830  26.960  17.770
  747BOLB   C2C17922  11.540  26.580  17.630
  747BOLB   C3C17923  11.200  26.350  17.430
  747BOLB   C4C17924  10.780  26.180  17.040
  747BOLB   C1D17925  12.250  26.610  18.030
  747BOLB   C2D17926  12.260  26.500  17.650
  747BOLB   C3D17927  12.720  26.420  17.480
  747BOLB   C4D17928  13.000  26.180  17.410
  748BOLB   NC117929  20.380  28.450  17.150
  748BOLB   PO117930  20.010  28.460  17.470
  748BOLB   GL117931  19.770  28.160  17.240
  748BOLB   GL217932  19.410  28.030  17.310
  748BOLB   C1A17933  19.750  27.720  17.060
  748BOLB   C2A17934  19.580  27.490  16.850
  748BOLB   C3A17935  19.760  27.170  16.440
  748BOLB   C4A17936  19.750  27.000  16.180
  748BOLB   C1B17937  19.270  27.620  17.160
  748BOLB   C2B17938  19.160  27.250  16.820
  748BOLB   C3B17939  19.370  26.840  16.840
  748BOLB   C4B17940  19.490  26.350  16.940
  748BOLB   NC217941  20.840  28.630  15.570
  748BOLB   PO217942  20.550  28.660  15.790
  748BOLB   GL317943  20.270  28.330  15.730
  748BOLB   GL417944  20.200  28.430  15.410
  748BOLB   C1C17945  20.140  27.980  15.520
  748BOLB   C2C17946  20.210  27.620  15.350
  748BOLB   C3C17947  20.080  27.200  15.380
  748BOLB   C4C17948  19.910  26.990  15.810
  748BOLB   C1D17949  19.980  28.120  15.100
  748BOLB   C2D17950  19.770  28.170  14.680
  748BOLB   C3D17951  19.620  27.810  14.550
  748BOLB   C4D17952  19.700  27.360  14.550
  749BOLB   NC117953   1.820  14.880  17.760
  749BOLB   PO117954   1.960  14.740  18.190
  749BOLB   GL117955   2.070  15.090  18.190
  749BOLB   GL217956   2.100  15.310  17.920
  749BOLB   C1A17957   2.350  15.420  18.450
  749BOLB   C2A17958   2.610  15.820  18.410
  749BOLB   C3A17959   2.640  16.050  18.770
  749BOLB   C4A17960   2.860  16.290  19.010
  749BOLB   C1B17961   2.590  15.260  18.030
  749BOLB   C2B17962   2.920  15.420  18.360
  749BOLB   C3B17963   3.320  15.300  18.570
  749BOLB   C4B17964   3.810  15.190  18.570
  749BOLB   NC217965   2.570  17.120  20.220
  749BOLB   PO217966   2.300  17.230  19.840
  749BOLB   GL317967   2.510  17.560  19.650
  749BOLB   GL417968   2.770  17.720  19.780
  749BOLB   C1C17969   2.710  17.660  19.290
  749BOLB   C2C17970   2.890  17.410  19.040
  749BOLB   C3C17971   2.990  17.030  19.230
  749BOLB   C4C17972   2.900  16.690  19.320
  749BOLB   C1D17973   2.920  17.230  19.660
  749BOLB   C2D17974   3.400  17.220  19.410
  749BOLB   C3D17975   3.410  17.190  19.030
  749BOLB   C4D17976   3.620  17.270  18.620
  750BOLB   NC117977  19.100  21.140  23.920
  750BOLB   PO117978  19.460  21.020  23.610
  750BOLB   GL117979  19.090  20.910  23.450
  750BOLB   GL217980  19.050  21.200  23.350
  750BOLB   C1A17981  18.720  20.810  23.240
  750BOLB   C2A17982  18.450  20.550  23.230
  750BOLB   C3A17983  18.160  20.460  22.980
  750BOLB   C4A17984  17.780  20.270  22.640
  750BOLB   C1B17985  18.610  21.300  23.410
  750BOLB   C2B17986  18.150  21.360  23.290
  750BOLB   C3B17987  17.740  21.220  23.350
  750BOLB   C4B17988  17.550  21.250  22.940
  750BOLB   NC217989  17.140  19.930  20.700
  750BOLB   PO217990  17.440  19.700  20.440
  750BOLB   GL317991  17.650  19.760  20.840
  750BOLB   GL417992  17.500  19.960  21.020
  750BOLB   C1C17993  17.870  19.690  21.160
  750BOLB   C2C17994  17.820  19.720  21.610
  750BOLB   C3C17995  17.830  19.830  22.040
  750BOLB   C4C17996  17.590  20.010  22.330
  750BOLB   C1D17997  17.500  20.050  21.530
  750BOLB   C2D17998  17.500  20.360  21.780
  750BOLB   C3D17999  17.620  20.800  21.690
  750BOLB   C4D18000  17.530  21.180  21.850
  751BOLB   NC118001   7.010  13.080  24.460
  751BOLB   PO118002   7.340  12.860  24.560
  751BOLB   GL118003   7.630  12.870  24.190
  751BOLB   GL218004   7.480  13.110  24.120
  751BOLB   C1A18005   8.000  12.990  23.890
  751BOLB   C2A18006   8.430  13.250  23.940
  751BOLB   C3A18007   8.810  13.500  23.890
  751BOLB   C4A18008   9.000  13.630  24.220
  751BOLB   C1B18009   7.650  13.380  23.900
  751BOLB   C2B18010   8.030  13.610  23.770
  751BOLB   C3B18011   8.430  13.680  23.570
  751BOLB   C4B18012   8.710  13.990  23.690
  751BOLB   NC218013   7.050  14.320  25.790
  751BOLB   PO218014   7.320  14.590  25.580
  751BOLB   GL318015   7.640  14.540  25.300
  751BOLB   GL418016   7.870  14.480  25.530
  751BOLB   C1C18017   7.830  14.460  24.970
  751BOLB   C2C18018   8.230  14.330  24.730
  751BOLB   C3C18019   8.580  14.010  24.780
  751BOLB   C4C18020   8.990  13.810  24.610
  751BOLB   C1D18021   8.200  14.190  25.430
  751BOLB   C2D18022   8.270  13.910  25.150
  751BOLB   C3D18023   8.460  13.550  24.910
  751BOLB   C4D18024   8.540  13.440  24.410
  752BOLB   NC118025  18.530   7.880  19.670
  752BOLB   PO118026  18.140   7.740  19.880
  752BOLB   GL118027  18.080   8.130  19.610
  752BOLB   GL218028  18.210   8.460  19.600
  752BOLB   C1A18029  18.110   8.250  19.180
  752BOLB   C2A18030  17.960   8.560  18.980
  752BOLB   C3A18031  17.840   8.980  18.840
  752BOLB   C4A18032  17.640   9.320  18.810
  752BOLB   C1B18033  18.440   8.630  19.230
  752BOLB   C2B18034  18.310   8.950  18.850
  752BOLB   C3B18035  18.170   9.250  18.600
  752BOLB   C4B18036  18.000   9.630  18.460
  752BOLB   NC218037  17.930   8.280  20.980
  752BOLB   PO218038  18.010   8.460  20.550
  752BOLB   GL318039  18.050   8.890  20.580
  752BOLB   GL418040  17.710   8.910  20.670
  752BOLB   C1C18041  17.850   9.180  20.310
  752BOLB   C2C18042  17.790   9.430  20.000
  752BOLB   C3C18043  17.620   9.570  19.680
  752BOLB   C4C18044  17.450   9.400  19.230
  752BOLB   C1D18045  17.400   9.000  20.320
  752BOLB   C2D18046  17.440   8.990  19.880
  752BOLB   C3D18047  17.680   9.090  19.510
  752BOLB   C4D18048  18.030   8.970  19.290
  753BOLB   NC118049  11.400  28.750  14.650
  753BOLB   PO118050  11.330  28.630  14.980
  753BOLB   GL118051  11.510  28.130  14.960
  753BOLB   GL218052  11.500  27.930  15.170
  753BOLB   C1A18053  11.540  27.760  14.620
  753BOLB   C2A18054  11.680  27.560  14.310
  753BOLB   C3A18055  11.840  27.410  13.890
  753BOLB   C4A18056  11.800  27.300  13.500
  753BOLB   C1B18057  11.470  27.590  15.400
  753BOLB   C2B18058  11.610  27.360  15.850
  753BOLB   C3B18059  11.680  26.990  16.060
  753BOLB   C4B18060  11.780  26.610  16.080
  753BOLB   NC218061  13.070  29.220  13.610
  753BOLB   PO218062  13.350  29.270  13.190
  753BOLB   GL318063  13.120  28.830  13.110
  753BOLB   GL418064  13.080  28.650  12.730
  753BOLB   C1C18065  12.920  28.400  13.300
  753BOLB   C2C18066  12.770  28.050  13.270
  753BOLB   C3C18067  12.450  27.820  13.360
  753BOLB   C4C18068  12.170  27.380  13.370
  753BOLB   C1D18069  13.220  28.180  12.900
  753BOLB   C2D18070  13.090  27.910  12.940
  753BOLB   C3D18071  13.160  27.600  13.220
  753BOLB   C4D18072  13.170  27.410  13.560
  754BOLB   NC118073   4.440  22.560  22.500
  754BOLB   PO118074   4.480  22.330  22.020
  754BOLB   GL118075   4.840  22.060  21.920
  754BOLB   GL218076   4.490  21.800  21.810
  754BOLB   C1A18077   4.990  21.740  21.670
  754BOLB   C2A18078   5.240  21.310  21.490
  754BOLB   C3A18079   5.300  20.970  21.600
  754BOLB   C4A18080   5.380  20.530  21.780
  754BOLB   C1B18081   4.550  21.880  21.330
  754BOLB   C2B18082   4.530  22.030  20.880
  754BOLB   C3B18083   4.560  22.500  20.790
  754BOLB   C4B18084   4.150  22.510  20.530
  754BOLB   NC218085   3.400  19.390  21.820
  754BOLB   PO218086   3.130  19.780  21.650
  754BOLB   GL318087   3.570  19.790  21.490
  754BOLB   GL418088   3.750  19.600  21.500
  754BOLB   C1C18089   3.850  20.180  21.530
  754BOLB   C2C18090   4.250  20.330  21.640
  754BOLB   C3C18091   4.670  20.220  21.690
  754BOLB   C4C18092   5.140  20.190  21.820
  754BOLB   C1D18093   3.960  19.910  21.180
  754BOLB   C2D18094   4.380  20.100  20.910
  754BOLB   C3D18095   4.690  20.390  20.600
  754BOLB   C4D18096   5.010  20.270  20.240
  755BOLB   NC118097  21.970  16.750  17.420
  755BOLB   PO118098  21.780  16.390  17.590
  755BOLB   GL118099  22.190  16.420  17.790
  755BOLB   GL218100  21.980  16.520  18.200
  755BOLB   C1A18101  22.510  16.610  18.100
  755BOLB   C2A18102  22.810  16.800  18.380
  755BOLB   C3A18103  23.080  17.120  18.520
  755BOLB   C4A18104  23.460  17.340  18.690
  755BOLB   C1B18105  22.350  16.610  18.570
  755BOLB   C2B18106  22.740  16.630  18.850
  755BOLB   C3B18107  23.220  16.740  18.750
  755BOLB   C4B18108  23.580  16.880  18.440
  755BOLB   NC218109  24.530  18.240  20.300
  755BOLB   PO218110  24.120  18.490  20.420
  755BOLB   GL318111  23.880  18.240  20.260
  755BOLB   GL418112  23.600  18.210  20.400
  755BOLB   C1C18113  23.730  18.070  19.870
  755BOLB   C2C18114  23.710  17.990  19.460
  755BOLB   C3C18115  23.760  17.950  19.040
  755BOLB   C4C18116  23.700  17.720  18.750
  755BOLB   C1D18117  23.620  17.760  20.310
  755BOLB   C2D18118  23.560  17.370  20.140
  755BOLB   C3D18119  23.240  17.310  19.790
  755BOLB   C4D18120  22.780  17.530  19.770
  756BOLB   NC118121   9.170  19.680  10.010
  756BOLB   PO118122   9.040  19.980   9.710
  756BOLB   GL118123   8.750  20.130   9.390
  756BOLB   GL218124   8.910  20.430   9.310
  756BOLB   C1A18125   8.490  20.330   9.060
  756BOLB   C2A18126   8.070  20.160   8.910
  756BOLB   C3A18127   7.670  19.890   8.810
  756BOLB   C4A18128   7.330  20.110   8.960
  756BOLB   C1B18129   8.760  20.730   9.010
  756BOLB   C2B18130   8.380  20.790   8.990
  756BOLB   C3B18131   7.900  20.900   8.900
  756BOLB   C4B18132   7.700  21.080   9.200
  756BOLB   NC218133   5.120  21.180   8.280
  756BOLB   PO218134   5.240  21.500   8.550
  756BOLB   GL318135   5.710  21.500   8.720
  756BOLB   GL418136   5.860  21.700   8.860
  756BOLB   C1C18137   5.850  21.180   8.980
  756BOLB   C2C18138   6.340  20.820   9.160
  756BOLB   C3C18139   6.740  20.660   8.880
  756BOLB   C4C18140   7.020  20.390   8.980
  756BOLB   C1D18141   5.810  21.610   9.300
  756BOLB   C2D18142   5.980  21.430   9.680
  756BOLB   C3D18143   6.290  21.310  10.020
  756BOLB   C4D18144   6.650  21.200  10.280
  757BOLB   NC118145   9.660  21.610  14.890
  757BOLB   PO118146   9.980  22.000  14.930
  757BOLB   GL118147   9.660  22.160  15.090
  757BOLB   GL218148   9.450  22.000  15.260
  757BOLB   C1A18149   9.430  22.530  15.140
  757BOLB   C2A18150   9.040  22.840  15.040
  757BOLB   C3A18151   8.590  22.840  14.840
  757BOLB   C4A18152   8.270  23.080  14.940
  757BOLB   C1B18153   9.070  21.950  15.400
  757BOLB   C2B18154   8.630  21.950  15.420
  757BOLB   C3B18155   8.120  21.820  15.410
  757BOLB   C4B18156   7.800  22.120  15.450
  757BOLB   NC218157   6.240  24.090  14.150
  757BOLB   PO218158   6.430  24.280  13.650
  757BOLB   GL318159   6.700  23.980  13.580
  757BOLB   GL418160   6.550  23.850  13.400
  757BOLB   C1C18161   7.080  23.840  13.900
  757BOLB   C2C18162   7.440  23.740  14.200
  757BOLB   C3C18163   7.740  23.550  14.440
  757BOLB   C4C18164   8.090  23.300  14.640
  757BOLB   C1D18165   6.710  23.490  13.560
  757BOLB   C2D18166   7.080  23.280  13.670
  757BOLB   C3D18167   7.320  23.010  13.480
  757BOLB   C4D18168   7.640  22.940  13.190
  758BOLB   NC118169  23.320  18.860  14.150
  758BOLB   PO118170  23.530  18.530  14.480
  758BOLB   GL118171  23.900  18.490  14.590
  758BOLB   GL218172  24.140  18.180  14.550
  758BOLB   C1A18173  24.340  18.650  14.680
  758BOLB   C2A18174  24.710  18.730  14.600
  758BOLB   C3A18175  25.080  19.000  14.590
  758BOLB   C4A18176  25.410  19.190  14.570
  758BOLB   C1B18177  24.400  18.340  14.160
  758BOLB   C2B18178  24.810  18.330  14.170
  758BOLB   C3B18179  25.280  18.320  14.350
  758BOLB   C4B18180  25.640  18.570  14.560
  758BOLB   NC218181  27.900  19.560  15.620
  758BOLB   PO218182  27.460  19.650  15.650
  758BOLB   GL318183  27.240  19.680  15.450
  758BOLB   GL418184  27.130  19.970  15.300
  758BOLB   C1C18185  26.930  19.520  15.150
  758BOLB   C2C18186  26.540  19.480  14.970
  758BOLB   C3C18187  26.140  19.450  14.810
  758BOLB   C4C18188  25.860  19.460  14.530
  758BOLB   C1D18189  26.700  19.990  15.140
  758BOLB   C2D18190  26.280  19.860  15.030
  758BOLB   C3D18191  25.940  19.860  15.100
  758BOLB   C4D18192  25.590  20.100  15.060
  759BOLB   NC118193   8.260   8.420  22.750
  759BOLB   PO118194   8.230   8.830  22.890
  759BOLB   GL118195   8.640   9.010  22.830
  759BOLB   GL218196   8.690   9.220  22.950
  759BOLB   C1A18197   8.910   8.950  22.520
  759BOLB   C2A18198   8.860   9.070  22.080
  759BOLB   C3A18199   8.720   9.000  21.660
  759BOLB   C4A18200   8.830   9.420  21.440
  759BOLB   C1B18201   9.080   9.340  22.780
  759BOLB   C2B18202   9.350   9.260  22.450
  759BOLB   C3B18203   9.530   9.360  22.020
  759BOLB   C4B18204   9.690   9.190  21.710
  759BOLB   NC218205   7.090   8.390  22.050
  759BOLB   PO218206   7.020   8.520  21.730
  759BOLB   GL318207   7.340   8.620  21.430
  759BOLB   GL418208   7.220   8.740  21.240
  759BOLB   C1C18209   7.750   8.780  21.310
  759BOLB   C2C18210   7.900   9.220  21.320
  759BOLB   C3C18211   8.060   9.590  21.250
  759BOLB   C4C18212   8.510   9.600  21.160
  759BOLB   C1D18213   7.530   9.080  21.000
  759BOLB   C2D18214   7.690   9.430  20.910
  759BOLB   C3D18215   7.690   9.830  21.000
  759BOLB   C4D18216   7.680  10.160  20.870
  760BOLB   NC118217  16.670  13.510  27.620
  760BOLB   PO118218  16.530  13.090  27.660
  760BOLB   GL118219  16.330  13.080  27.260
  760BOLB   GL218220  16.370  12.860  27.110
  760BOLB   C1A18221  16.540  13.230  26.760
  760BOLB   C2A18222  16.780  13.150  26.450
  760BOLB   C3A18223  16.500  13.160  26.070
  760BOLB   C4A18224  16.450  13.000  25.710
  760BOLB   C1B18225  16.290  12.760  26.700
  760BOLB   C2B18226  16.250  12.790  26.260
  760BOLB   C3B18227  15.960  12.800  25.940
  760BOLB   C4B18228  15.840  12.640  25.550
  760BOLB   NC218229  18.340  11.870  25.110
  760BOLB   PO218230  18.260  12.080  25.520
  760BOLB   GL318231  17.850  11.930  25.390
  760BOLB   GL418232  17.860  11.700  25.130
  760BOLB   C1C18233  17.530  12.270  25.350
  760BOLB   C2C18234  17.040  12.270  25.200
  760BOLB   C3C18235  16.690  12.510  25.100
  760BOLB   C4C18236  16.390  12.720  25.390
  760BOLB   C1D18237  17.730  12.100  24.880
  760BOLB   C2D18238  17.510  12.500  24.830
  760BOLB   C3D18239  17.150  12.800  24.610
  760BOLB   C4D18240  17.290  13.120  24.500
  761BOLB   NC118241   1.840  21.750  15.870
  761BOLB   PO118242   1.610  21.310  16.030
  761BOLB   GL118243   1.920  21.070  15.960
  761BOLB   GL218244   1.920  20.800  15.720
  761BOLB   C1A18245   2.310  20.920  16.050
  761BOLB   C2A18246   2.500  20.540  16.170
  761BOLB   C3A18247   2.730  20.210  16.330
  761BOLB   C4A18248   2.700  19.870  16.650
  761BOLB   C1B18249   2.060  20.510  15.990
  761BOLB   C2B18250   2.100  20.230  16.390
  761BOLB   C3B18251   2.360  20.380  16.630
  761BOLB   C4B18252   2.310  20.730  16.950
  761BOLB   NC218253   1.420  18.600  17.670
  761BOLB   PO218254   1.350  18.580  17.220
  761BOLB   GL318255   1.760  18.590  17.280
  761BOLB   GL418256   1.890  18.400  17.520
  761BOLB   C1C18257   2.160  18.530  17.130
  761BOLB   C2C18258   2.480  18.510  16.790
  761BOLB   C3C18259   2.710  18.980  16.770
  761BOLB   C4C18260   2.680  19.420  16.660
  761BOLB   C1D18261   2.190  18.650  17.660
  761BOLB   C2D18262   2.500  18.600  17.940
  761BOLB   C3D18263   2.830  18.610  18.260
  761BOLB   C4D18264   3.030  18.830  18.610
  762BOLB   NC118265  15.530  16.910  28.210
  762BOLB   PO118266  15.150  17.010  27.920
  762BOLB   GL118267  14.920  16.770  27.640
  762BOLB   GL218268  15.090  16.870  27.370
  762BOLB   C1A18269  14.610  16.800  27.250
  762BOLB   C2A18270  14.560  16.450  26.900
  762BOLB   C3A18271  14.600  15.950  26.800
  762BOLB   C4A18272  14.620  15.760  26.430
  762BOLB   C1B18273  15.050  16.460  27.280
  762BOLB   C2B18274  14.990  16.250  26.950
  762BOLB   C3B18275  15.130  15.960  26.620
  762BOLB   C4B18276  15.460  15.740  26.530
  762BOLB   NC218277  14.640  13.780  28.060
  762BOLB   PO218278  14.580  14.240  28.220
  762BOLB   GL318279  14.510  14.560  27.810
  762BOLB   GL418280  14.800  14.670  27.780
  762BOLB   C1C18281  14.340  14.610  27.360
  762BOLB   C2C18282  14.390  14.820  26.970
  762BOLB   C3C18283  14.460  15.010  26.490
  762BOLB   C4C18284  14.690  15.320  26.270
  762BOLB   C1D18285  14.810  14.470  27.330
  762BOLB   C2D18286  14.840  14.590  26.880
  762BOLB   C3D18287  14.900  14.930  26.640
  762BOLB   C4D18288  15.170  15.000  26.170
  763BOLB   NC118289  19.650  18.010  23.920
  763BOLB   PO118290  19.570  18.400  23.990
  763BOLB   GL118291  19.220  18.240  23.670
  763BOLB   GL218292  19.070  18.470  23.670
  763BOLB   C1A18293  18.880  18.020  23.640
  763BOLB   C2A18294  18.650  17.850  23.170
  763BOLB   C3A18295  18.450  17.990  22.770
  763BOLB   C4A18296  18.720  18.220  22.620
  763BOLB   C1B18297  18.860  18.750  23.440
  763BOLB   C2B18298  18.660  19.080  23.450
  763BOLB   C3B18299  18.790  19.360  23.030
  763BOLB   C4B18300  18.960  19.400  22.590
  763BOLB   NC218301  20.050  18.640  24.030
  763BOLB   PO218302  20.300  19.070  23.870
  763BOLB   GL318303  20.170  19.190  23.450
  763BOLB   GL418304  20.370  19.270  23.160
  763BOLB   C1C18305  19.760  19.060  23.230
  763BOLB   C2C18306  19.780  18.690  23.110
  763BOLB   C3C18307  19.470  18.520  22.700
  763BOLB   C4C18308  19.080  18.490  22.500
  763BOLB   C1D18309  20.220  18.860  23.020
  763BOLB   C2D18310  19.920  18.770  22.660
  763BOLB   C3D18311  19.660  18.810  22.340
  763BOLB   C4D18312  19.250  18.790  22.160
  764BOLB   NC118313  15.380  25.090  23.990
  764BOLB   PO118314  15.200  25.180  23.530
  764BOLB   GL118315  14.830  24.940  23.270
  764BOLB   GL218316  14.830  25.050  22.900
  764BOLB   C1A18317  14.760  24.460  23.320
  764BOLB   C2A18318  14.590  24.060  23.480
  764BOLB   C3A18319  14.620  23.650  23.430
  764BOLB   C4A18320  14.600  23.270  23.570
  764BOLB   C1B18321  14.600  24.820  22.620
  764BOLB   C2B18322  14.760  24.590  22.250
  764BOLB   C3B18323  14.800  24.450  21.850
  764BOLB   C4B18324  14.890  24.120  21.660
  764BOLB   NC218325  16.110  22.960  24.750
  764BOLB   PO218326  16.060  22.520  24.830
  764BOLB   GL318327  15.750  22.670  24.400
  764BOLB   GL418328  15.850  22.450  24.150
  764BOLB   C1C18329  15.340  22.530  24.200
  764BOLB   C2C18330  15.060  22.190  23.990
  764BOLB   C3C18331  14.840  22.490  23.730
  764BOLB   C4C18332  14.790  22.900  23.610
  764BOLB   C1D18333  15.650  22.250  23.970
  764BOLB   C2D18334  15.590  21.790  23.830
  764BOLB   C3D18335  15.600  21.500  23.560
  764BOLB   C4D18336  15.660  21.230  23.190
  765BOLB   NC118337   2.370  15.070  19.850
  765BOLB   PO118338   2.620  15.370  19.930
  765BOLB   GL118339   3.010  15.160  19.830
  765BOLB   GL218340   3.190  14.890  20.000
  765BOLB   C1A18341   3.370  15.190  19.660
  765BOLB   C2A18342   3.810  15.100  19.620
  765BOLB   C3A18343   4.120  14.760  19.430
  765BOLB   C4A18344   4.330  14.360  19.170
  765BOLB   C1B18345   3.300  14.740  19.660
  765BOLB   C2B18346   3.540  14.640  19.340
  765BOLB   C3B18347   3.810  14.520  19.050
  765BOLB   C4B18348   3.970  14.780  18.750
  765BOLB   NC218349   3.430  12.620  20.950
  765BOLB   PO218350   3.680  12.910  20.620
  765BOLB   GL318351   3.970  13.010  20.300
  765BOLB   GL418352   3.860  13.290  20.300
  765BOLB   C1C18353   4.120  12.870  19.960
  765BOLB   C2C18354   4.350  13.020  19.590
  765BOLB   C3C18355   4.370  13.380  19.430
  765BOLB   C4C18356   4.280  13.910  19.200
  765BOLB   C1D18357   4.200  13.650  20.420
  765BOLB   C2D18358   4.530  13.740  20.230
  765BOLB   C3D18359   4.940  13.480  20.230
  765BOLB   C4D18360   5.230  13.240  19.980
  766BOLB   NC118361   8.250  19.530  27.350
  766BOLB   PO118362   8.240  19.610  26.820
  766BOLB   GL118363   8.390  19.750  26.450
  766BOLB   GL218364   8.180  19.560  26.250
  766BOLB   C1A18365   8.640  19.710  26.070
  766BOLB   C2A18366   8.770  19.450  25.660
  766BOLB   C3A18367   8.700  19.460  25.160
  766BOLB   C4A18368   8.790  19.540  24.750
  766BOLB   C1B18369   8.200  19.550  25.800
  766BOLB   C2B18370   8.100  19.610  25.390
  766BOLB   C3B18371   8.080  19.320  25.030
  766BOLB   C4B18372   8.280  19.160  24.770
  766BOLB   NC218373   7.220  19.700  25.890
  766BOLB   PO218374   7.040  20.060  25.610
  766BOLB   GL318375   7.130  20.140  25.160
  766BOLB   GL418376   7.010  20.240  24.920
  766BOLB   C1C18377   7.270  19.800  24.840
  766BOLB   C2C18378   7.730  19.480  24.680
  766BOLB   C3C18379   8.080  19.530  24.460
  766BOLB   C4C18380   8.480  19.460  24.450
  766BOLB   C1D18381   7.280  20.340  24.440
  766BOLB   C2D18382   7.370  20.200  24.100
  766BOLB   C3D18383   7.510  20.310  23.720
  766BOLB   C4D18384   7.580  20.590  23.430
  767BOLB   NC118385  24.450  26.550  13.890
  767BOLB   PO118386  24.380  26.830  13.500
  767BOLB   GL118387  24.020  26.550  13.520
  767BOLB   GL218388  23.890  26.420  13.140
  767BOLB   C1A18389  23.660  26.260  13.580
  767BOLB   C2A18390  23.560  25.950  13.310
  767BOLB   C3A18391  23.260  25.700  13.040
  767BOLB   C4A18392  23.210  25.620  12.740
  767BOLB   C1B18393  24.050  25.970  13.250
  767BOLB   C2B18394  23.760  25.660  13.030
  767BOLB   C3B18395  23.540  25.240  13.090
  767BOLB   C4B18396  23.450  24.890  13.370
  767BOLB   NC218397  22.570  27.790  12.630
  767BOLB   PO218398  23.010  27.610  12.680
  767BOLB   GL318399  22.710  27.270  12.460
  767BOLB   GL418400  22.650  27.410  12.190
  767BOLB   C1C18401  22.790  26.710  12.490
  767BOLB   C2C18402  22.680  26.380  12.340
  767BOLB   C3C18403  22.910  26.100  12.130
  767BOLB   C4C18404  23.110  25.750  12.360
  767BOLB   C1D18405  22.210  27.300  12.340
  767BOLB   C2D18406  21.890  27.470  12.410
  767BOLB   C3D18407  21.520  27.670  12.380
  767BOLB   C4D18408  21.120  27.670  12.440
  768BOLB   NC118409   4.110  12.650  21.680
  768BOLB   PO118410   4.100  12.310  21.590
  768BOLB   GL118411   4.320  12.450  21.190
  768BOLB   GL218412   4.510  12.660  21.390
  768BOLB   C1A18413   4.430  12.450  20.830
  768BOLB   C2A18414   4.690  12.180  20.570
  768BOLB   C3A18415   4.900  12.050  20.190
  768BOLB   C4A18416   5.380  11.950  20.190
  768BOLB   C1B18417   4.750  12.740  21.000
  768BOLB   C2B18418   5.090  12.930  20.780
  768BOLB   C3B18419   5.380  13.290  20.640
  768BOLB   C4B18420   5.670  13.550  20.290
  768BOLB   NC218421   5.080  10.600  20.830
  768BOLB   PO218422   5.290  10.790  21.170
  768BOLB   GL318423   5.580  10.650  20.870
  768BOLB   GL418424   5.590  10.510  20.630
  768BOLB   C1C18425   5.760  11.020  20.730
  768BOLB   C2C18426   5.940  11.180  20.440
  768BOLB   C3C18427   5.860  11.460  20.210
  768BOLB   C4C18428   5.730  11.750  20.050
  768BOLB   C1D18429   5.990  10.620  20.420
  768BOLB   C2D18430   6.370  10.730  20.190
  768BOLB   C3D18431   6.830  10.790  20.180
  768BOLB   C4D18432   7.260  10.640  20.270
  769BOLB   NC118433  12.750  24.000  16.020
  769BOLB   PO118434  13.040  24.360  16.190
  769BOLB   GL118435  12.800  24.720  16.440
  769BOLB   GL218436  12.510  24.900  16.330
  769BOLB   C1A18437  12.870  25.210  16.650
  769BOLB   C2A18438  12.820  25.580  16.740
  769BOLB   C3A18439  12.730  25.950  16.460
  769BOLB   C4A18440  12.530  26.230  16.190
  769BOLB   C1B18441  12.320  25.300  16.380
  769BOLB   C2B18442  12.300  25.750  16.430
  769BOLB   C3B18443  12.050  26.100  16.240
  769BOLB   C4B18444  11.620  26.140  16.240
  769BOLB   NC218445  10.920  28.370  16.430
  769BOLB   PO218446  11.350  28.410  16.600
  769BOLB   GL318447  11.460  27.980  16.440
  769BOLB   GL418448  11.500  27.760  16.740
  769BOLB   C1C18449  11.810  27.710  16.140
  769BOLB   C2C18450  12.190  27.340  15.950
  769BOLB   C3C18451  12.150  26.910  15.850
  769BOLB   C4C18452  12.310  26.480  15.900
  769BOLB   C1D18453  11.810  27.560  16.590
  769BOLB   C2D18454  11.980  27.150  16.430
  769BOLB   C3D18455  12.160  26.620  16.390
  769BOLB   C4D18456  12.290  26.170  16.620
  770BOLB   NC118457  18.330  24.540  10.500
  770BOLB   PO118458  18.040  24.950  10.620
  770BOLB   GL118459  17.880  25.350  10.340
  770BOLB   GL218460  17.520  25.310  10.200
  770BOLB   C1A18461  18.000  25.780  10.240
  770BOLB   C2A18462  18.060  26.150  10.040
  770BOLB   C3A18463  18.380  26.370   9.850
  770BOLB   C4A18464  18.620  26.550   9.570
  770BOLB   C1B18465  17.540  25.700  10.050
  770BOLB   C2B18466  17.520  26.080   9.930
  770BOLB   C3B18467  17.420  26.580  10.020
  770BOLB   C4B18468  17.110  26.800  10.460
  770BOLB   NC218469  19.250  28.760   9.240
  770BOLB   PO218470  19.510  28.430   9.580
  770BOLB   GL318471  19.180  28.310   9.730
  770BOLB   GL418472  19.290  28.040   9.870
  770BOLB   C1C18473  18.710  28.180   9.640
  770BOLB   C2C18474  18.620  27.720   9.730
  770BOLB   C3C18475  18.490  27.380   9.520
  770BOLB   C4C18476  18.570  27.010   9.490
  770BOLB   C1D18477  19.070  27.720   9.890
  770BOLB   C2D18478  18.870  27.290   9.940
  770BOLB   C3D18479  19.010  26.880   9.750
  770BOLB   C4D18480  19.170  26.440   9.630
  771BOLB   NC118481  17.540  23.240  18.020
  771BOLB   PO118482  17.520  23.690  18.000
  771BOLB   GL118483  17.610  24.040  18.230
  771BOLB   GL218484  17.650  24.440  18.090
  771BOLB   C1A18485  17.880  24.280  18.490
  771BOLB   C2A18486  18.050  24.540  18.740
  771BOLB   C3A18487  18.310  24.740  18.900
  771BOLB   C4A18488  18.650  24.850  19.170
  771BOLB   C1B18489  17.860  24.860  18.300
  771BOLB   C2B18490  17.580  25.240  18.290
  771BOLB   C3B18491  17.630  25.480  18.720
  771BOLB   C4B18492  17.790  25.650  19.220
  771BOLB   NC218493  20.070  25.440  21.240
  771BOLB   PO218494  20.240  25.370  20.780
  771BOLB   GL318495  19.870  25.260  20.610
  771BOLB   GL418496  19.810  25.510  20.280
  771BOLB   C1C18497  19.590  24.990  20.390
  771BOLB   C2C18498  19.500  24.850  19.910
  771BOLB   C3C18499  19.270  24.820  19.540
  771BOLB   C4C18500  19.030  24.730  19.230
  771BOLB   C1D18501  20.000  25.130  20.170
  771BOLB   C2D18502  19.960  24.930  19.870
  771BOLB   C3D18503  19.810  24.550  19.610
  771BOLB   C4D18504  19.620  24.170  19.780
  772BOLB   NC118505  21.130   6.910  16.060
  772BOLB   PO118506  20.980   7.010  15.630
  772BOLB   GL118507  20.790   7.080  15.270
  772BOLB   GL218508  20.490   7.050  15.020
  772BOLB   C1A18509  20.790   7.520  15.060
  772BOLB   C2A18510  20.890   7.920  15.310
  772BOLB   C3A18511  20.740   8.070  15.640
  772BOLB   C4A18512  20.410   8.130  15.880
  772BOLB   C1B18513  20.370   7.200  14.720
  772BOLB   C2B18514  20.090   7.470  14.490
  772BOLB   C3B18515  20.010   7.910  14.470
  772BOLB   C4B18516  20.000   8.320  14.400
  772BOLB   NC218517  20.090   7.330  17.890
  772BOLB   PO218518  20.100   7.030  17.620
  772BOLB   GL318519  19.960   7.390  17.420
  772BOLB   GL418520  19.640   7.260  17.330
  772BOLB   C1C18521  19.920   7.810  17.240
  772BOLB   C2C18522  20.020   8.120  17.040
  772BOLB   C3C18523  20.120   8.330  16.640
  772BOLB   C4C18524  20.170   8.220  16.180
  772BOLB   C1D18525  19.470   7.670  17.210
  772BOLB   C2D18526  19.440   8.180  17.070
  772BOLB   C3D18527  19.620   8.460  16.790
  772BOLB   C4D18528  19.420   8.860  16.670
  773BOLB   NC118529  26.620  23.870  15.650
  773BOLB   PO118530  26.180  23.680  15.390
  773BOLB   GL118531  25.980  23.430  15.170
  773BOLB   GL218532  25.640  23.500  15.140
  773BOLB   C1A18533  25.880  23.210  14.730
  773BOLB   C2A18534  25.540  23.050  14.540
  773BOLB   C3A18535  25.100  22.920  14.370
  773BOLB   C4A18536  24.720  23.080  14.280
  773BOLB   C1B18537  25.500  23.090  15.140
  773BOLB   C2B18538  25.190  23.000  14.960
  773BOLB   C3B18539  25.040  22.640  14.820
  773BOLB   C4B18540  24.870  22.470  14.480
  773BOLB   NC218541  22.440  21.560  12.960
  773BOLB   PO218542  22.730  21.860  13.220
  773BOLB   GL318543  23.110  22.130  13.420
  773BOLB   GL418544  23.200  22.350  13.320
  773BOLB   C1C18545  23.470  22.210  13.740
  773BOLB   C2C18546  23.680  22.560  13.760
  773BOLB   C3C18547  24.220  22.740  13.810
  773BOLB   C4C18548  24.480  22.830  14.090
  773BOLB   C1D18549  23.650  22.270  13.290
  773BOLB   C2D18550  24.020  22.400  13.340
  773BOLB   C3D18551  24.410  22.520  13.310
  773BOLB   C4D18552  24.780  22.330  13.370
  774BOLB   NC118553   2.110  18.610  12.150
  774BOLB   PO118554   2.430  18.270  12.190
  774BOLB   GL118555   2.650  18.250  12.540
  774BOLB   GL218556   2.930  18.050  12.550
  774BOLB   C1A18557   2.740  18.170  12.920
  774BOLB   C2A18558   2.800  18.020  13.280
  774BOLB   C3A18559   2.960  18.140  13.670
  774BOLB   C4A18560   3.200  18.500  13.770
  774BOLB   C1B18561   3.120  17.850  12.980
  774BOLB   C2B18562   3.200  17.480  13.060
  774BOLB   C3B18563   3.400  17.110  12.870
  774BOLB   C4B18564   3.790  17.120  12.780
  774BOLB   NC218565   1.460  20.460  12.940
  774BOLB   PO218566   1.680  19.980  12.840
  774BOLB   GL318567   1.990  19.700  13.010
  774BOLB   GL418568   2.060  19.510  12.780
  774BOLB   C1C18569   2.430  19.640  13.240
  774BOLB   C2C18570   2.680  19.440  13.570
  774BOLB   C3C18571   3.030  19.270  13.620
  774BOLB   C4C18572   3.260  18.870  13.670
  774BOLB   C1D18573   2.040  19.160  13.060
  774BOLB   C2D18574   2.200  18.970  13.260
  774BOLB   C3D18575   2.200  18.660  13.560
  774BOLB   C4D18576   2.330  18.360  13.820
  775BOLB   NC118577   1.160  17.180  18.530
  775BOLB   PO118578   1.220  17.290  18.160
  775BOLB   GL118579   1.580  17.230  18.080
  775BOLB   GL218580   1.680  17.060  17.750
  775BOLB   C1A18581   2.020  17.390  18.110
  775BOLB   C2A18582   2.300  17.700  18.230
  775BOLB   C3A18583   2.700  17.630  18.080
  775BOLB   C4A18584   3.080  17.880  17.810
  775BOLB   C1B18585   2.120  17.100  17.740
  775BOLB   C2B18586   2.470  17.140  17.980
  775BOLB   C3B18587   2.760  17.210  18.410
  775BOLB   C4B18588   3.060  17.130  18.550
  775BOLB   NC218589   1.410  18.960  17.950
  775BOLB   PO218590   1.610  19.030  17.490
  775BOLB   GL318591   1.920  19.000  17.820
  775BOLB   GL418592   1.840  19.150  18.120
  775BOLB   C1C18593   2.430  19.100  17.640
  775BOLB   C2C18594   2.830  19.010  17.630
  775BOLB   C3C18595   3.010  18.690  17.780
  775BOLB   C4C18596   3.230  18.330  17.870
  775BOLB   C1D18597   2.270  19.010  18.250
  775BOLB   C2D18598   2.610  19.120  18.520
  775BOLB   C3D18599   2.820  19.170  18.960
  775BOLB   C4D18600   2.840  19.160  19.400
  776BOLB   NC118601  15.700  21.530  26.580
  776BOLB   PO118602  15.530  21.460  26.110
  776BOLB   GL118603  15.270  21.240  25.950
  776BOLB   GL218604  15.490  20.930  25.980
  776BOLB   C1A18605  15.010  20.870  25.900
  776BOLB   C2A18606  14.730  20.560  25.750
  776BOLB   C3A18607  14.500  20.530  25.410
  776BOLB   C4A18608  14.340  20.670  25.120
  776BOLB   C1B18609  15.740  20.570  25.790
  776BOLB   C2B18610  15.630  20.060  25.650
  776BOLB   C3B18611  15.290  19.940  25.220
  776BOLB   C4B18612  14.830  19.770  25.210
  776BOLB   NC218613  15.270  22.380  26.100
  776BOLB   PO218614  15.410  22.210  25.700
  776BOLB   GL318615  15.490  21.940  25.310
  776BOLB   GL418616  15.500  22.080  25.000
  776BOLB   C1C18617  15.580  21.480  25.240
  776BOLB   C2C18618  15.450  21.130  25.000
  776BOLB   C3C18619  15.180  20.840  24.950
  776BOLB   C4C18620  14.710  20.840  24.840
  776BOLB   C1D18621  15.130  21.800  25.030
  776BOLB   C2D18622  15.090  21.410  25.240
  776BOLB   C3D18623  14.880  21.260  25.640
  776BOLB   C4D18624  14.500  21.070  25.820
  777BOLB   NC118625  13.820  25.960  22.540
  777BOLB   PO118626  13.670  25.550  22.480
  777BOLB   GL118627  13.410  25.370  22.170
  777BOLB   GL218628  13.220  25.230  22.370
  777BOLB   C1A18629  13.150  25.170  21.890
  777BOLB   C2A18630  12.880  25.290  21.560
  777BOLB   C3A18631  12.610  25.370  21.170
  777BOLB   C4A18632  12.370  25.220  20.930
  777BOLB   C1B18633  12.970  24.980  22.370
  777BOLB   C2B18634  12.800  24.590  22.370
  777BOLB   C3B18635  12.770  24.390  22.070
  777BOLB   C4B18636  12.540  24.380  21.780
  777BOLB   NC218637  10.310  26.470  21.050
  777BOLB   PO218638  10.590  26.470  20.650
  777BOLB   GL318639  10.890  26.230  20.670
  777BOLB   GL418640  10.860  26.200  20.270
  777BOLB   C1C18641  11.090  25.800  20.810
  777BOLB   C2C18642  11.340  25.430  20.740
  777BOLB   C3C18643  11.790  25.350  20.590
  777BOLB   C4C18644  12.090  25.270  20.650
  777BOLB   C1D18645  10.810  25.940  19.910
  777BOLB   C2D18646  10.710  25.580  19.690
  777BOLB   C3D18647  10.570  25.340  19.410
  777BOLB   C4D18648  10.450  25.430  19.060
  778BOLB   NC118649   8.740  14.870  26.620
  778BOLB   PO118650   8.970  14.680  26.260
  778BOLB   GL118651   9.180  14.590  25.750
  778BOLB   GL218652   8.920  14.450  25.570
  778BOLB   C1A18653   9.470  14.410  25.330
  778BOLB   C2A18654   9.540  14.330  24.880
  778BOLB   C3A18655   9.580  13.850  24.780
  778BOLB   C4A18656   9.390  13.430  24.740
  778BOLB   C1B18657   8.990  14.580  25.200
  778BOLB   C2B18658   9.270  14.760  24.990
  778BOLB   C3B18659   9.360  15.130  24.830
  778BOLB   C4B18660   9.550  15.550  24.650
  778BOLB   NC218661   8.800  11.550  25.980
  778BOLB   PO218662   9.150  11.400  25.790
  778BOLB   GL318663   9.290  11.670  25.420
  778BOLB   GL418664   9.370  11.550  25.160
  778BOLB   C1C18665   9.390  12.050  25.230
  778BOLB   C2C18666   9.500  12.280  24.850
  778BOLB   C3C18667   9.640  12.730  24.850
  778BOLB   C4C18668   9.580  13.060  24.770
  778BOLB   C1D18669   9.290  11.750  24.850
  778BOLB   C2D18670   9.380  11.620  24.460
  778BOLB   C3D18671   9.610  11.610  24.060
  778BOLB   C4D18672   9.760  11.250  23.800
  779BOLB   NC118673  14.870  25.270  12.770
  779BOLB   PO118674  15.280  25.470  12.870
  779BOLB   GL118675  15.010  25.790  12.730
  779BOLB   GL218676  15.160  25.930  12.480
  779BOLB   C1A18677  14.760  26.240  12.640
  779BOLB   C2A18678  14.870  26.550  12.310
  779BOLB   C3A18679  14.840  26.950  12.060
  779BOLB   C4A18680  14.750  27.300  11.810
  779BOLB   C1B18681  15.280  26.440  12.580
  779BOLB   C2B18682  15.020  26.730  12.720
  779BOLB   C3B18683  14.960  27.120  12.520
  779BOLB   C4B18684  14.810  27.430  12.350
  779BOLB   NC218685  15.550  29.440  11.430
  779BOLB   PO218686  15.120  29.500  11.470
  779BOLB   GL318687  15.180  29.060  11.440
  779BOLB   GL418688  15.250  28.800  11.750
  779BOLB   C1C18689  14.920  28.710  11.430
  779BOLB   C2C18690  14.860  28.340  11.270
  779BOLB   C3C18691  14.740  27.950  11.290
  779BOLB   C4C18692  14.790  27.650  11.510
  779BOLB   C1D18693  15.370  28.420  11.760
  779BOLB   C2D18694  15.310  28.100  11.440
  779BOLB   C3D18695  15.660  27.890  11.220
  779BOLB   C4D18696  15.900  27.610  11.410
  780BOLB   NC118697   1.760  21.420  14.640
  780BOLB   PO118698   1.930  21.570  14.940
  780BOLB   GL118699   2.190  21.390  15.260
  780BOLB   GL218700   1.990  21.180  15.380
  780BOLB   C1A18701   2.490  21.030  15.580
  780BOLB   C2A18702   2.320  20.600  15.550
  780BOLB   C3A18703   2.410  20.110  15.410
  780BOLB   C4A18704   2.220  19.660  15.350
  780BOLB   C1B18705   2.270  20.890  15.140
  780BOLB   C2B18706   2.470  20.700  14.730
  780BOLB   C3B18707   2.730  20.270  14.580
  780BOLB   C4B18708   2.820  20.010  14.240
  780BOLB   NC218709   0.860  17.740  14.830
  780BOLB   PO218710   0.990  17.630  15.220
  780BOLB   GL318711   1.480  17.680  15.260
  780BOLB   GL418712   1.450  17.480  15.510
  780BOLB   C1C18713   1.620  18.020  15.160
  780BOLB   C2C18714   1.860  18.460  15.270
  780BOLB   C3C18715   2.040  18.880  15.480
  780BOLB   C4C18716   2.140  19.330  15.440
  780BOLB   C1D18717   1.900  17.580  15.370
  780BOLB   C2D18718   2.130  17.500  15.040
  780BOLB   C3D18719   2.460  17.360  15.060
  780BOLB   C4D18720   2.770  17.090  14.860
  781BOLB   NC118721  22.000  17.550  17.220
  781BOLB   PO118722  21.760  17.200  17.480
  781BOLB   GL118723  22.140  17.250  17.620
  781BOLB   GL218724  22.310  16.950  17.760
  781BOLB   C1A18725  22.490  17.430  17.940
  781BOLB   C2A18726  22.780  17.390  18.220
  781BOLB   C3A18727  22.920  17.570  18.550
  781BOLB   C4A18728  23.250  17.880  18.590
  781BOLB   C1B18729  22.370  17.040  18.260
  781BOLB   C2B18730  22.610  17.050  18.700
  781BOLB   C3B18731  22.880  17.100  18.950
  781BOLB   C4B18732  23.110  17.470  19.010
  781BOLB   NC218733  24.270  19.090  20.350
  781BOLB   PO218734  24.250  19.460  20.080
  781BOLB   GL318735  24.060  19.270  19.870
  781BOLB   GL418736  23.790  19.270  19.970
  781BOLB   C1C18737  23.860  19.050  19.480
  781BOLB   C2C18738  23.680  18.740  19.170
  781BOLB   C3C18739  23.490  18.390  19.020
  781BOLB   C4C18740  23.350  18.220  18.750
  781BOLB   C1D18741  23.560  18.980  19.860
  781BOLB   C2D18742  23.210  18.920  19.550
  781BOLB   C3D18743  22.840  18.970  19.540
  781BOLB   C4D18744  22.360  19.100  19.600
  782BOLB   NC118745   4.290  23.990  14.450
  782BOLB   PO118746   4.580  23.520  14.390
  782BOLB   GL118747   4.850  23.150  14.500
  782BOLB   GL218748   5.140  22.920  14.300
  782BOLB   C1A18749   4.750  22.770  14.620
  782BOLB   C2A18750   4.980  22.460  14.870
  782BOLB   C3A18751   5.220  22.440  15.250
  782BOLB   C4A18752   5.560  22.630  15.430
  782BOLB   C1B18753   5.370  22.610  14.380
  782BOLB   C2B18754   5.740  22.840  14.550
  782BOLB   C3B18755   5.620  23.180  14.540
  782BOLB   C4B18756   5.650  23.600  14.740
  782BOLB   NC218757   4.830  24.880  16.090
  782BOLB   PO218758   5.230  24.850  15.850
  782BOLB   GL318759   5.500  24.460  15.770
  782BOLB   GL418760   5.730  24.540  15.930
  782BOLB   C1C18761   5.510  24.030  15.850
  782BOLB   C2C18762   5.330  23.620  15.820
  782BOLB   C3C18763   5.530  23.370  15.810
  782BOLB   C4C18764   5.640  23.040  15.620
  782BOLB   C1D18765   6.000  24.260  16.130
  782BOLB   C2D18766   6.370  24.200  16.150
  782BOLB   C3D18767   6.710  24.030  16.260
  782BOLB   C4D18768   6.720  23.610  16.070
  783BOLB   NC118769   4.180   9.150  17.830
  783BOLB   PO118770   4.410   9.180  18.260
  783BOLB   GL118771   4.800   9.090  18.010
  783BOLB   GL218772   5.130   9.100  18.110
  783BOLB   C1A18773   5.060   9.350  17.650
  783BOLB   C2A18774   5.530   9.280  17.710
  783BOLB   C3A18775   5.840   9.120  17.480
  783BOLB   C4A18776   5.930   8.940  17.100
  783BOLB   C1B18777   5.560   9.060  18.160
  783BOLB   C2B18778   6.040   8.900  18.150
  783BOLB   C3B18779   6.450   8.880  18.180
  783BOLB   C4B18780   6.810   8.710  18.230
  783BOLB   NC218781   4.150   8.450  17.010
  783BOLB   PO218782   4.190   8.420  16.560
  783BOLB   GL318783   4.190   8.750  16.490
  783BOLB   GL418784   4.040   8.890  16.480
  783BOLB   C1C18785   4.530   9.090  16.540
  783BOLB   C2C18786   4.830   9.420  16.610
  783BOLB   C3C18787   5.260   9.340  16.760
  783BOLB   C4C18788   5.620   9.050  16.820
  783BOLB   C1D18789   4.280   8.980  16.090
  783BOLB   C2D18790   4.710   9.180  16.020
  783BOLB   C3D18791   5.020   9.490  16.070
  783BOLB   C4D18792   5.310   9.400  15.850
  784BOLB   NC118793   1.670  22.930  17.810
  784BOLB   PO118794   1.870  22.810  17.550
  784BOLB   GL118795   2.130  22.440  17.600
  784BOLB   GL218796   2.360  22.410  17.860
  784BOLB   C1A18797   2.280  22.070  17.430
  784BOLB   C2A18798   2.220  21.620  17.410
  784BOLB   C3A18799   2.660  21.390  17.580
  784BOLB   C4A18800   3.070  21.480  17.720
  784BOLB   C1B18801   2.650  22.440  17.430
  784BOLB   C2B18802   2.910  22.500  17.040
  784BOLB   C3B18803   3.250  22.780  17.110
  784BOLB   C4B18804   3.360  22.870  17.540
  784BOLB   NC218805   1.320  21.560  18.170
  784BOLB   PO218806   1.770  21.670  18.200
  784BOLB   GL318807   2.120  21.580  18.090
  784BOLB   GL418808   2.270  21.780  17.990
  784BOLB   C1C18809   2.370  21.550  18.460
  784BOLB   C2C18810   2.610  21.150  18.560
  784BOLB   C3C18811   2.980  21.040  18.360
  784BOLB   C4C18812   3.270  21.200  18.030
  784BOLB   C1D18813   2.640  21.920  17.820
  784BOLB   C2D18814   2.840  22.250  17.930
  784BOLB   C3D18815   2.910  22.720  17.820
  784BOLB   C4D18816   2.850  22.890  17.400
  785BOLB   NC118817  16.930  10.430   5.930
  785BOLB   PO118818  16.970  10.370   6.360
  785BOLB   GL118819  16.910   9.950   6.130
  785BOLB   GL218820  16.660  10.050   5.930
  785BOLB   C1A18821  16.880   9.560   6.160
  785BOLB   C2A18822  16.880   9.140   6.270
  785BOLB   C3A18823  17.250   8.900   6.370
  785BOLB   C4A18824  17.290   8.390   6.340
  785BOLB   C1B18825  16.800   9.630   5.700
  785BOLB   C2B18826  16.680   9.470   5.280
  785BOLB   C3B18827  16.270   9.470   5.080
  785BOLB   C4B18828  16.260   9.240   4.640
  785BOLB   NC218829  17.950   5.690   5.560
  785BOLB   PO218830  18.040   6.120   5.580
  785BOLB   GL318831  17.700   6.460   5.670
  785BOLB   GL418832  17.380   6.400   5.730
  785BOLB   C1C18833  17.550   6.910   5.720
  785BOLB   C2C18834  17.340   7.370   5.840
  785BOLB   C3C18835  17.200   7.610   6.060
  785BOLB   C4C18836  17.270   7.970   6.170
  785BOLB   C1D18837  17.160   6.740   5.980
  785BOLB   C2D18838  17.080   7.110   6.130
  785BOLB   C3D18839  17.340   7.270   6.400
  785BOLB   C4D18840  17.740   7.440   6.490
  786BOLB   NC118841  10.950  19.890   8.520
  786BOLB   PO118842  10.770  20.160   8.250
  786BOLB   GL118843  10.610  20.380   8.000
  786BOLB   GL218844  10.400  20.570   8.160
  786BOLB   C1A18845  10.430  20.640   7.680
  786BOLB   C2A18846  10.160  21.020   7.520
  786BOLB   C3A18847   9.950  21.390   7.430
  786BOLB   C4A18848   9.690  21.620   7.200
  786BOLB   C1B18849  10.090  20.820   8.060
  786BOLB   C2B18850   9.860  21.180   7.950
  786BOLB   C3B18851   9.580  21.450   7.780
  786BOLB   C4B18852   9.360  21.670   7.580
  786BOLB   NC218853   7.170  22.440   6.180
  786BOLB   PO218854   7.490  22.810   6.110
  786BOLB   GL318855   7.810  22.530   6.350
  786BOLB   GL418856   7.630  22.250   6.540
  786BOLB   C1C18857   8.250  22.480   6.570
  786BOLB   C2C18858   8.620  22.310   6.740
  786BOLB   C3C18859   8.840  22.150   7.020
  786BOLB   C4C18860   9.360  21.900   7.100
  786BOLB   C1D18861   7.900  22.340   6.920
  786BOLB   C2D18862   8.240  22.260   7.100
  786BOLB   C3D18863   8.470  22.170   7.370
  786BOLB   C4D18864   8.750  21.840   7.480
  787BOLB   NC118865  10.520  19.390  27.450
  787BOLB   PO118866  10.740  19.780  27.420
  787BOLB   GL118867  10.850  19.660  27.040
  787BOLB   GL218868  11.150  19.720  26.980
  787BOLB   C1A18869  10.730  19.590  26.620
  787BOLB   C2A18870  10.970  19.590  26.160
  787BOLB   C3A18871  10.970  20.000  25.900
  787BOLB   C4A18872  10.820  20.100  25.550
  787BOLB   C1B18873  11.020  20.020  26.660
  787BOLB   C2B18874  10.710  19.990  26.310
  787BOLB   C3B18875  10.510  20.190  25.950
  787BOLB   C4B18876  10.560  20.490  25.660
  787BOLB   NC218877   8.980  20.990  26.230
  787BOLB   PO218878   9.340  21.190  26.220
  787BOLB   GL318879   9.570  21.060  25.830
  787BOLB   GL418880   9.450  21.240  25.430
  787BOLB   C1C18881   9.870  20.910  25.520
  787BOLB   C2C18882  10.160  20.920  25.190
  787BOLB   C3C18883  10.610  20.830  25.240
  787BOLB   C4C18884  10.740  20.370  25.160
  787BOLB   C1D18885   9.660  20.990  25.070
  787BOLB   C2D18886   9.860  21.140  24.800
  787BOLB   C3D18887   9.820  21.500  24.440
  787BOLB   C4D18888   9.860  21.630  23.990
  788BOLB   NC118889  17.150   6.650  20.300
  788BOLB   PO118890  16.960   6.870  20.550
  788BOLB   GL118891  16.790   7.370  20.630
  788BOLB   GL218892  16.680   7.450  20.330
  788BOLB   C1A18893  16.690   7.750  20.890
  788BOLB   C2A18894  16.790   7.980  21.240
  788BOLB   C3A18895  16.640   8.390  21.310
  788BOLB   C4A18896  16.760   8.770  21.480
  788BOLB   C1B18897  16.590   7.920  20.230
  788BOLB   C2B18898  16.350   8.310  20.110
  788BOLB   C3B18899  15.970   8.420  20.150
  788BOLB   C4B18900  15.540   8.550  20.240
  788BOLB   NC218901  18.940   9.250  20.860
  788BOLB   PO218902  18.680   9.320  21.240
  788BOLB   GL318903  18.410   9.090  20.950
  788BOLB   GL418904  18.560   9.000  20.640
  788BOLB   C1C18905  17.990   9.180  20.990
  788BOLB   C2C18906  17.590   9.360  21.180
  788BOLB   C3C18907  17.250   9.280  21.460
  788BOLB   C4C18908  16.980   9.090  21.650
  788BOLB   C1D18909  18.250   9.380  20.550
  788BOLB   C2D18910  17.990   9.760  20.350
  788BOLB   C3D18911  17.610   9.840  20.370
  788BOLB   C4D18912  17.430  10.070  20.150
  789BOLB   NC118913  13.080  22.370   8.350
  789BOLB   PO118914  12.850  22.540   8.660
  789BOLB   GL118915  12.990  22.930   8.440
  789BOLB   GL218916  13.010  23.120   8.600
  789BOLB   C1A18917  13.070  23.040   7.990
  789BOLB   C2A18918  13.110  23.250   7.600
  789BOLB   C3A18919  13.210  23.700   7.390
  789BOLB   C4A18920  13.000  24.100   7.100
  789BOLB   C1B18921  12.850  23.470   8.350
  789BOLB   C2B18922  12.850  23.900   8.380
  789BOLB   C3B18923  12.880  24.310   8.300
  789BOLB   C4B18924  12.610  24.670   8.100
  789BOLB   NC218925  12.940  25.420   5.590
  789BOLB   PO218926  13.200  25.760   5.890
  789BOLB   GL318927  13.090  25.890   6.350
  789BOLB   GL418928  13.290  26.010   6.640
  789BOLB   C1C18929  13.180  25.530   6.800
  789BOLB   C2C18930  13.240  25.290   7.210
  789BOLB   C3C18931  13.010  24.870   7.140
  789BOLB   C4C18932  12.930  24.500   7.030
  789BOLB   C1D18933  13.520  25.830   7.010
  789BOLB   C2D18934  13.410  25.760   7.400
  789BOLB   C3D18935  13.290  25.470   7.670
  789BOLB   C4D18936  13.340  25.060   7.680
  790BOLB   NC118937  18.590   8.980  13.220
  790BOLB   PO118938  18.540   9.040  12.800
  790BOLB   GL118939  18.490   8.580  12.880
  790BOLB   GL218940  18.340   8.460  12.570
  790BOLB   C1A18941  18.750   8.150  12.920
  790BOLB   C2A18942  18.960   7.840  12.850
  790BOLB   C3A18943  19.200   7.580  12.500
  790BOLB   C4A18944  19.070   7.380  12.150
  790BOLB   C1B18945  18.260   7.980  12.530
  790BOLB   C2B18946  18.160   7.550  12.400
  790BOLB   C3B18947  18.340   7.230  12.160
  790BOLB   C4B18948  18.330   6.820  12.250
  790BOLB   NC218949  20.710   5.520  11.510
  790BOLB   PO218950  20.590   5.980  11.700
  790BOLB   GL318951  20.360   6.310  11.920
  790BOLB   GL418952  20.130   6.210  12.200
  790BOLB   C1C18953  20.080   6.570  11.850
  790BOLB   C2C18954  20.090   6.920  11.770
  790BOLB   C3C18955  19.750   7.170  11.810
  790BOLB   C4C18956  19.390   7.260  11.800
  790BOLB   C1D18957  20.000   6.540  12.390
  790BOLB   C2D18958  19.710   6.700  12.540
  790BOLB   C3D18959  19.350   6.890  12.840
  790BOLB   C4D18960  19.000   7.160  12.710
  791BOLB   NC118961  25.060  17.120  19.180
  791BOLB   PO118962  25.280  16.850  19.450
  791BOLB   GL118963  24.840  16.680  19.250
  791BOLB   GL218964  24.740  16.720  18.870
  791BOLB   C1A18965  24.510  16.370  19.180
  791BOLB   C2A18966  24.050  16.430  19.130
  791BOLB   C3A18967  23.730  16.180  19.070
  791BOLB   C4A18968  23.520  15.840  18.950
  791BOLB   C1B18969  24.480  17.050  18.820
  791BOLB   C2B18970  24.100  17.300  18.760
  791BOLB   C3B18971  23.850  17.280  18.290
  791BOLB   C4B18972  23.940  17.540  17.990
  791BOLB   NC218973  24.190  13.680  19.870
  791BOLB   PO218974  23.890  14.030  19.880
  791BOLB   GL318975  23.550  14.290  19.740
  791BOLB   GL418976  23.550  14.400  19.900
  791BOLB   C1C18977  23.260  14.670  19.590
  791BOLB   C2C18978  23.040  14.780  19.240
  791BOLB   C3C18979  22.970  15.170  19.000
  791BOLB   C4C18980  23.200  15.550  19.050
  791BOLB   C1D18981  23.170  14.590  20.130
  791BOLB   C2D18982  22.700  14.480  20.300
  791BOLB   C3D18983  22.520  14.110  20.540
  791BOLB   C4D18984  22.510  14.230  21.010
  792BOLB   NC118985  27.580  20.010  11.010
  792BOLB   PO118986  27.520  19.680  11.290
  792BOLB   GL118987  27.290  20.000  11.410
  792BOLB   GL218988  27.010  19.920  11.450
  792BOLB   C1A18989  27.060  20.420  11.400
  792BOLB   C2A18990  26.850  20.760  11.140
  792BOLB   C3A18991  26.690  20.900  10.730
  792BOLB   C4A18992  26.650  20.890  10.330
  792BOLB   C1B18993  26.730  20.090  11.590
  792BOLB   C2B18994  26.480  20.130  11.970
  792BOLB   C3B18995  26.030  20.240  12.150
  792BOLB   C4B18996  25.660  20.370  11.970
  792BOLB   NC218997  26.960  22.440   8.790
  792BOLB   PO218998  26.810  22.740   9.110
  792BOLB   GL318999  26.520  22.320   8.910
  792BOLB   GL419000  26.650  22.020   8.750
  792BOLB   C1C19001  26.390  21.900   9.200
  792BOLB   C2C19002  26.270  21.880   9.520
  792BOLB   C3C19003  26.260  21.440   9.650
  792BOLB   C4C19004  26.370  21.040  10.020
  792BOLB   C1D19005  26.540  21.920   8.310
  792BOLB   C2D19006  26.580  21.860   7.880
  792BOLB   C3D19007  26.480  21.620   7.560
  792BOLB   C4D19008  26.340  21.680   7.150
  793BOLB   NC119009  22.730  20.820  13.080
  793BOLB   PO119010  23.000  21.090  12.910
  793BOLB   GL119011  23.430  21.410  13.010
  793BOLB   GL219012  23.520  21.620  12.690
  793BOLB   C1A19013  23.760  21.650  13.160
  793BOLB   C2A19014  23.840  21.850  13.630
  793BOLB   C3A19015  24.110  22.170  13.980
  793BOLB   C4A19016  24.570  22.140  14.090
  793BOLB   C1B19017  23.840  21.860  12.630
  793BOLB   C2B19018  24.020  22.100  12.840
  793BOLB   C3B19019  24.220  21.990  13.200
  793BOLB   C4B19020  24.410  22.100  13.580
  793BOLB   NC219021  27.330  22.780  14.660
  793BOLB   PO219022  26.890  22.870  14.610
  793BOLB   GL319023  26.450  23.020  14.300
  793BOLB   GL419024  26.270  23.290  14.410
  793BOLB   C1C19025  26.090  22.750  14.150
  793BOLB   C2C19026  25.730  22.600  13.960
  793BOLB   C3C19027  25.350  22.440  13.890
  793BOLB   C4C19028  24.870  22.230  13.860
  793BOLB   C1D19029  25.820  23.320  14.220
  793BOLB   C2D19030  25.430  23.110  14.060
  793BOLB   C3D19031  25.130  23.130  13.910
  793BOLB   C4D19032  24.640  23.210  13.810
  794BOLB   NC119033  19.950  18.620  18.750
  794BOLB   PO119034  20.240  18.900  18.770
  794BOLB   GL119035  20.610  19.180  19.000
  794BOLB   GL219036  20.900  19.140  18.780
  794BOLB   C1A19037  20.630  19.060  19.470
  794BOLB   C2A19038  20.810  19.110  19.770
  794BOLB   C3A19039  21.020  19.250  20.010
  794BOLB   C4A19040  21.020  19.490  20.530
  794BOLB   C1B19041  21.050  19.030  19.210
  794BOLB   C2B19042  21.250  19.130  19.520
  794BOLB   C3B19043  21.460  19.430  19.800
  794BOLB   C4B19044  21.620  19.730  19.970
  794BOLB   NC219045  22.040  20.130  22.280
  794BOLB   PO219046  21.840  19.940  22.640
  794BOLB   GL319047  21.700  19.750  22.320
  794BOLB   GL419048  21.940  19.680  22.050
  794BOLB   C1C19049  21.390  19.850  22.050
  794BOLB   C2C19050  20.970  19.780  21.770
  794BOLB   C3C19051  20.910  19.680  21.350
  794BOLB   C4C19052  21.130  19.520  20.990
  794BOLB   C1D19053  21.580  19.480  21.780
  794BOLB   C2D19054  21.290  19.420  21.490
  794BOLB   C3D19055  21.060  19.110  21.330
  794BOLB   C4D19056  20.820  18.830  21.500
  795BOLB   NC119057  17.600  11.510  18.250
  795BOLB   PO119058  17.460  11.310  17.910
  795BOLB   GL119059  17.620  10.990  18.230
  795BOLB   GL219060  17.580  11.010  18.470
  795BOLB   C1A19061  18.010  10.670  18.280
  795BOLB   C2A19062  18.210  10.490  18.480
  795BOLB   C3A19063  18.340  10.030  18.480
  795BOLB   C4A19064  18.460   9.670  18.680
  795BOLB   C1B19065  17.640  10.600  18.680
  795BOLB   C2B19066  17.620  10.310  19.050
  795BOLB   C3B19067  17.480  10.020  19.360
  795BOLB   C4B19068  17.060   9.810  19.390
  795BOLB   NC219069  19.130   8.310  20.260
  795BOLB   PO219070  19.390   8.610  20.280
  795BOLB   GL319071  19.210   8.770  19.910
  795BOLB   GL419072  19.170   9.210  19.910
  795BOLB   C1C19073  19.040   8.790  19.630
  795BOLB   C2C19074  19.030   8.580  19.210
  795BOLB   C3C19075  18.820   8.830  18.860
  795BOLB   C4C19076  18.690   9.240  18.630
  795BOLB   C1D19077  18.990   9.600  20.000
  795BOLB   C2D19078  18.960  10.040  19.920
  795BOLB   C3D19079  18.760  10.320  19.800
  795BOLB   C4D19080  18.350  10.420  19.690
  796BOLB   NC119081  11.800   4.610  19.980
  796BOLB   PO119082  12.150   4.280  19.730
  796BOLB   GL119083  12.230   4.690  19.580
  796BOLB   GL219084  12.480   4.610  19.340
  796BOLB   C1A19085  12.070   5.060  19.600
  796BOLB   C2A19086  12.040   5.600  19.450
  796BOLB   C3A19087  12.320   5.960  19.510
  796BOLB   C4A19088  12.420   6.260  19.700
  796BOLB   C1B19089  12.850   4.900  19.410
  796BOLB   C2B19090  13.070   5.310  19.430
  796BOLB   C3B19091  13.380   5.600  19.390
  796BOLB   C4B19092  13.710   5.860  19.480
  796BOLB   NC219093  14.060   5.060  20.370
  796BOLB   PO219094  14.450   5.210  20.630
  796BOLB   GL319095  14.110   5.550  20.490
  796BOLB   GL419096  14.300   5.910  20.380
  796BOLB   C1C19097  13.900   5.760  20.080
  796BOLB   C2C19098  13.550   6.030  19.880
  796BOLB   C3C19099  13.260   6.000  19.810
  796BOLB   C4C19100  12.830   6.170  19.860
  796BOLB   C1D19101  14.290   6.260  20.140
  796BOLB   C2D19102  14.020   6.290  19.880
  796BOLB   C3D19103  13.770   6.520  19.530
  796BOLB   C4D19104  13.550   6.890  19.370
  797BOLB   NC119105  15.390  12.380   0.710
  797BOLB   PO119106  15.090  12.140   0.900
  797BOLB   GL119107  15.080  12.040   1.240
  797BOLB   GL219108  15.360  11.990   1.440
  797BOLB   C1A19109  14.830  11.780   1.580
  797BOLB   C2A19110  14.830  11.600   1.910
  797BOLB   C3A19111  15.110  11.590   2.150
  797BOLB   C4A19112  15.420  11.550   2.560
  797BOLB   C1B19113  15.450  11.860   1.830
  797BOLB   C2B19114  15.460  12.000   2.220
  797BOLB   C3B19115  15.390  12.210   2.680
  797BOLB   C4B19116  15.140  12.410   2.990
  797BOLB   NC219117  16.310   9.040   1.940
  797BOLB   PO219118  16.580   9.420   1.760
  797BOLB   GL319119  16.330   9.670   2.180
  797BOLB   GL419120  16.330   9.360   2.370
  797BOLB   C1C19121  16.310  10.080   2.480
  797BOLB   C2C19122  16.050  10.480   2.520
  797BOLB   C3C19123  15.770  10.750   2.690
  797BOLB   C4C19124  15.480  11.090   2.760
  797BOLB   C1D19125  16.120   9.470   2.660
  797BOLB   C2D19126  15.760   9.470   2.980
  797BOLB   C3D19127  15.270   9.500   3.120
  797BOLB   C4D19128  14.990   9.630   3.430
  798BOLB   NC119129  21.180  20.140  17.330
  798BOLB   PO119130  21.490  20.320  17.520
  798BOLB   GL119131  21.740  20.530  17.810
  798BOLB   GL219132  21.560  20.710  17.930
  798BOLB   C1A19133  22.020  20.340  18.120
  798BOLB   C2A19134  22.300  20.490  18.440
  798BOLB   C3A19135  22.500  20.120  18.790
  798BOLB   C4A19136  22.930  20.120  18.830
  798BOLB   C1B19137  21.900  20.870  18.230
  798BOLB   C2B19138  22.100  21.160  18.440
  798BOLB   C3B19139  22.430  21.450  18.410
  798BOLB   C4B19140  22.800  21.680  18.610
  798BOLB   NC219141  23.860  19.380  20.440
  798BOLB   PO219142  23.640  19.570  20.840
  798BOLB   GL319143  23.380  19.670  20.400
  798BOLB   GL419144  23.370  19.990  20.550
  798BOLB   C1C19145  23.290  19.390  20.130
  798BOLB   C2C19146  23.240  19.360  19.750
  798BOLB   C3C19147  23.220  19.740  19.460
  798BOLB   C4C19148  23.200  20.050  19.200
  798BOLB   C1D19149  23.120  19.980  20.170
  798BOLB   C2D19150  22.980  19.780  19.880
  798BOLB   C3D19151  22.690  19.450  19.740
  798BOLB   C4D19152  22.780  19.400  19.330
  799BOLB   NC119153  15.850  25.150  11.670
  799BOLB   PO119154  16.320  24.950  11.470
  799BOLB   GL119155  16.270  25.220  11.200
  799BOLB   GL219156  16.120  25.540  11.280
  799BOLB   C1A19157  16.340  25.590  10.820
  799BOLB   C2A19158  16.230  26.010  10.630
  799BOLB   C3A19159  16.250  26.380  10.510
  799BOLB   C4A19160  16.610  26.630  10.430
  799BOLB   C1B19161  16.040  25.870  11.060
  799BOLB   C2B19162  15.800  26.150  10.800
  799BOLB   C3B19163  15.740  26.410  10.470
  799BOLB   C4B19164  15.700  26.690  10.200
  799BOLB   NC219165  17.160  29.440   9.390
  799BOLB   PO219166  16.820  29.050   9.270
  799BOLB   GL319167  16.870  28.650   9.500
  799BOLB   GL419168  16.580  28.550   9.600
  799BOLB   C1C19169  16.990  28.250   9.770
  799BOLB   C2C19170  16.900  27.770   9.870
  799BOLB   C3C19171  16.890  27.480  10.180
  799BOLB   C4C19172  16.740  27.090  10.500
  799BOLB   C1D19173  16.520  28.230   9.920
  799BOLB   C2D19174  16.350  27.830  10.140
  799BOLB   C3D19175  16.480  27.570  10.450
  799BOLB   C4D19176  16.360  27.350  10.770
  800BOLB   NC119177  18.140  24.310  16.740
  800BOLB   PO119178  17.830  24.470  16.470
  800BOLB   GL119179  18.210  24.800  16.680
  800BOLB   GL219180  18.580  24.940  16.540
  800BOLB   C1A19181  18.220  25.200  16.780
  800BOLB   C2A19182  18.290  25.670  17.030
  800BOLB   C3A19183  18.420  26.150  17.210
  800BOLB   C4A19184  18.570  26.500  17.500
  800BOLB   C1B19185  18.700  25.180  16.880
  800BOLB   C2B19186  18.790  25.400  17.190
  800BOLB   C3B19187  18.730  25.720  17.400
  800BOLB   C4B19188  18.700  26.040  17.640
  800BOLB   NC219189  20.560  28.030  17.930
  800BOLB   PO219190  20.700  27.760  17.640
  800BOLB   GL319191  20.340  27.370  17.520
  800BOLB   GL419192  20.140  27.510  17.420
  800BOLB   C1C19193  19.820  27.220  17.390
  800BOLB   C2C19194  19.470  27.170  17.260
  800BOLB   C3C19195  19.010  27.290  17.420
  800BOLB   C4C19196  18.630  27.000  17.470
  800BOLB   C1D19197  20.110  27.420  16.960
  800BOLB   C2D19198  20.110  27.530  16.550
  800BOLB   C3D19199  20.020  27.510  16.150
  800BOLB   C4D19200  19.910  27.490  15.860
  801BOLB   NC119201  17.810  24.320   9.840
  801BOLB   PO119202  17.810  24.470  10.410
  801BOLB   GL119203  17.960  24.810  10.090
  801BOLB   GL219204  18.280  24.890   9.970
  801BOLB   C1A19205  17.850  25.150   9.830
  801BOLB   C2A19206  17.890  25.570   9.730
  801BOLB   C3A19207  18.030  25.910   9.580
  801BOLB   C4A19208  18.230  26.240   9.340
  801BOLB   C1B19209  18.360  25.330   9.760
  801BOLB   C2B19210  18.360  25.590   9.490
  801BOLB   C3B19211  18.400  25.700   9.140
  801BOLB   C4B19212  18.210  25.880   8.880
  801BOLB   NC219213  19.050  28.980   8.820
  801BOLB   PO219214  19.120  28.530   8.740
  801BOLB   GL319215  18.840  28.180   8.740
  801BOLB   GL419216  18.460  28.290   8.770
  801BOLB   C1C19217  18.650  27.760   8.820
  801BOLB   C2C19218  18.380  27.510   9.010
  801BOLB   C3C19219  18.120  27.210   9.190
  801BOLB   C4C19220  18.200  26.750   9.360
  801BOLB   C1D19221  18.630  28.070   9.180
  801BOLB   C2D19222  18.950  27.750   9.350
  801BOLB   C3D19223  19.010  27.290   9.400
  801BOLB   C4D19224  19.000  26.910   9.200
  802BOLB   NC119225  13.120   4.750   9.430
  802BOLB   PO119226  13.020   4.840   9.830
  802BOLB   GL119227  13.200   5.260   9.810
  802BOLB   GL219228  12.990   5.400  10.050
  802BOLB   C1A19229  13.520   5.410   9.930
  802BOLB   C2A19230  13.910   5.530  10.120
  802BOLB   C3A19231  14.110   5.840  10.290
  802BOLB   C4A19232  14.080   6.190  10.150
  802BOLB   C1B19233  13.000   5.700  10.380
  802BOLB   C2B19234  13.030   6.180  10.430
  802BOLB   C3B19235  13.280   6.530  10.260
  802BOLB   C4B19236  13.600   6.530   9.920
  802BOLB   NC219237  13.280   5.530   8.710
  802BOLB   PO219238  13.510   5.340   8.940
  802BOLB   GL319239  13.630   5.670   9.090
  802BOLB   GL419240  13.570   5.660   9.410
  802BOLB   C1C19241  13.660   6.060   9.000
  802BOLB   C2C19242  13.570   6.430   9.260
  802BOLB   C3C19243  13.820   6.750   9.490
  802BOLB   C4C19244  14.080   6.620   9.960
  802BOLB   C1D19245  13.250   6.000   9.340
  802BOLB   C2D19246  13.040   6.430   9.280
  802BOLB   C3D19247  12.700   6.650   9.080
  802BOLB   C4D19248  12.380   6.620   8.800
  803BOLB   NC119249  20.190  24.310  14.270
  803BOLB   PO119250  20.720  24.240  14.220
  803BOLB   GL119251  21.010  24.490  14.390
  803BOLB   GL219252  21.250  24.640  14.250
  803BOLB   C1A19253  21.240  24.730  14.760
  803BOLB   C2A19254  21.530  25.150  14.780
  803BOLB   C3A19255  21.730  25.600  14.830
  803BOLB   C4A19256  21.550  25.890  14.600
  803BOLB   C1B19257  21.670  24.690  14.260
  803BOLB   C2B19258  22.060  24.820  14.290
  803BOLB   C3B19259  22.300  25.090  14.200
  803BOLB   C4B19260  22.600  25.260  13.940
  803BOLB   NC219261  21.030  29.030  14.850
  803BOLB   PO219262  20.980  28.530  14.980
  803BOLB   GL319263  21.150  28.150  14.810
  803BOLB   GL419264  21.360  27.960  15.130
  803BOLB   C1C19265  21.080  27.640  14.780
  803BOLB   C2C19266  21.250  27.220  14.660
  803BOLB   C3C19267  21.300  26.820  14.640
  803BOLB   C4C19268  21.480  26.380  14.670
  803BOLB   C1D19269  21.300  27.600  15.300
  803BOLB   C2D19270  20.990  27.270  15.300
  803BOLB   C3D19271  20.550  27.230  15.220
  803BOLB   C4D19272  20.270  27.330  14.950
  804BOLB   NC119273  11.690  10.710   9.210
  804BOLB   PO119274  11.250  10.710   9.090
  804BOLB   GL119275  11.150  10.220   8.880
  804BOLB   GL219276  11.300  10.020   8.870
  804BOLB   C1A19277  10.830   9.970   8.720
  804BOLB   C2A19278  10.660   9.570   8.570
  804BOLB   C3A19279  10.720   9.380   8.250
  804BOLB   C4A19280  10.830   9.160   7.930
  804BOLB   C1B19281  11.180   9.600   8.610
  804BOLB   C2B19282  11.320   9.400   8.170
  804BOLB   C3B19283  11.450   9.100   8.100
  804BOLB   C4B19284  11.710   8.750   8.050
  804BOLB   NC219285  11.050   6.960   7.500
  804BOLB   PO219286  11.340   7.160   7.200
  804BOLB   GL319287  11.390   7.630   7.130
  804BOLB   GL419288  11.530   7.670   7.370
  804BOLB   C1C19289  11.350   8.020   7.080
  804BOLB   C2C19290  11.210   8.420   7.190
  804BOLB   C3C19291  10.950   8.450   7.550
  804BOLB   C4C19292  10.800   8.780   7.830
  804BOLB   C1D19293  11.840   8.070   7.290
  804BOLB   C2D19294  12.050   8.490   7.530
  804BOLB   C3D19295  12.390   8.540   7.660
  804BOLB   C4D19296  12.720   8.460   8.040
  805BOLB   NC119297   1.260  19.440  16.980
  805BOLB   PO119298   1.630  19.510  17.050
  805BOLB   GL119299   1.950  19.140  17.040
  805BOLB   GL219300   2.090  19.090  17.310
  805BOLB   C1A19301   2.250  19.040  16.680
  805BOLB   C2A19302   2.360  19.200  16.290
  805BOLB   C3A19303   2.730  19.150  15.980
  805BOLB   C4A19304   2.680  19.230  15.630
  805BOLB   C1B19305   2.520  18.830  17.260
  805BOLB   C2B19306   2.690  18.460  17.380
  805BOLB   C3B19307   2.990  18.200  17.410
  805BOLB   C4B19308   3.150  18.170  17.070
  805BOLB   NC219309   1.010  19.860  14.640
  805BOLB   PO219310   1.220  19.550  14.200
  805BOLB   GL319311   1.630  19.420  14.190
  805BOLB   GL419312   1.670  19.290  14.580
  805BOLB   C1C19313   1.910  19.070  14.200
  805BOLB   C2C19314   2.130  19.030  14.560
  805BOLB   C3C19315   2.350  18.980  15.000
  805BOLB   C4C19316   2.600  19.200  15.240
  805BOLB   C1D19317   1.710  18.820  14.560
  805BOLB   C2D19318   2.050  18.600  14.790
  805BOLB   C3D19319   2.360  18.290  14.750
  805BOLB   C4D19320   2.690  18.150  14.570
  806BOLB   NC119321  26.870  11.990  13.980
  806BOLB   PO119322  27.020  12.120  13.530
  806BOLB   GL119323  26.680  12.370  13.700
  806BOLB   GL219324  26.740  12.710  13.620
  806BOLB   C1A19325  26.300  12.590  13.870
  806BOLB   C2A19326  26.090  12.970  13.850
  806BOLB   C3A19327  25.840  13.280  13.700
  806BOLB   C4A19328  25.790  13.770  13.640
  806BOLB   C1B19329  26.410  13.000  13.450
  806BOLB   C2B19330  26.020  12.940  13.340
  806BOLB   C3B19331  25.640  13.010  13.090
  806BOLB   C4B19332  25.430  12.860  12.930
  806BOLB   NC219333  27.850  14.580  12.370
  806BOLB   PO219334  27.710  14.320  12.040
  806BOLB   GL319335  27.350  14.460  12.230
  806BOLB   GL419336  27.310  14.690  12.450
  806BOLB   C1C19337  26.940  14.420  12.320
  806BOLB   C2C19338  26.570  14.440  12.620
  806BOLB   C3C19339  26.340  14.330  13.120
  806BOLB   C4C19340  25.950  14.030  13.290
  806BOLB   C1D19341  27.080  14.770  12.850
  806BOLB   C2D19342  26.770  14.700  13.130
  806BOLB   C3D19343  26.570  14.840  13.380
  806BOLB   C4D19344  26.210  15.090  13.500
  807BOLB   NC119345  10.740   5.780  12.650
  807BOLB   PO119346  10.450   5.770  12.920
  807BOLB   GL119347  10.380   6.090  13.250
  807BOLB   GL219348  10.170   6.310  13.210
  807BOLB   C1A19349  10.640   6.340  13.500
  807BOLB   C2A19350  10.970   6.610  13.430
  807BOLB   C3A19351  11.070   6.990  13.540
  807BOLB   C4A19352  11.310   7.310  13.780
  807BOLB   C1B19353  10.560   6.570  13.060
  807BOLB   C2B19354  10.790   6.690  12.730
  807BOLB   C3B19355  11.250   6.820  12.570
  807BOLB   C4B19356  11.580   7.190  12.760
  807BOLB   NC219357  11.150   5.380  15.060
  807BOLB   PO219358  11.460   5.330  14.700
  807BOLB   GL319359  11.320   5.810  14.800
  807BOLB   GL419360  10.990   5.880  14.950
  807BOLB   C1C19361  11.250   6.200  14.670
  807BOLB   C2C19362  11.280   6.630  14.440
  807BOLB   C3C19363  11.350   7.040  14.400
  807BOLB   C4C19364  11.270   7.500  14.140
  807BOLB   C1D19365  11.120   6.240  15.150
  807BOLB   C2D19366  10.980   6.260  15.530
  807BOLB   C3D19367  10.850   6.130  15.960
  807BOLB   C4D19368  10.920   6.070  16.330
  808BOLB   NC119369  19.630  24.760  15.530
  808BOLB   PO119370  19.930  24.520  15.660
  808BOLB   GL119371  20.270  24.800  15.760
  808BOLB   GL219372  20.500  24.690  15.900
  808BOLB   C1A19373  20.280  25.200  15.790
  808BOLB   C2A19374  20.400  25.550  16.050
  808BOLB   C3A19375  20.450  25.880  16.370
  808BOLB   C4A19376  20.730  26.160  16.590
  808BOLB   C1B19377  20.600  25.090  16.110
  808BOLB   C2B19378  20.910  25.540  15.900
  808BOLB   C3B19379  20.840  26.000  15.940
  808BOLB   C4B19380  21.020  26.490  15.940
  808BOLB   NC219381  22.430  27.670  16.670
  808BOLB   PO219382  22.120  27.660  17.060
  808BOLB   GL319383  21.970  27.260  16.900
  808BOLB   GL419384  21.590  27.230  16.840
  808BOLB   C1C19385  21.960  26.930  16.970
  808BOLB   C2C19386  21.800  26.500  16.960
  808BOLB   C3C19387  21.410  26.160  17.000
  808BOLB   C4C19388  21.050  26.170  16.800
  808BOLB   C1D19389  21.470  26.900  16.700
  808BOLB   C2D19390  21.460  26.460  16.580
  808BOLB   C3D19391  21.690  26.150  16.550
  808BOLB   C4D19392  21.960  25.840  16.790
  809BOLB   NC119393  17.580  23.790   9.320
  809BOLB   PO119394  17.350  23.700   8.920
  809BOLB   GL119395  17.720  24.000   8.670
  809BOLB   GL219396  17.690  23.940   8.320
  809BOLB   C1A19397  17.950  24.370   8.450
  809BOLB   C2A19398  18.270  24.450   8.200
  809BOLB   C3A19399  18.440  24.760   7.980
  809BOLB   C4A19400  18.530  25.230   7.950
  809BOLB   C1B19401  17.870  24.200   7.920
  809BOLB   C2B19402  18.170  24.450   7.650
  809BOLB   C3B19403  18.210  24.950   7.580
  809BOLB   C4B19404  18.370  25.280   7.460
  809BOLB   NC219405  19.210  27.750   7.330
  809BOLB   PO219406  18.820  27.650   7.260
  809BOLB   GL319407  18.840  27.280   7.600
  809BOLB   GL419408  19.080  27.150   7.900
  809BOLB   C1C19409  18.630  26.940   7.720
  809BOLB   C2C19410  18.550  26.500   7.990
  809BOLB   C3C19411  18.490  26.090   7.750
  809BOLB   C4C19412  18.360  25.670   7.820
  809BOLB   C1D19413  18.990  26.930   8.140
  809BOLB   C2D19414  18.940  26.470   8.290
  809BOLB   C3D19415  18.510  26.210   8.390
  809BOLB   C4D19416  18.640  25.940   8.700
  810BOLB   NC119417  23.510  25.090   5.870
  810BOLB   PO119418  23.280  25.310   6.210
  810BOLB   GL119419  22.900  25.250   6.400
  810BOLB   GL219420  22.730  25.430   6.210
  810BOLB   C1A19421  22.790  25.180   6.730
  810BOLB   C2A19422  22.670  24.900   7.120
  810BOLB   C3A19423  22.270  24.620   7.280
  810BOLB   C4A19424  22.150  24.320   6.900
  810BOLB   C1B19425  22.390  25.110   6.270
  810BOLB   C2B19426  21.930  25.010   6.410
  810BOLB   C3B19427  21.420  24.980   6.510
  810BOLB   C4B19428  20.970  24.940   6.750
  810BOLB   NC219429  23.080  24.870   5.420
  810BOLB   PO219430  22.740  24.850   5.070
  810BOLB   GL319431  22.520  24.710   5.480
  810BOLB   GL419432  22.220  24.590   5.470
  810BOLB   C1C19433  22.540  24.320   5.710
  810BOLB   C2C19434  22.440  23.990   5.890
  810BOLB   C3C19435  22.150  24.070   6.170
  810BOLB   C4C19436  21.970  24.130   6.510
  810BOLB   C1D19437  22.000  24.320   5.740
  810BOLB   C2D19438  21.680  24.050   6.040
  810BOLB   C3D19439  21.670  23.750   6.300
  810BOLB   C4D19440  21.680  23.840   6.780
  811BOLB   NC119441  18.710  13.550  19.010
  811BOLB   PO119442  18.290  13.450  19.040
  811BOLB   GL119443  18.450  13.200  19.330
  811BOLB   GL219444  18.770  13.200  19.390
  811BOLB   C1A19445  18.360  12.980  19.630
  811BOLB   C2A19446  18.570  12.850  19.940
  811BOLB   C3A19447  18.630  12.400  20.100
  811BOLB   C4A19448  18.490  12.070  20.350
  811BOLB   C1B19449  19.000  12.980  19.710
  811BOLB   C2B19450  18.990  12.750  20.160
  811BOLB   C3B19451  19.010  12.520  20.470
  811BOLB   C4B19452  18.860  12.340  20.850
  811BOLB   NC219453  19.390  11.380  23.400
  811BOLB   PO219454  19.560  11.440  22.840
  811BOLB   GL319455  19.280  11.610  22.460
  811BOLB   GL419456  19.150  11.210  22.270
  811BOLB   C1C19457  19.110  11.790  22.020
  811BOLB   C2C19458  18.890  11.910  21.620
  811BOLB   C3C19459  18.700  12.070  21.240
  811BOLB   C4C19460  18.540  11.950  20.840
  811BOLB   C1D19461  18.890  11.310  22.090
  811BOLB   C2D19462  18.620  11.420  21.890
  811BOLB   C3D19463  18.330  11.470  21.510
  811BOLB   C4D19464  18.110  11.460  21.090
  812BOLB   NC119465  15.600   9.940  15.930
  812BOLB   PO119466  15.420  10.050  15.520
  812BOLB   GL119467  15.340   9.570  15.600
  812BOLB   GL219468  15.040   9.530  15.510
  812BOLB   C1A19469  15.420   9.240  15.820
  812BOLB   C2A19470  15.410   8.770  16.070
  812BOLB   C3A19471  15.340   8.350  16.070
  812BOLB   C4A19472  15.230   7.830  16.190
  812BOLB   C1B19473  14.870   9.160  15.540
  812BOLB   C2B19474  14.870   8.660  15.730
  812BOLB   C3B19475  14.840   8.350  15.870
  812BOLB   C4B19476  14.710   7.950  15.990
  812BOLB   NC219477  15.810   5.230  15.970
  812BOLB   PO219478  15.650   5.450  16.240
  812BOLB   GL319479  15.840   5.800  16.350
  812BOLB   GL419480  16.040   5.850  16.160
  812BOLB   C1C19481  15.780   6.250  16.410
  812BOLB   C2C19482  15.380   6.430  16.390
  812BOLB   C3C19483  15.240   6.900  16.220
  812BOLB   C4C19484  15.220   7.420  16.160
  812BOLB   C1D19485  16.190   6.350  16.170
  812BOLB   C2D19486  16.310   6.790  16.110
  812BOLB   C3D19487  16.560   6.980  15.850
  812BOLB   C4D19488  16.900   6.950  15.730
  813BOLB   NC119489  25.440  17.070   4.080
  813BOLB   PO119490  25.210  17.590   4.170
  813BOLB   GL119491  24.890  17.840   4.440
  813BOLB   GL219492  24.940  17.990   4.640
  813BOLB   C1A19493  24.560  17.730   4.800
  813BOLB   C2A19494  24.610  17.710   5.260
  813BOLB   C3A19495  24.720  17.450   5.650
  813BOLB   C4A19496  24.710  17.100   5.840
  813BOLB   C1B19497  25.080  17.710   4.880
  813BOLB   C2B19498  25.130  17.700   5.310
  813BOLB   C3B19499  25.130  17.740   5.740
  813BOLB   C4B19500  25.230  17.970   6.050
  813BOLB   NC219501  26.680  17.520   5.450
  813BOLB   PO219502  26.570  17.000   5.560
  813BOLB   GL319503  26.220  17.210   5.850
  813BOLB   GL419504  26.220  17.490   5.780
  813BOLB   C1C19505  25.890  16.910   6.030
  813BOLB   C2C19506  25.600  16.910   6.330
  813BOLB   C3C19507  25.200  17.080   6.510
  813BOLB   C4C19508  24.830  17.050   6.260
  813BOLB   C1D19509  26.100  17.650   6.100
  813BOLB   C2D19510  26.010  17.760   6.590
  813BOLB   C3D19511  25.810  17.630   7.030
  813BOLB   C4D19512  25.890  17.360   7.310
  814BOLB   NC119513  12.530  22.970   9.880
  814BOLB   PO119514  12.270  23.150   9.620
  814BOLB   GL119515  11.900  23.280   9.400
  814BOLB   GL219516  11.840  23.040   9.180
  814BOLB   C1A19517  11.680  23.480   9.000
  814BOLB   C2A19518  11.660  23.780   8.660
  814BOLB   C3A19519  11.650  24.050   8.480
  814BOLB   C4A19520  11.830  24.530   8.400
  814BOLB   C1B19521  11.420  23.130   9.330
  814BOLB   C2B19522  11.210  23.400   9.190
  814BOLB   C3B19523  10.970  23.560   8.920
  814BOLB   C4B19524  11.020  23.980   8.960
  814BOLB   NC219525  11.680  26.120   6.990
  814BOLB   PO219526  11.520  25.900   6.630
  814BOLB   GL319527  11.690  25.640   6.880
  814BOLB   GL419528  11.470  25.640   7.100
  814BOLB   C1C19529  11.890  25.320   7.130
  814BOLB   C2C19530  12.020  24.960   7.490
  814BOLB   C3C19531  12.250  24.930   7.860
  814BOLB   C4C19532  12.170  24.750   8.240
  814BOLB   C1D19533  11.440  25.210   6.990
  814BOLB   C2D19534  11.370  24.940   7.230
  814BOLB   C3D19535  11.510  24.770   7.620
  814BOLB   C4D19536  11.810  24.620   7.920
  815BOLB   NC119537  16.360   9.890   9.280
  815BOLB   PO119538  16.480   9.370   9.320
  815BOLB   GL119539  16.510   8.940   9.050
  815BOLB   GL219540  16.790   8.740   9.060
  815BOLB   C1A19541  16.460   8.510   8.800
  815BOLB   C2A19542  16.590   8.160   8.840
  815BOLB   C3A19543  16.630   7.760   8.650
  815BOLB   C4A19544  16.370   7.460   8.530
  815BOLB   C1B19545  16.850   8.330   9.210
  815BOLB   C2B19546  17.070   7.990   9.360
  815BOLB   C3B19547  17.230   7.580   9.350
  815BOLB   C4B19548  17.650   7.340   9.410
  815BOLB   NC219549  16.620   5.070   8.560
  815BOLB   PO219550  16.220   5.130   8.330
  815BOLB   GL319551  15.980   5.540   8.500
  815BOLB   GL419552  15.880   5.370   8.760
  815BOLB   C1C19553  15.980   6.060   8.340
  815BOLB   C2C19554  15.830   6.480   8.320
  815BOLB   C3C19555  15.960   6.750   8.580
  815BOLB   C4C19556  16.060   7.190   8.770
  815BOLB   C1D19557  15.620   5.600   8.950
  815BOLB   C2D19558  15.610   6.000   9.160
  815BOLB   C3D19559  15.870   6.380   9.180
  815BOLB   C4D19560  16.110   6.740   9.100
  816BOLB   NC119561  23.270  14.110   9.290
  816BOLB   PO119562  23.410  14.150   9.670
  816BOLB   GL119563  23.670  13.750   9.500
  816BOLB   GL219564  23.570  13.720   9.230
  816BOLB   C1A19565  24.070  13.640   9.680
  816BOLB   C2A19566  24.370  13.440   9.540
  816BOLB   C3A19567  24.650  13.250   9.460
  816BOLB   C4A19568  24.950  13.120   9.240
  816BOLB   C1B19569  24.030  13.700   9.180
  816BOLB   C2B19570  24.510  13.610   9.090
  816BOLB   C3B19571  24.840  13.350   8.790
  816BOLB   C4B19572  24.900  13.430   8.360
  816BOLB   NC219573  27.930  12.980   9.300
  816BOLB   PO219574  27.510  12.980   9.220
  816BOLB   GL319575  27.050  13.090   9.150
  816BOLB   GL419576  26.850  12.990   8.790
  816BOLB   C1C19577  26.620  12.970   9.340
  816BOLB   C2C19578  26.210  12.800   9.510
  816BOLB   C3C19579  25.690  12.830   9.570
  816BOLB   C4C19580  25.340  12.970   9.380
  816BOLB   C1D19581  26.520  13.280   8.990
  816BOLB   C2D19582  26.070  13.570   8.990
  816BOLB   C3D19583  25.640  13.710   8.960
  816BOLB   C4D19584  25.240  13.630   8.990
  817BOLB   NC119585  22.660  14.780   8.190
  817BOLB   PO119586  22.900  15.060   8.280
  817BOLB   GL119587  23.270  15.060   8.240
  817BOLB   GL219588  23.380  15.280   7.980
  817BOLB   C1A19589  23.550  14.680   8.180
  817BOLB   C2A19590  23.910  14.570   8.010
  817BOLB   C3A19591  24.120  14.390   7.630
  817BOLB   C4A19592  24.440  14.570   7.280
  817BOLB   C1B19593  23.770  15.110   8.020
  817BOLB   C2B19594  24.080  15.110   7.800
  817BOLB   C3B19595  24.320  15.060   7.530
  817BOLB   C4B19596  24.610  15.430   7.300
  817BOLB   NC219597  26.460  14.090   6.040
  817BOLB   PO219598  26.430  13.930   6.540
  817BOLB   GL319599  26.160  14.150   6.480
  817BOLB   GL419600  25.960  14.150   6.210
  817BOLB   C1C19601  25.990  14.500   6.550
  817BOLB   C2C19602  25.620  14.710   6.720
  817BOLB   C3C19603  25.280  14.730   6.670
  817BOLB   C4C19604  24.820  14.600   6.890
  817BOLB   C1D19605  25.540  13.930   6.160
  817BOLB   C2D19606  25.110  13.950   6.110
  817BOLB   C3D19607  24.830  13.720   6.340
  817BOLB   C4D19608  24.520  13.800   6.630
  818BOLB   NC119609  14.700  25.180  15.980
  818BOLB   PO119610  15.120  25.030  16.000
  818BOLB   GL119611  15.170  25.290  16.320
  818BOLB   GL219612  15.080  25.280  16.570
  818BOLB   C1A19613  15.060  25.740  16.260
  818BOLB   C2A19614  14.890  26.160  16.120
  818BOLB   C3A19615  14.770  26.450  16.330
  818BOLB   C4A19616  14.530  26.750  16.700
  818BOLB   C1B19617  15.180  25.610  16.930
  818BOLB   C2B19618  15.240  25.940  17.180
  818BOLB   C3B19619  15.370  26.380  17.360
  818BOLB   C4B19620  15.270  26.720  17.610
  818BOLB   NC219621  14.890  28.980  17.420
  818BOLB   PO219622  14.470  28.950  17.330
  818BOLB   GL319623  14.430  28.430  17.300
  818BOLB   GL419624  14.670  28.290  17.300
  818BOLB   C1C19625  14.290  28.040  17.280
  818BOLB   C2C19626  14.180  27.620  17.340
  818BOLB   C3C19627  14.130  27.360  17.060
  818BOLB   C4C19628  14.290  27.090  16.850
  818BOLB   C1D19629  14.700  27.770  17.300
  818BOLB   C2D19630  14.840  27.360  17.120
  818BOLB   C3D19631  14.760  26.970  17.080
  818BOLB   C4D19632  14.820  26.470  16.940
  819BOLB   NC119633  17.220  15.550  26.550
  819BOLB   PO119634  16.880  15.580  26.720
  819BOLB   GL119635  16.700  15.410  26.300
  819BOLB   GL219636  16.510  15.120  26.280
  819BOLB   C1A19637  16.360  15.550  26.080
  819BOLB   C2A19638  16.020  15.880  25.980
  819BOLB   C3A19639  15.520  15.790  25.930
  819BOLB   C4A19640  15.120  15.620  26.180
  819BOLB   C1B19641  16.680  15.090  25.950
  819BOLB   C2B19642  16.580  15.190  25.540
  819BOLB   C3B19643  16.210  15.280  25.300
  819BOLB   C4B19644  15.930  15.390  25.050
  819BOLB   NC219645  16.120  14.240  28.030
  819BOLB   PO219646  16.330  13.960  27.700
  819BOLB   GL319647  16.010  14.180  27.480
  819BOLB   GL419648  15.800  13.910  27.200
  819BOLB   C1C19649  15.860  14.460  27.270
  819BOLB   C2C19650  15.770  14.790  26.910
  819BOLB   C3C19651  15.390  14.980  26.870
  819BOLB   C4C19652  15.090  15.370  26.570
  819BOLB   C1D19653  15.370  13.830  26.850
  819BOLB   C2D19654  15.270  13.880  26.360
  819BOLB   C3D19655  15.200  14.080  25.940
  819BOLB   C4D19656  15.540  14.240  25.730
  820BOLB   NC119657  15.950  24.520  15.780
  820BOLB   PO119658  16.190  24.740  16.140
  820BOLB   GL119659  15.930  25.120  16.350
  820BOLB   GL219660  15.670  25.120  16.610
  820BOLB   C1A19661  16.000  25.590  16.480
  820BOLB   C2A19662  16.180  26.010  16.520
  820BOLB   C3A19663  16.300  26.280  16.730
  820BOLB   C4A19664  16.560  26.560  16.970
  820BOLB   C1B19665  15.570  25.570  16.620
  820BOLB   C2B19666  15.620  25.970  16.780
  820BOLB   C3B19667  15.400  26.370  16.840
  820BOLB   C4B19668  15.200  26.760  17.090
  820BOLB   NC219669  16.590  28.790  17.640
  820BOLB   PO219670  16.240  28.910  17.810
  820BOLB   GL319671  16.110  28.500  17.700
  820BOLB   GL419672  15.750  28.280  17.790
  820BOLB   C1C19673  16.000  28.260  17.290
  820BOLB   C2C19674  16.080  27.800  17.170
  820BOLB   C3C19675  16.450  27.450  17.020
  820BOLB   C4C19676  16.620  27.090  17.010
  820BOLB   C1D19677  16.080  27.980  17.670
  820BOLB   C2D19678  16.460  27.620  17.500
  820BOLB   C3D19679  16.570  27.250  17.540
  820BOLB   C4D19680  16.720  26.800  17.430
  821BOLB   NC119681  23.240  21.960  11.090
  821BOLB   PO119682  22.980  21.990  11.600
  821BOLB   GL119683  23.450  22.090  11.540
  821BOLB   GL219684  23.650  21.900  11.750
  821BOLB   C1A19685  23.740  22.420  11.630
  821BOLB   C2A19686  24.080  22.650  11.730
  821BOLB   C3A19687  24.390  22.490  11.900
  821BOLB   C4A19688  24.790  22.460  11.890
  821BOLB   C1B19689  24.050  22.100  11.760
  821BOLB   C2B19690  24.380  22.060  11.580
  821BOLB   C3B19691  24.680  22.350  11.360
  821BOLB   C4B19692  24.910  22.650  11.090
  821BOLB   NC219693  26.940  22.660  11.940
  821BOLB   PO219694  27.150  22.890  12.240
  821BOLB   GL319695  26.750  23.150  12.270
  821BOLB   GL419696  26.570  23.370  12.520
  821BOLB   C1C19697  26.400  23.190  11.980
  821BOLB   C2C19698  25.920  23.080  11.940
  821BOLB   C3C19699  25.570  22.780  11.890
  821BOLB   C4C19700  25.190  22.620  12.060
  821BOLB   C1D19701  26.230  23.060  12.510
  821BOLB   C2D19702  26.170  22.640  12.220
  821BOLB   C3D19703  25.870  22.360  11.950
  821BOLB   C4D19704  25.550  22.180  12.020
  822BOLB   NC119705  10.630  21.880  15.910
  822BOLB   PO119706  10.520  22.280  15.720
  822BOLB   GL119707  10.220  22.350  16.010
  822BOLB   GL219708  10.200  22.040  16.030
  822BOLB   C1A19709   9.930  22.710  16.040
  822BOLB   C2A19710   9.710  23.050  15.950
  822BOLB   C3A19711   9.250  23.120  16.010
  822BOLB   C4A19712   8.950  23.370  16.140
  822BOLB   C1B19713   9.780  22.140  15.840
  822BOLB   C2B19714   9.370  22.360  15.640
  822BOLB   C3B19715   8.960  22.440  15.460
  822BOLB   C4B19716   8.730  22.410  15.000
  822BOLB   NC219717   7.050  25.410  15.870
  822BOLB   PO219718   7.490  25.450  15.660
  822BOLB   GL319719   7.810  25.060  15.500
  822BOLB   GL419720   8.020  25.020  15.220
  822BOLB   C1C19721   7.870  24.680  15.700
  822BOLB   C2C19722   8.130  24.370  15.810
  822BOLB   C3C19723   8.380  24.020  15.930
  822BOLB   C4C19724   8.660  23.640  16.010
  822BOLB   C1D19725   8.250  24.630  15.360
  822BOLB   C2D19726   8.530  24.270  15.430
  822BOLB   C3D19727   8.970  24.270  15.380
  822BOLB   C4D19728   9.240  24.310  15.190
  823BOLB   NC119729  22.020  12.490  10.390
  823BOLB   PO119730  22.100  12.070  10.200
  823BOLB   GL119731  22.510  11.970   9.990
  823BOLB   GL219732  22.680  11.720  10.090
  823BOLB   C1A19733  22.880  11.950   9.710
  823BOLB   C2A19734  23.230  11.900   9.710
  823BOLB   C3A19735  23.500  11.570  10.010
  823BOLB   C4A19736  23.620  11.350   9.810
  823BOLB   C1B19737  22.950  11.450   9.830
  823BOLB   C2B19738  23.100  11.040   9.680
  823BOLB   C3B19739  22.920  10.670   9.570
  823BOLB   C4B19740  22.720  10.330   9.630
  823BOLB   NC219741  25.400   9.220   9.190
  823BOLB   PO219742  25.240   9.460   8.790
  823BOLB   GL319743  24.940   9.880   8.740
  823BOLB   GL419744  25.090  10.110   8.950
  823BOLB   C1C19745  24.640  10.200   9.090
  823BOLB   C2C19746  24.220  10.260   9.270
  823BOLB   C3C19747  24.030  10.530   9.600
  823BOLB   C4C19748  23.840  10.980   9.700
  823BOLB   C1D19749  25.030  10.570   9.060
  823BOLB   C2D19750  25.290  10.940   9.120
  823BOLB   C3D19751  25.540  11.240   9.210
  823BOLB   C4D19752  25.680  11.310   9.620
  824BOLB   NC119753  22.510  24.310   5.070
  824BOLB   PO119754  22.170  24.310   4.970
  824BOLB   GL119755  22.080  23.990   5.110
  824BOLB   GL219756  21.890  23.880   4.960
  824BOLB   C1A19757  21.930  23.920   5.540
  824BOLB   C2A19758  21.950  23.680   5.910
  824BOLB   C3A19759  22.220  23.640   6.250
  824BOLB   C4A19760  22.260  23.650   6.600
  824BOLB   C1B19761  21.950  23.500   5.180
  824BOLB   C2B19762  21.770  23.330   5.550
  824BOLB   C3B19763  21.710  23.000   5.880
  824BOLB   C4B19764  21.600  22.720   6.190
  824BOLB   NC219765  22.050  25.680   5.010
  824BOLB   PO219766  22.250  25.290   5.300
  824BOLB   GL319767  22.200  25.100   5.700
  824BOLB   GL419768  21.930  25.190   5.770
  824BOLB   C1C19769  22.280  24.710   5.990
  824BOLB   C2C19770  22.670  24.540   6.170
  824BOLB   C3C19771  22.670  24.290   6.490
  824BOLB   C4C19772  22.450  24.020   6.660
  824BOLB   C1D19773  21.810  24.750   5.820
  824BOLB   C2D19774  21.870  24.530   6.200
  824BOLB   C3D19775  22.160  24.530   6.420
  824BOLB   C4D19776  22.400  24.750   6.690
  825BOLB   NC119777  24.120  27.110  14.810
  825BOLB   PO119778  23.710  27.230  14.970
  825BOLB   GL119779  23.410  26.910  15.230
  825BOLB   GL219780  23.680  26.700  15.270
  825BOLB   C1A19781  23.140  26.590  15.350
  825BOLB   C2A19782  22.980  26.200  15.440
  825BOLB   C3A19783  22.850  25.770  15.430
  825BOLB   C4A19784  22.470  25.570  15.260
  825BOLB   C1B19785  23.530  26.460  14.990
  825BOLB   C2B19786  23.280  26.220  14.680
  825BOLB   C3B19787  23.070  26.250  14.310
  825BOLB   C4B19788  22.660  26.410  14.180
  825BOLB   NC219789  23.240  27.220  14.810
  825BOLB   PO219790  23.010  27.330  14.400
  825BOLB   GL319791  22.850  26.930  14.330
  825BOLB   GL419792  23.170  26.740  14.200
  825BOLB   C1C19793  22.650  26.700  14.650
  825BOLB   C2C19794  22.470  26.420  14.700
  825BOLB   C3C19795  22.180  26.010  14.790
  825BOLB   C4C19796  22.300  25.680  14.830
  825BOLB   C1D19797  23.180  26.650  14.610
  825BOLB   C2D19798  22.910  26.360  14.960
  825BOLB   C3D19799  22.540  26.120  15.160
  825BOLB   C4D19800  22.140  26.210  15.230
  826BOLB   NC119801  13.210  24.860  16.190
  826BOLB   PO119802  13.660  24.700  16.390
  826BOLB   GL119803  13.580  25.160  16.290
  826BOLB   GL219804  13.360  25.290  16.370
  826BOLB   C1A19805  13.690  25.590  16.630
  826BOLB   C2A19806  13.450  25.900  16.650
  826BOLB   C3A19807  13.260  26.210  16.530
  826BOLB   C4A19808  13.170  26.570  16.670
  826BOLB   C1B19809  13.180  25.600  16.350
  826BOLB   C2B19810  13.080  25.960  16.150
  826BOLB   C3B19811  13.100  26.380  16.090
  826BOLB   C4B19812  13.290  26.790  15.940
  826BOLB   NC219813  12.530  28.280  18.270
  826BOLB   PO219814  12.190  27.920  18.380
  826BOLB   GL319815  12.150  27.560  18.080
  826BOLB   GL419816  12.060  27.580  17.690
  826BOLB   C1C19817  12.390  27.200  17.920
  826BOLB   C2C19818  12.530  27.010  17.580
  826BOLB   C3C19819  12.550  26.840  17.240
  826BOLB   C4C19820  12.850  26.600  17.020
  826BOLB   C1D19821  12.200  27.320  17.330
  826BOLB   C2D19822  12.240  27.060  16.940
  826BOLB   C3D19823  12.370  26.730  16.810
  826BOLB   C4D19824  12.640  26.480  16.590
  827BOLB   NC119825  21.330  11.450   8.570
  827BOLB   PO119826  21.230  11.170   8.170
  827BOLB   GL119827  21.570  10.920   8.220
  827BOLB   GL219828  21.660  11.080   8.580
  827BOLB   C1A19829  21.570  10.530   8.270
  827BOLB   C2A19830  21.880  10.230   8.250
  827BOLB   C3A19831  22.120   9.810   8.400
  827BOLB   C4A19832  22.450   9.720   8.510
  827BOLB   C1B19833  22.070  11.140   8.750
  827BOLB   C2B19834  22.430  10.910   8.600
  827BOLB   C3B19835  22.860  10.800   8.770
  827BOLB   C4B19836  23.080  10.840   9.180
  827BOLB   NC219837  24.350   8.350   8.490
  827BOLB   PO219838  24.460   8.330   8.960
  827BOLB   GL319839  24.150   8.670   8.880
  827BOLB   GL419840  24.240   8.870   8.670
  827BOLB   C1C19841  23.800   8.920   8.840
  827BOLB   C2C19842  23.380   8.950   8.880
  827BOLB   C3C19843  23.200   9.250   8.620
  827BOLB   C4C19844  22.870   9.520   8.550
  827BOLB   C1D19845  24.280   9.140   8.990
  827BOLB   C2D19846  23.980   9.230   9.330
  827BOLB   C3D19847  23.730   9.580   9.470
  827BOLB   C4D19848  23.320   9.760   9.470
  828BOLB   NC119849  19.520  24.450  10.890
  828BOLB   PO119850  19.830  24.380  11.320
  828BOLB   GL119851  19.860  24.860  11.080
  828BOLB   GL219852  19.640  25.140  11.010
  828BOLB   C1A19853  20.090  25.120  10.880
  828BOLB   C2A19854  20.260  25.320  10.530
  828BOLB   C3A19855  20.300  25.660  10.260
  828BOLB   C4A19856  20.570  25.960  10.150
  828BOLB   C1B19857  19.710  25.510  11.090
  828BOLB   C2B19858  19.790  25.970  11.010
  828BOLB   C3B19859  20.050  26.290  11.100
  828BOLB   C4B19860  19.980  26.650  11.020
  828BOLB   NC219861  21.180  28.090   9.710
  828BOLB   PO219862  20.770  28.300   9.970
  828BOLB   GL319863  20.910  27.920  10.080
  828BOLB   GL419864  20.580  27.730  10.070
  828BOLB   C1C19865  21.010  27.470  10.200
  828BOLB   C2C19866  20.930  27.020  10.200
  828BOLB   C3C19867  20.810  26.690  10.030
  828BOLB   C4C19868  20.880  26.290  10.200
  828BOLB   C1D19869  20.590  27.290   9.990
  828BOLB   C2D19870  20.330  26.890  10.090
  828BOLB   C3D19871  19.940  26.690  10.040
  828BOLB   C4D19872  19.460  26.690  10.030
  829BOLB   NC119873  17.140  14.510  19.730
  829BOLB   PO119874  17.370  14.210  19.820
  829BOLB   GL119875  17.390  14.090  20.200
  829BOLB   GL219876  17.370  14.320  20.410
  829BOLB   C1A19877  17.490  13.870  20.640
  829BOLB   C2A19878  17.740  13.720  20.960
  829BOLB   C3A19879  18.000  13.460  21.120
  829BOLB   C4A19880  18.150  13.170  21.430
  829BOLB   C1B19881  17.320  14.250  20.880
  829BOLB   C2B19882  17.240  13.950  21.110
  829BOLB   C3B19883  17.380  13.620  21.470
  829BOLB   C4B19884  17.660  13.210  21.520
  829BOLB   NC219885  19.550  11.850  23.210
  829BOLB   PO219886  19.350  12.160  23.200
  829BOLB   GL319887  19.140  12.210  22.880
  829BOLB   GL419888  18.850  12.260  23.110
  829BOLB   C1C19889  19.080  12.120  22.420
  829BOLB   C2C19890  18.710  12.240  22.320
  829BOLB   C3C19891  18.390  12.500  22.080
  829BOLB   C4C19892  18.250  12.840  21.700
  829BOLB   C1D19893  18.800  12.490  22.700
  829BOLB   C2D19894  18.350  12.580  22.550
  829BOLB   C3D19895  18.260  12.910  22.290
  829BOLB   C4D19896  18.100  13.290  22.070
  830BOLB   NC119897  13.710  11.440   6.230
  830BOLB   PO119898  14.020  11.170   6.550
  830BOLB   GL119899  13.710  10.980   6.350
  830BOLB   GL219900  13.330  11.050   6.390
  830BOLB   C1A19901  13.530  10.780   6.020
  830BOLB   C2A19902  13.450  10.440   5.750
  830BOLB   C3A19903  13.510  10.250   5.340
  830BOLB   C4A19904  13.380  10.140   5.000
  830BOLB   C1B19905  13.000  10.850   6.090
  830BOLB   C2B19906  12.650  10.620   6.100
  830BOLB   C3B19907  12.570  10.290   5.830
  830BOLB   C4B19908  12.510   9.960   5.470
  830BOLB   NC219909  13.400   9.590   2.370
  830BOLB   PO219910  13.500   9.150   2.640
  830BOLB   GL319911  13.620   9.350   2.880
  830BOLB   GL419912  13.910   9.300   2.890
  830BOLB   C1C19913  13.500   9.530   3.220
  830BOLB   C2C19914  13.580   9.710   3.740
  830BOLB   C3C19915  13.620   9.930   4.180
  830BOLB   C4C19916  13.510   9.910   4.570
  830BOLB   C1D19917  13.970   9.690   3.060
  830BOLB   C2D19918  13.940  10.020   3.400
  830BOLB   C3D19919  14.130  10.020   3.800
  830BOLB   C4D19920  14.080  10.100   4.120
  831BOLB   NC119921   8.220  15.250  11.410
  831BOLB   PO119922   8.520  14.920  11.160
  831BOLB   GL119923   8.290  14.570  11.130
  831BOLB   GL219924   8.180  14.510  11.310
  831BOLB   C1A19925   7.790  14.480  10.990
  831BOLB   C2A19926   7.420  14.730  10.840
  831BOLB   C3A19927   6.980  14.620  10.940
  831BOLB   C4A19928   6.680  14.340  10.830
  831BOLB   C1B19929   8.020  14.180  11.490
  831BOLB   C2B19930   7.880  13.810  11.420
  831BOLB   C3B19931   7.580  13.530  11.280
  831BOLB   C4B19932   7.180  13.290  11.150
  831BOLB   NC219933   4.130  14.150   9.820
  831BOLB   PO219934   4.330  13.850  10.010
  831BOLB   GL319935   4.550  14.100  10.230
  831BOLB   GL419936   4.400  14.370  10.160
  831BOLB   C1C19937   4.920  14.160  10.440
  831BOLB   C2C19938   5.370  14.080  10.490
  831BOLB   C3C19939   5.770  14.270  10.650
  831BOLB   C4C19940   6.190  14.230  10.740
  831BOLB   C1D19941   4.890  14.370   9.960
  831BOLB   C2D19942   5.240  14.110   9.980
  831BOLB   C3D19943   5.680  14.080  10.080
  831BOLB   C4D19944   6.020  14.110   9.910
  832BOLB   NC119945  22.170  17.770  16.560
  832BOLB   PO119946  22.460  17.500  16.780
  832BOLB   GL119947  22.910  17.660  16.920
  832BOLB   GL219948  22.900  17.970  17.110
  832BOLB   C1A19949  23.320  17.700  16.860
  832BOLB   C2A19950  23.570  17.710  17.240
  832BOLB   C3A19951  23.500  17.770  17.680
  832BOLB   C4A19952  23.300  18.050  17.930
  832BOLB   C1B19953  23.260  18.080  17.200
  832BOLB   C2B19954  23.660  18.220  17.240
  832BOLB   C3B19955  23.810  18.560  17.360
  832BOLB   C4B19956  24.120  18.690  17.580
  832BOLB   NC219957  25.600  18.520  19.490
  832BOLB   PO219958  25.370  18.410  19.120
  832BOLB   GL319959  25.050  18.290  18.910
  832BOLB   GL419960  25.110  18.560  18.680
  832BOLB   C1C19961  24.710  18.180  18.820
  832BOLB   C2C19962  24.240  18.180  18.640
  832BOLB   C3C19963  23.820  18.180  18.570
  832BOLB   C4C19964  23.560  18.110  18.230
  832BOLB   C1D19965  24.940  18.730  18.360
  832BOLB   C2D19966  24.690  18.520  18.180
  832BOLB   C3D19967  24.420  18.280  17.840
  832BOLB   C4D19968  24.570  18.130  17.420
  833BOLB   NC119969  17.420  24.010  16.550
  833BOLB   PO119970  17.620  24.250  16.870
  833BOLB   GL119971  18.110  24.440  17.200
  833BOLB   GL219972  18.210  24.680  17.180
  833BOLB   C1A19973  18.400  24.560  17.620
  833BOLB   C2A19974  18.590  24.700  17.920
  833BOLB   C3A19975  18.850  24.980  18.070
  833BOLB   C4A19976  18.920  25.340  18.390
  833BOLB   C1B19977  18.100  25.150  17.300
  833BOLB   C2B19978  18.270  25.540  17.550
  833BOLB   C3B19979  18.360  25.710  17.890
  833BOLB   C4B19980  18.710  25.840  18.110
  833BOLB   NC219981  19.910  27.780  18.680
  833BOLB   PO219982  19.550  27.620  18.630
  833BOLB   GL319983  19.470  27.340  18.440
  833BOLB   GL419984  19.660  27.120  18.590
  833BOLB   C1C19985  19.160  26.940  18.480
  833BOLB   C2C19986  19.140  26.600  18.490
  833BOLB   C3C19987  19.130  26.120  18.280
  833BOLB   C4C19988  19.130  25.790  18.460
  833BOLB   C1D19989  19.550  26.870  18.210
  833BOLB   C2D19990  19.320  26.540  18.010
  833BOLB   C3D19991  18.910  26.390  17.930
  833BOLB   C4D19992  18.620  26.350  18.250
  834BOLB   NC119993  14.610  21.830   1.710
  834BOLB   PO119994  14.660  22.180   1.950
  834BOLB   GL119995  14.840  21.890   2.200
  834BOLB   GL219996  15.110  22.000   2.350
  834BOLB   C1A19997  14.830  21.590   2.470
  834BOLB   C2A19998  14.970  21.580   2.930
  834BOLB   C3A19999  15.040  21.250   3.270
  834BOLB   C4A20000  15.090  20.870   3.500
  834BOLB   C1B20001  15.270  21.870   2.710
  834BOLB   C2B20002  15.450  21.680   3.030
  834BOLB   C3B20003  15.760  21.620   3.100
  834BOLB   C4B20004  16.100  21.680   3.210
  834BOLB   NC220005  15.330  21.500   1.440
  834BOLB   PO220006  14.980  21.470   1.660
  834BOLB   GL320007  15.120  21.410   2.080
  834BOLB   GL420008  15.440  21.540   2.130
  834BOLB   C1C20009  15.160  20.960   2.290
  834BOLB   C2C20010  15.370  20.670   2.550
  834BOLB   C3C20011  15.500  20.630   2.920
  834BOLB   C4C20012  15.320  20.530   3.390
  834BOLB   C1D20013  15.330  21.390   2.540
  834BOLB   C2D20014  15.570  21.180   2.910
  834BOLB   C3D20015  15.550  21.010   3.290
  834BOLB   C4D20016  15.810  21.360   3.520
  835BOLB   NC120017   6.450  24.560  10.120
  835BOLB   PO120018   6.770  24.340  10.250
  835BOLB   GL120019   7.050  24.030  10.420
  835BOLB   GL220020   7.290  24.040  10.650
  835BOLB   C1A20021   7.430  23.940  10.160
  835BOLB   C2A20022   7.870  23.860  10.050
  835BOLB   C3A20023   8.200  23.590  10.010
  835BOLB   C4A20024   8.390  23.190   9.940
  835BOLB   C1B20025   7.620  23.820  10.630
  835BOLB   C2B20026   8.080  23.660  10.670
  835BOLB   C3B20027   8.570  23.690  10.710
  835BOLB   C4B20028   8.980  23.800  10.400
  835BOLB   NC220029  10.060  21.230   9.810
  835BOLB   PO220030   9.710  21.110  10.020
  835BOLB   GL320031   9.300  21.370  10.200
  835BOLB   GL420032   9.250  21.300  10.570
  835BOLB   C1C20033   9.040  21.780  10.230
  835BOLB   C2C20034   8.750  22.010  10.110
  835BOLB   C3C20035   8.880  22.480  10.090
  835BOLB   C4C20036   8.650  22.870  10.020
  835BOLB   C1D20037   8.800  21.420  10.470
  835BOLB   C2D20038   8.430  21.640  10.290
  835BOLB   C3D20039   8.210  21.910  10.060
  835BOLB   C4D20040   7.930  21.880   9.710
  836BOLB   NC120041  21.340  21.580   7.470
  836BOLB   PO120042  21.650  21.590   7.460
  836BOLB   GL120043  22.040  21.740   7.350
  836BOLB   GL220044  22.230  21.920   7.510
  836BOLB   C1A20045  22.390  21.870   7.050
  836BOLB   C2A20046  22.580  22.280   6.810
  836BOLB   C3A20047  22.890  22.330   6.610
  836BOLB   C4A20048  22.990  22.250   6.240
  836BOLB   C1B20049  22.520  22.290   7.340
  836BOLB   C2B20050  22.840  22.310   7.250
  836BOLB   C3B20051  23.280  22.310   7.540
  836BOLB   C4B20052  23.700  22.310   7.470
  836BOLB   NC220053  22.910  23.900   4.280
  836BOLB   PO220054  23.130  23.650   4.570
  836BOLB   GL320055  23.060  23.380   4.840
  836BOLB   GL420056  23.240  23.480   5.130
  836BOLB   C1C20057  22.810  23.030   5.010
  836BOLB   C2C20058  22.900  22.730   5.310
  836BOLB   C3C20059  23.010  22.320   5.500
  836BOLB   C4C20060  23.130  22.210   5.880
  836BOLB   C1D20061  23.260  23.500   5.530
  836BOLB   C2D20062  23.300  23.290   5.910
  836BOLB   C3D20063  23.170  22.970   6.200
  836BOLB   C4D20064  22.810  22.840   6.310
  837BOLB   NC120065  23.640  20.320  10.940
  837BOLB   PO120066  23.740  20.680  10.860
  837BOLB   GL120067  24.120  20.790  10.700
  837BOLB   GL220068  24.280  21.070  10.600
  837BOLB   C1A20069  24.560  20.680  10.620
  837BOLB   C2A20070  24.930  20.760  10.600
  837BOLB   C3A20071  25.210  21.060  10.670
  837BOLB   C4A20072  25.480  21.310  10.620
  837BOLB   C1B20073  24.700  21.290  10.630
  837BOLB   C2B20074  24.900  21.640  10.730
  837BOLB   C3B20075  25.230  21.800  10.750
  837BOLB   C4B20076  25.400  22.100  10.560
  837BOLB   NC220077  26.960  23.280  10.730
  837BOLB   PO220078  26.690  23.200  10.830
  837BOLB   GL320079  26.510  22.800  10.750
  837BOLB   GL420080  26.540  22.540  10.540
  837BOLB   C1C20081  26.080  22.700  10.690
  837BOLB   C2C20082  25.860  22.530  10.440
  837BOLB   C3C20083  25.860  22.060  10.320
  837BOLB   C4C20084  25.820  21.680  10.600
  837BOLB   C1D20085  26.310  22.500  10.210
  837BOLB   C2D20086  26.100  22.220   9.810
  837BOLB   C3D20087  25.810  22.110   9.570
  837BOLB   C4D20088  25.380  22.170   9.240
  838BOLB   NC120089  21.780  23.010  10.310
  838BOLB   PO120090  21.600  23.320  10.080
  838BOLB   GL120091  21.750  23.710   9.830
  838BOLB   GL220092  21.580  24.080   9.990
  838BOLB   C1A20093  21.780  24.110   9.560
  838BOLB   C2A20094  21.880  24.640   9.440
  838BOLB   C3A20095  22.040  25.110   9.420
  838BOLB   C4A20096  22.330  25.270   9.750
  838BOLB   C1B20097  21.620  24.480   9.870
  838BOLB   C2B20098  21.430  24.780   9.700
  838BOLB   C3B20099  21.580  25.130   9.680
  838BOLB   C4B20100  21.630  25.440   9.690
  838BOLB   NC220101  23.540  27.180  10.020
  838BOLB   PO220102  23.600  27.050  10.420
  838BOLB   GL320103  23.250  26.820  10.300
  838BOLB   GL420104  23.140  26.850  10.630
  838BOLB   C1C20105  22.980  26.650   9.990
  838BOLB   C2C20106  22.910  26.320   9.650
  838BOLB   C3C20107  22.770  25.910   9.580
  838BOLB   C4C20108  22.570  25.650   9.800
  838BOLB   C1D20109  23.070  26.440  10.690
  838BOLB   C2D20110  22.700  26.180  10.760
  838BOLB   C3D20111  22.280  26.060  10.650
  838BOLB   C4D20112  21.800  26.120  10.740
  839BOLB   NC120113  16.120  24.520  11.310
  839BOLB   PO120114  15.750  24.800  11.270
  839BOLB   GL120115  15.770  25.170  11.180
  839BOLB   GL220116  15.720  25.210  10.840
  839BOLB   C1A20117  15.530  25.580  11.120
  839BOLB   C2A20118  15.380  26.090  11.040
  839BOLB   C3A20119  15.350  26.490  10.880
  839BOLB   C4A20120  15.640  26.760  10.790
  839BOLB   C1B20121  15.890  25.590  10.670
  839BOLB   C2B20122  15.760  25.810  10.360
  839BOLB   C3B20123  15.710  26.220  10.020
  839BOLB   C4B20124  15.800  26.440   9.560
  839BOLB   NC220125  15.400  29.160  10.240
  839BOLB   PO220126  15.650  28.920   9.960
  839BOLB   GL320127  15.670  28.520  10.100
  839BOLB   GL420128  15.610  28.490  10.440
  839BOLB   C1C20129  15.750  28.120  10.060
  839BOLB   C2C20130  15.760  27.730  10.160
  839BOLB   C3C20131  15.980  27.470  10.440
  839BOLB   C4C20132  15.800  27.080  10.610
  839BOLB   C1D20133  16.010  28.340  10.410
  839BOLB   C2D20134  16.440  28.280  10.390
  839BOLB   C3D20135  16.740  27.970  10.420
  839BOLB   C4D20136  17.010  27.670  10.700
  840BOLB   NC120137  14.680  22.010  19.750
  840BOLB   PO120138  15.030  21.720  19.900
  840BOLB   GL120139  14.690  21.920  20.210
  840BOLB   GL220140  14.340  22.150  20.180
  840BOLB   C1A20141  14.660  22.030  20.650
  840BOLB   C2A20142  14.590  22.430  20.730
  840BOLB   C3A20143  14.590  22.830  20.930
  840BOLB   C4A20144  14.830  23.000  21.310
  840BOLB   C1B20145  14.280  21.740  20.450
  840BOLB   C2B20146  14.360  21.540  20.810
  840BOLB   C3B20147  14.340  21.530  21.340
  840BOLB   C4B20148  14.130  21.580  21.650
  840BOLB   NC220149  15.350  25.040  23.070
  840BOLB   PO220150  15.620  24.710  23.040
  840BOLB   GL320151  15.440  24.450  22.680
  840BOLB   GL420152  15.200  24.580  22.670
  840BOLB   C1C20153  15.200  24.340  22.250
  840BOLB   C2C20154  15.240  24.010  21.950
  840BOLB   C3C20155  15.130  23.620  21.680
  840BOLB   C4C20156  14.970  23.390  21.330
  840BOLB   C1D20157  14.670  24.370  22.710
  840BOLB   C2D20158  14.350  24.050  22.900
  840BOLB   C3D20159  14.120  23.960  23.350
  840BOLB   C4D20160  14.170  23.620  23.620
  841BOLB   NC120161  24.270  18.420  12.700
  841BOLB   PO120162  24.350  18.250  12.280
  841BOLB   GL120163  24.690  18.440  12.420
  841BOLB   GL220164  24.860  18.330  12.240
  841BOLB   C1A20165  25.090  18.660  12.480
  841BOLB   C2A20166  25.450  18.770  12.610
  841BOLB   C3A20167  25.780  18.540  12.380
  841BOLB   C4A20168  26.090  18.470  12.050
  841BOLB   C1B20169  25.340  18.240  12.230
  841BOLB   C2B20170  25.670  18.300  11.850
  841BOLB   C3B20171  25.960  18.230  11.590
  841BOLB   C4B20172  26.390  18.250  11.630
  841BOLB   NC220173  28.200  18.850  11.390
  841BOLB   PO220174  28.310  18.420  11.450
  841BOLB   GL320175  27.910  18.380  11.380
  841BOLB   GL420176  27.720  18.280  11.020
  841BOLB   C1C20177  27.550  18.050  11.380
  841BOLB   C2C20178  27.200  17.990  11.770
  841BOLB   C3C20179  26.850  17.940  11.980
  841BOLB   C4C20180  26.450  18.140  12.090
  841BOLB   C1D20181  27.370  18.210  10.720
  841BOLB   C2D20182  26.880  18.330  10.610
  841BOLB   C3D20183  26.410  18.190  10.830
  841BOLB   C4D20184  26.190  18.240  11.140
  842BOLB   NC120185  20.990  22.090   7.350
  842BOLB   PO120186  20.560  21.990   7.490
  842BOLB   GL120187  20.430  22.480   7.300
  842BOLB   GL220188  20.370  22.830   7.350
  842BOLB   C1A20189  20.660  22.780   6.920
  842BOLB   C2A20190  20.650  22.950   6.570
  842BOLB   C3A20191  20.460  22.860   6.230
  842BOLB   C4A20192  20.470  23.120   5.770
  842BOLB   C1B20193  20.530  23.200   7.190
  842BOLB   C2B20194  20.870  23.240   6.890
  842BOLB   C3B20195  21.190  23.190   6.620
  842BOLB   C4B20196  21.450  22.840   6.650
  842BOLB   NC220197  20.580  24.120   4.100
  842BOLB   PO220198  21.010  24.200   4.290
  842BOLB   GL320199  20.910  23.790   4.340
  842BOLB   GL420200  21.120  23.550   4.460
  842BOLB   C1C20201  20.650  23.410   4.470
  842BOLB   C2C20202  20.850  23.020   4.690
  842BOLB   C3C20203  21.040  23.030   5.050
  842BOLB   C4C20204  20.790  22.990   5.520
  842BOLB   C1D20205  21.030  23.510   4.840
  842BOLB   C2D20206  21.270  23.490   5.360
  842BOLB   C3D20207  20.960  23.420   5.700
  842BOLB   C4D20208  20.880  23.280   6.130
  843BOLB   NC120209  20.910  24.060  12.230
  843BOLB   PO120210  21.190  24.020  11.950
  843BOLB   GL120211  21.260  24.340  11.820
  843BOLB   GL220212  21.150  24.390  11.540
  843BOLB   C1A20213  21.520  24.650  11.910
  843BOLB   C2A20214  21.650  25.000  12.230
  843BOLB   C3A20215  21.910  25.420  12.400
  843BOLB   C4A20216  21.690  25.860  12.470
  843BOLB   C1B20217  21.310  24.740  11.340
  843BOLB   C2B20218  21.490  25.120  11.230
  843BOLB   C3B20219  21.670  25.370  10.960
  843BOLB   C4B20220  21.870  25.610  10.510
  843BOLB   NC220221  21.600  28.140  11.300
  843BOLB   PO220222  21.770  27.940  11.660
  843BOLB   GL320223  21.580  27.650  11.670
  843BOLB   GL420224  21.590  27.480  11.930
  843BOLB   C1C20225  21.570  27.110  11.610
  843BOLB   C2C20226  21.760  26.790  11.760
  843BOLB   C3C20227  21.550  26.530  12.000
  843BOLB   C4C20228  21.480  26.230  12.190
  843BOLB   C1D20229  21.240  27.070  11.960
  843BOLB   C2D20230  21.110  26.680  12.050
  843BOLB   C3D20231  21.040  26.390  12.500
  843BOLB   C4D20232  21.200  26.150  12.780
  844BOLB   NC120233  17.100  23.730   9.560
  844BOLB   PO120234  17.050  24.010   9.220
  844BOLB   GL120235  16.900  24.150   8.870
  844BOLB   GL220236  16.840  23.870   8.720
  844BOLB   C1A20237  17.040  24.490   8.550
  844BOLB   C2A20238  16.920  24.960   8.340
  844BOLB   C3A20239  17.010  25.390   8.120
  844BOLB   C4A20240  17.070  25.800   8.210
  844BOLB   C1B20241  16.760  24.130   8.320
  844BOLB   C2B20242  16.690  24.470   8.100
  844BOLB   C3B20243  17.000  24.720   7.870
  844BOLB   C4B20244  17.120  25.080   7.750
  844BOLB   NC220245  16.750  27.780   7.300
  844BOLB   PO220246  17.030  28.070   7.600
  844BOLB   GL320247  16.980  27.710   7.830
  844BOLB   GL420248  17.060  27.610   8.150
  844BOLB   C1C20249  16.980  27.170   7.780
  844BOLB   C2C20250  16.940  26.780   7.960
  844BOLB   C3C20251  16.820  26.540   8.290
  844BOLB   C4C20252  16.850  26.220   8.510
  844BOLB   C1D20253  17.060  27.210   8.290
  844BOLB   C2D20254  17.170  26.850   8.640
  844BOLB   C3D20255  17.340  26.420   8.720
  844BOLB   C4D20256  17.670  26.120   8.710
  845BOLB   NC120257  19.550  18.140   5.060
  845BOLB   PO120258  19.340  17.720   4.930
  845BOLB   GL120259  19.480  17.900   4.590
  845BOLB   GL220260  19.310  17.960   4.300
  845BOLB   C1A20261  19.840  17.880   4.250
  845BOLB   C2A20262  19.980  17.950   3.830
  845BOLB   C3A20263  20.100  18.190   3.500
  845BOLB   C4A20264  20.390  18.170   3.170
  845BOLB   C1B20265  19.400  18.120   3.800
  845BOLB   C2B20266  19.340  18.350   3.370
  845BOLB   C3B20267  19.370  18.630   3.080
  845BOLB   C4B20268  19.430  19.060   2.990
  845BOLB   NC220269  21.740  19.880   1.330
  845BOLB   PO220270  21.470  19.990   1.670
  845BOLB   GL320271  21.380  19.710   1.990
  845BOLB   GL420272  21.550  19.680   2.340
  845BOLB   C1C20273  21.160  19.310   2.360
  845BOLB   C2C20274  21.120  18.940   2.610
  845BOLB   C3C20275  20.890  18.570   2.600
  845BOLB   C4C20276  20.800  18.280   3.000
  845BOLB   C1D20277  21.610  19.910   2.650
  845BOLB   C2D20278  21.520  19.770   3.030
  845BOLB   C3D20279  21.100  19.710   3.220
  845BOLB   C4D20280  20.730  19.630   3.490
  846BOLB   NC120281  21.420  22.320   7.990
  846BOLB   PO120282  21.380  22.050   7.610
  846BOLB   GL120283  21.750  22.270   7.490
  846BOLB   GL220284  21.860  22.490   7.700
  846BOLB   C1A20285  21.950  22.200   7.180
  846BOLB   C2A20286  21.950  22.060   6.840
  846BOLB   C3A20287  22.210  22.010   6.610
  846BOLB   C4A20288  22.330  21.850   6.240
  846BOLB   C1B20289  22.120  22.640   7.430
  846BOLB   C2B20290  22.240  22.560   7.000
  846BOLB   C3B20291  22.370  22.650   6.490
  846BOLB   C4B20292  22.510  22.400   6.100
  846BOLB   NC220293  22.460  23.330   3.460
  846BOLB   PO220294  22.640  23.070   3.810
  846BOLB   GL320295  22.710  22.950   4.270
  846BOLB   GL420296  23.100  23.030   4.530
  846BOLB   C1C20297  22.680  22.610   4.680
  846BOLB   C2C20298  22.620  22.370   5.080
  846BOLB   C3C20299  22.610  22.090   5.380
  846BOLB   C4C20300  22.370  22.070   5.800
  846BOLB   C1D20301  23.150  22.740   4.880
  846BOLB   C2D20302  23.380  22.520   5.230
  846BOLB   C3D20303  23.630  22.440   5.560
  846BOLB   C4D20304  24.020  22.460   5.660
  847BOLB   NC120305  20.160  11.630   6.840
  847BOLB   PO120306  20.530  11.930   6.630
  847BOLB   GL120307  20.850  12.070   6.350
  847BOLB   GL220308  20.670  11.820   6.140
  847BOLB   C1A20309  21.000  12.160   5.980
  847BOLB   C2A20310  21.080  12.020   5.590
  847BOLB   C3A20311  21.460  11.820   5.540
  847BOLB   C4A20312  21.850  12.110   5.510
  847BOLB   C1B20313  20.820  11.340   6.170
  847BOLB   C2B20314  21.180  11.150   6.250
  847BOLB   C3B20315  21.690  11.160   6.230
  847BOLB   C4B20316  21.960  11.350   6.030
  847BOLB   NC220317  23.440  10.790   3.900
  847BOLB   PO220318  23.050  10.640   4.070
  847BOLB   GL320319  22.940  11.020   4.250
  847BOLB   GL420320  23.100  11.130   4.460
  847BOLB   C1C20321  22.600  11.380   4.500
  847BOLB   C2C20322  22.440  11.680   4.740
  847BOLB   C3C20323  22.370  11.900   5.140
  847BOLB   C4C20324  22.170  12.130   5.350
  847BOLB   C1D20325  22.870  11.070   4.840
  847BOLB   C2D20326  23.000  11.130   5.220
  847BOLB   C3D20327  23.200  10.830   5.380
  847BOLB   C4D20328  23.410  10.640   5.720
  848BOLB   NC120329  23.680  18.040  14.380
  848BOLB   PO120330  23.530  17.990  14.790
  848BOLB   GL120331  23.870  18.020  14.940
  848BOLB   GL220332  24.080  18.250  15.080
  848BOLB   C1A20333  23.950  17.760  15.270
  848BOLB   C2A20334  24.250  17.570  15.780
  848BOLB   C3A20335  24.610  17.640  15.850
  848BOLB   C4A20336  24.970  17.910  15.760
  848BOLB   C1B20337  24.440  18.490  15.170
  848BOLB   C2B20338  24.650  18.610  15.530
  848BOLB   C3B20339  24.900  18.480  15.860
  848BOLB   C4B20340  25.150  18.460  16.280
  848BOLB   NC220341  27.150  18.210  16.360
  848BOLB   PO220342  27.090  18.370  16.080
  848BOLB   GL320343  26.880  18.000  16.010
  848BOLB   GL420344  26.730  17.850  16.290
  848BOLB   C1C20345  26.540  17.880  15.830
  848BOLB   C2C20346  26.110  17.920  15.700
  848BOLB   C3C20347  25.730  17.650  15.590
  848BOLB   C4C20348  25.360  17.870  15.620
  848BOLB   C1D20349  26.430  18.040  16.260
  848BOLB   C2D20350  25.990  18.230  16.260
  848BOLB   C3D20351  25.920  18.490  15.900
  848BOLB   C4D20352  26.070  18.350  15.400
  849BOLB   NC120353  13.620  23.620   9.160
  849BOLB   PO120354  14.030  23.790   9.040
  849BOLB   GL120355  13.730  24.020   8.810
  849BOLB   GL220356  13.610  24.110   8.920
  849BOLB   C1A20357  13.720  24.390   8.560
  849BOLB   C2A20358  13.520  24.890   8.470
  849BOLB   C3A20359  13.460  25.390   8.490
  849BOLB   C4A20360  13.410  25.620   8.820
  849BOLB   C1B20361  13.300  24.370   8.830
  849BOLB   C2B20362  12.990  24.630   8.650
  849BOLB   C3B20363  12.590  24.810   8.620
  849BOLB   C4B20364  12.310  25.080   8.730
  849BOLB   NC220365  12.560  27.570   7.480
  849BOLB   PO220366  12.680  27.640   7.900
  849BOLB   GL320367  12.840  27.520   8.290
  849BOLB   GL420368  12.670  27.200   8.290
  849BOLB   C1C20369  13.020  27.200   8.690
  849BOLB   C2C20370  13.180  26.870   8.780
  849BOLB   C3C20371  13.390  26.550   8.840
  849BOLB   C4C20372  13.320  26.170   8.800
  849BOLB   C1D20373  13.080  27.040   8.240
  849BOLB   C2D20374  13.520  26.940   8.370
  849BOLB   C3D20375  13.730  26.550   8.490
  849BOLB   C4D20376  14.180  26.330   8.610
  850BOLB   NC120377  10.720  23.140  12.520
  850BOLB   PO120378  10.450  23.130  12.900
  850BOLB   GL120379   9.970  23.350  12.830
  850BOLB   GL220380   9.820  23.210  12.650
  850BOLB   C1A20381   9.870  23.620  13.050
  850BOLB   C2A20382   9.640  23.980  13.070
  850BOLB   C3A20383   9.720  24.470  13.010
  850BOLB   C4A20384   9.760  24.910  13.020
  850BOLB   C1B20385   9.430  23.270  12.740
  850BOLB   C2B20386   8.980  23.410  12.850
  850BOLB   C3B20387   8.650  23.610  13.170
  850BOLB   C4B20388   8.350  23.960  13.070
  850BOLB   NC220389   8.360  26.260  11.800
  850BOLB   PO220390   8.530  26.560  12.110
  850BOLB   GL320391   8.820  26.440  12.450
  850BOLB   GL420392   8.800  26.440  12.850
  850BOLB   C1C20393   9.170  26.110  12.500
  850BOLB   C2C20394   9.430  25.860  12.660
  850BOLB   C3C20395   9.660  25.710  12.720
  850BOLB   C4C20396   9.680  25.360  12.830
  850BOLB   C1D20397   8.990  26.020  13.110
  850BOLB   C2D20398   9.360  25.780  13.340
  850BOLB   C3D20399   9.560  25.540  13.730
  850BOLB   C4D20400   9.790  25.430  13.960
  851BOLB   NC120401  22.620  21.520  10.090
  851BOLB   PO120402  22.800  21.910   9.920
  851BOLB   GL120403  23.030  22.240   9.690
  851BOLB   GL220404  23.280  22.090   9.570
  851BOLB   C1A20405  23.300  22.660   9.720
  851BOLB   C2A20406  23.510  22.990   9.520
  851BOLB   C3A20407  23.960  23.090   9.470
  851BOLB   C4A20408  24.330  23.010   9.770
  851BOLB   C1B20409  23.610  22.360   9.400
  851BOLB   C2B20410  23.860  22.640   9.180
  851BOLB   C3B20411  24.020  23.030   8.980
  851BOLB   C4B20412  24.140  23.480   8.910
  851BOLB   NC220413  26.570  23.120   9.360
  851BOLB   PO220414  26.600  22.950   9.790
  851BOLB   GL320415  26.250  22.830   9.620
  851BOLB   GL420416  26.250  22.750   9.250
  851BOLB   C1C20417  25.860  22.660   9.510
  851BOLB   C2C20418  25.500  22.560   9.600
  851BOLB   C3C20419  25.140  22.530   9.800
  851BOLB   C4C20420  24.650  22.620   9.760
  851BOLB   C1D20421  26.080  22.410   9.210
  851BOLB   C2D20422  25.880  22.100   9.120
  851BOLB   C3D20423  25.590  21.730   9.130
  851BOLB   C4D20424  25.280  21.610   9.450
  852BOLB   NC120425  17.410  13.290  19.580
  852BOLB   PO120426  17.100  13.390  19.610
  852BOLB   GL120427  17.050  13.190  20.010
  852BOLB   GL220428  17.330  13.000  19.940
  852BOLB   C1A20429  17.040  13.140  20.470
  852BOLB   C2A20430  17.220  12.860  20.690
  852BOLB   C3A20431  17.420  12.480  20.970
  852BOLB   C4A20432  17.550  12.090  21.220
  852BOLB   C1B20433  17.180  12.750  20.140
  852BOLB   C2B20434  17.350  12.450  20.450
  852BOLB   C3B20435  17.550  12.070  20.530
  852BOLB   C4B20436  17.780  11.790  20.700
  852BOLB   NC220437  19.010  10.750  23.100
  852BOLB   PO220438  19.140  11.180  22.960
  852BOLB   GL320439  18.920  11.280  22.690
  852BOLB   GL420440  18.750  11.580  22.820
  852BOLB   C1C20441  18.600  11.090  22.460
  852BOLB   C2C20442  18.350  11.360  22.310
  852BOLB   C3C20443  18.060  11.570  21.950
  852BOLB   C4C20444  17.760  11.830  21.650
  852BOLB   C1D20445  18.760  11.760  22.410
  852BOLB   C2D20446  18.460  11.830  22.120
  852BOLB   C3D20447  18.420  11.990  21.890
  852BOLB   C4D20448  18.620  12.310  21.670
  853BOLB   NC120449  17.010  20.850  20.530
  853BOLB   PO120450  17.450  20.620  20.440
  853BOLB   GL120451  17.420  20.980  20.790
  853BOLB   GL220452  17.140  20.940  20.990
  853BOLB   C1A20453  17.620  21.140  21.160
  853BOLB   C2A20454  17.970  21.160  21.590
  853BOLB   C3A20455  17.990  20.950  22.040
  853BOLB   C4A20456  17.880  21.010  22.530
  853BOLB   C1B20457  17.160  21.110  21.430
  853BOLB   C2B20458  17.100  20.920  21.860
  853BOLB   C3B20459  17.310  20.730  22.070
  853BOLB   C4B20460  17.680  20.540  22.270
  853BOLB   NC220461  18.160  20.990  24.230
  853BOLB   PO220462  17.940  20.750  24.370
  853BOLB   GL320463  17.820  20.420  24.230
  853BOLB   GL420464  17.970  20.030  24.230
  853BOLB   C1C20465  17.670  20.320  23.760
  853BOLB   C2C20466  17.440  20.420  23.480
  853BOLB   C3C20467  17.550  20.380  23.060
  853BOLB   C4C20468  17.720  20.700  22.870
  853BOLB   C1D20469  18.050  19.800  23.940
  853BOLB   C2D20470  18.050  19.750  23.500
  853BOLB   C3D20471  17.900  19.540  23.130
  853BOLB   C4D20472  17.770  19.060  23.070
  854BOLB   NC120473  15.770  23.550   8.900
  854BOLB   PO120474  15.580  23.860   9.190
  854BOLB   GL120475  15.630  24.330   9.000
  854BOLB   GL220476  15.560  24.690   9.070
  854BOLB   C1A20477  15.520  24.510   8.520
  854BOLB   C2A20478  15.300  24.830   8.300
  854BOLB   C3A20479  15.070  25.040   8.070
  854BOLB   C4A20480  14.610  24.980   7.830
  854BOLB   C1B20481  15.610  24.990   8.700
  854BOLB   C2B20482  15.400  25.260   8.440
  854BOLB   C3B20483  15.460  25.630   8.470
  854BOLB   C4B20484  15.180  25.920   8.660
  854BOLB   NC220485  12.990  26.850   6.260
  854BOLB   PO220486  13.200  26.680   6.650
  854BOLB   GL320487  13.580  26.400   6.750
  854BOLB   GL420488  13.790  26.320   6.480
  854BOLB   C1C20489  13.890  26.180   6.960
  854BOLB   C2C20490  14.140  25.820   7.050
  854BOLB   C3C20491  14.190  25.500   7.350
  854BOLB   C4C20492  14.400  25.260   7.650
  854BOLB   C1D20493  13.950  25.850   6.490
  854BOLB   C2D20494  14.120  25.490   6.700
  854BOLB   C3D20495  14.250  25.090   6.870
  854BOLB   C4D20496  14.130  24.990   7.250
  855BOLB   NC120497  18.410  24.200  15.150
  855BOLB   PO120498  18.300  24.680  15.160
  855BOLB   GL120499  18.490  25.100  15.260
  855BOLB   GL220500  18.460  25.280  14.950
  855BOLB   C1A20501  18.450  25.520  15.610
  855BOLB   C2A20502  18.750  25.760  15.670
  855BOLB   C3A20503  18.740  26.180  15.630
  855BOLB   C4A20504  18.460  26.390  15.950
  855BOLB   C1B20505  18.770  25.600  15.070
  855BOLB   C2B20506  18.910  26.070  15.090
  855BOLB   C3B20507  19.090  26.440  15.230
  855BOLB   C4B20508  19.290  26.730  15.350
  855BOLB   NC220509  19.390  28.910  16.700
  855BOLB   PO220510  18.930  28.870  16.960
  855BOLB   GL320511  18.900  28.490  16.700
  855BOLB   GL420512  19.170  28.470  16.700
  855BOLB   C1C20513  18.660  28.020  16.830
  855BOLB   C2C20514  18.530  27.670  16.540
  855BOLB   C3C20515  18.700  27.180  16.500
  855BOLB   C4C20516  18.600  26.830  16.150
  855BOLB   C1D20517  19.280  28.070  16.850
  855BOLB   C2D20518  19.060  27.760  16.700
  855BOLB   C3D20519  18.960  27.550  16.370
  855BOLB   C4D20520  18.900  27.280  16.020
  856BOLB   NC120521  22.210  11.550  11.510
  856BOLB   PO120522  22.010  11.740  11.190
  856BOLB   GL120523  22.240  11.330  11.070
  856BOLB   GL220524  22.200  11.110  10.730
  856BOLB   C1A20525  22.670  11.090  11.050
  856BOLB   C2A20526  23.050  11.030  10.900
  856BOLB   C3A20527  23.400  10.590  10.920
  856BOLB   C4A20528  23.750  10.320  10.840
  856BOLB   C1B20529  22.470  10.710  10.770
  856BOLB   C2B20530  22.910  10.500  10.970
  856BOLB   C3B20531  23.100  10.120  10.930
  856BOLB   C4B20532  23.330  10.010  10.620
  856BOLB   NC220533  24.460   8.330   9.590
  856BOLB   PO220534  24.510   8.280  10.000
  856BOLB   GL320535  24.260   8.720   9.960
  856BOLB   GL420536  24.040   8.670   9.730
  856BOLB   C1C20537  23.910   9.000  10.190
  856BOLB   C2C20538  23.940   9.370  10.420
  856BOLB   C3C20539  23.980   9.650  10.650
  856BOLB   C4C20540  23.990  10.040  10.790
  856BOLB   C1D20541  23.770   9.030   9.730
  856BOLB   C2D20542  23.600   9.550   9.920
  856BOLB   C3D20543  23.330   9.890   9.970
  856BOLB   C4D20544  22.940   9.910   9.810
  857BOLB   NC120545  12.560  17.320   5.740
  857BOLB   PO120546  12.180  17.400   5.510
  857BOLB   GL120547  12.040  17.430   5.130
  857BOLB   GL220548  11.700  17.360   5.220
  857BOLB   C1A20549  11.820  17.590   4.730
  857BOLB   C2A20550  11.820  17.610   4.320
  857BOLB   C3A20551  12.060  17.750   3.970
  857BOLB   C4A20552  12.270  17.740   3.530
  857BOLB   C1B20553  11.460  17.430   4.970
  857BOLB   C2B20554  11.160  17.430   4.640
  857BOLB   C3B20555  10.760  17.380   4.700
  857BOLB   C4B20556  10.410  17.590   4.490
  857BOLB   NC220557  11.540  19.060   1.050
  857BOLB   PO220558  11.630  19.040   1.470
  857BOLB   GL320559  11.740  18.680   1.720
  857BOLB   GL420560  12.000  18.760   1.810
  857BOLB   C1C20561  11.670  18.670   2.200
  857BOLB   C2C20562  11.810  18.500   2.600
  857BOLB   C3C20563  12.160  18.300   2.820
  857BOLB   C4C20564  12.090  18.020   3.170
  857BOLB   C1D20565  12.140  18.690   2.220
  857BOLB   C2D20566  12.380  18.810   2.480
  857BOLB   C3D20567  12.590  18.960   2.820
  857BOLB   C4D20568  12.860  18.680   2.980
  858BOLB   NC120569   9.700  26.800  18.030
  858BOLB   PO120570   9.700  26.690  17.610
  858BOLB   GL120571  10.010  26.300  17.720
  858BOLB   GL220572  10.040  26.260  18.080
  858BOLB   C1A20573  10.320  26.030  17.520
  858BOLB   C2A20574  10.630  25.800  17.350
  858BOLB   C3A20575  10.620  25.470  17.080
  858BOLB   C4A20576  10.480  25.290  16.760
  858BOLB   C1B20577  10.380  25.980  17.990
  858BOLB   C2B20578  10.640  25.560  17.790
  858BOLB   C3B20579  10.880  25.100  17.560
  858BOLB   C4B20580  10.960  25.010  17.080
  858BOLB   NC220581   9.550  26.710  17.140
  858BOLB   PO220582   9.160  26.560  17.370
  858BOLB   GL320583   9.310  26.200  17.330
  858BOLB   GL420584   9.690  26.200  17.370
  858BOLB   C1C20585   9.460  25.880  17.020
  858BOLB   C2C20586   9.490  25.450  16.890
  858BOLB   C3C20587   9.660  25.130  16.620
  858BOLB   C4C20588  10.060  25.080  16.580
  858BOLB   C1D20589   9.870  25.770  17.640
  858BOLB   C2D20590  10.220  25.410  17.610
  858BOLB   C3D20591  10.410  25.160  17.410
  858BOLB   C4D20592  10.450  24.860  17.120
  859BOLB   NC120593  11.370  13.810   6.440
  859BOLB   PO120594  11.400  14.010   5.980
  859BOLB   GL120595  11.270  13.830   5.610
  859BOLB   GL220596  11.520  13.760   5.430
  859BOLB   C1A20597  10.970  13.790   5.580
  859BOLB   C2A20598  10.750  13.730   5.250
  859BOLB   C3A20599  10.590  13.530   4.850
  859BOLB   C4A20600  10.400  13.810   4.520
  859BOLB   C1B20601  11.290  13.650   5.090
  859BOLB   C2B20602  11.090  13.430   4.760
  859BOLB   C3B20603  10.860  13.530   4.320
  859BOLB   C4B20604  10.510  13.680   4.060
  859BOLB   NC220605   8.410  13.730   3.020
  859BOLB   PO220606   8.870  13.830   2.870
  859BOLB   GL320607   9.250  13.830   3.170
  859BOLB   GL420608   9.170  13.480   3.410
  859BOLB   C1C20609   9.640  13.760   3.290
  859BOLB   C2C20610  10.070  13.860   3.560
  859BOLB   C3C20611  10.110  14.050   3.910
  859BOLB   C4C20612  10.210  14.090   4.340
  859BOLB   C1D20613   9.530  13.510   3.770
  859BOLB   C2D20614   9.640  13.840   4.050
  859BOLB   C3D20615   9.630  13.810   4.400
  859BOLB   C4D20616   9.750  14.100   4.810
  860BOLB   NC120617  11.930  13.230   6.050
  860BOLB   PO120618  11.810  13.650   6.140
  860BOLB   GL120619  11.480  13.490   5.930
  860BOLB   GL220620  11.530  13.160   5.710
  860BOLB   C1A20621  11.110  13.360   5.600
  860BOLB   C2A20622  10.830  13.240   5.320
  860BOLB   C3A20623  10.660  13.090   5.060
  860BOLB   C4A20624  10.740  13.050   4.630
  860BOLB   C1B20625  11.290  13.030   5.280
  860BOLB   C2B20626  11.060  12.750   5.030
  860BOLB   C3B20627  10.970  12.420   4.780
  860BOLB   C4B20628  10.730  12.280   4.520
  860BOLB   NC220629   9.790  11.140   3.250
  860BOLB   PO220630   9.640  11.580   3.150
  860BOLB   GL320631   9.840  12.060   3.200
  860BOLB   GL420632   9.940  12.430   3.080
  860BOLB   C1C20633  10.210  12.130   3.480
  860BOLB   C2C20634  10.400  12.350   3.790
  860BOLB   C3C20635  10.420  12.470   4.170
  860BOLB   C4C20636  10.750  12.720   4.370
  860BOLB   C1D20637   9.950  12.600   3.520
  860BOLB   C2D20638   9.830  12.280   3.730
  860BOLB   C3D20639  10.100  11.970   3.960
  860BOLB   C4D20640  10.120  11.580   4.310
  861BOLB   NC120641  19.140  23.610   9.220
  861BOLB   PO120642  19.480  23.550   8.950
  861BOLB   GL120643  19.540  23.950   8.870
  861BOLB   GL220644  19.740  24.080   8.550
  861BOLB   C1A20645  19.290  24.180   8.560
  861BOLB   C2A20646  19.060  24.560   8.240
  861BOLB   C3A20647  18.980  24.890   8.050
  861BOLB   C4A20648  19.240  25.070   7.800
  861BOLB   C1B20649  19.620  24.490   8.220
  861BOLB   C2B20650  20.030  24.760   8.230
  861BOLB   C3B20651  20.230  25.070   8.250
  861BOLB   C4B20652  20.260  25.460   8.060
  861BOLB   NC220653  20.770  26.700   6.250
  861BOLB   PO220654  20.560  26.260   6.120
  861BOLB   GL320655  20.400  25.960   6.440
  861BOLB   GL420656  20.630  25.730   6.590
  861BOLB   C1C20657  20.170  25.840   6.790
  861BOLB   C2C20658  19.750  25.690   6.830
  861BOLB   C3C20659  19.670  25.500   7.230
  861BOLB   C4C20660  19.530  25.330   7.590
  861BOLB   C1D20661  20.340  25.410   6.850
  861BOLB   C2D20662  20.360  25.300   7.240
  861BOLB   C3D20663  20.440  24.890   7.560
  861BOLB   C4D20664  20.780  24.690   7.730
  862BOLB   NC120665  22.330  19.120   7.110
  862BOLB   PO120666  22.460  19.290   7.540
  862BOLB   GL120667  22.820  19.110   7.220
  862BOLB   GL220668  23.070  19.140   7.330
  862BOLB   C1A20669  23.190  18.860   6.990
  862BOLB   C2A20670  23.520  19.100   6.770
  862BOLB   C3A20671  23.910  19.200   6.600
  862BOLB   C4A20672  24.370  19.210   6.500
  862BOLB   C1B20673  23.330  19.310   7.190
  862BOLB   C2B20674  23.700  19.530   6.950
  862BOLB   C3B20675  24.150  19.610   6.760
  862BOLB   C4B20676  24.110  19.970   6.450
  862BOLB   NC220677  26.740  18.310   6.130
  862BOLB   PO220678  26.680  18.800   6.090
  862BOLB   GL320679  26.370  18.640   6.320
  862BOLB   GL420680  26.280  18.590   6.650
  862BOLB   C1C20681  25.970  18.850   6.320
  862BOLB   C2C20682  25.670  19.030   6.170
  862BOLB   C3C20683  25.210  19.160   6.040
  862BOLB   C4C20684  24.830  19.250   6.370
  862BOLB   C1D20685  26.110  18.600   7.110
  862BOLB   C2D20686  25.970  18.430   7.420
  862BOLB   C3D20687  25.800  18.570   7.820
  862BOLB   C4D20688  25.660  18.500   8.210
  863BOLB   NC120689  15.450  21.480  20.060
  863BOLB   PO120690  15.660  21.270  20.270
  863BOLB   GL120691  15.850  21.320  20.720
  863BOLB   GL220692  16.150  21.140  20.830
  863BOLB   C1A20693  15.660  21.500  21.090
  863BOLB   C2A20694  15.870  21.870  21.420
  863BOLB   C3A20695  16.060  22.290  21.570
  863BOLB   C4A20696  16.150  22.530  21.920
  863BOLB   C1B20697  16.230  21.470  21.160
  863BOLB   C2B20698  16.400  21.810  21.410
  863BOLB   C3B20699  16.430  21.970  21.840
  863BOLB   C4B20700  16.520  22.230  22.380
  863BOLB   NC220701  15.910  24.230  23.910
  863BOLB   PO220702  15.770  24.400  23.480
  863BOLB   GL320703  15.960  24.040  23.200
  863BOLB   GL420704  16.230  23.850  23.210
  863BOLB   C1C20705  15.890  23.730  22.880
  863BOLB   C2C20706  16.100  23.320  22.830
  863BOLB   C3C20707  16.050  23.040  22.530
  863BOLB   C4C20708  16.150  22.830  22.190
  863BOLB   C1D20709  16.350  23.760  22.740
  863BOLB   C2D20710  16.600  23.840  22.330
  863BOLB   C3D20711  16.360  23.990  21.950
  863BOLB   C4D20712  16.530  24.020  21.550
  864BOLB   NC120713  22.590  18.680   8.110
  864BOLB   PO120714  22.680  18.420   7.650
  864BOLB   GL120715  22.930  18.250   7.230
  864BOLB   GL220716  22.980  17.970   7.030
  864BOLB   C1A20717  23.320  18.370   6.940
  864BOLB   C2A20718  23.440  18.520   6.550
  864BOLB   C3A20719  23.600  18.820   6.330
  864BOLB   C4A20720  23.960  19.060   6.110
  864BOLB   C1B20721  23.460  17.830   6.810
  864BOLB   C2B20722  23.580  17.910   6.470
  864BOLB   C3B20723  23.550  18.300   6.120
  864BOLB   C4B20724  23.420  18.420   5.730
  864BOLB   NC220725  25.950  20.850   5.170
  864BOLB   PO220726  25.700  20.590   5.070
  864BOLB   GL320727  25.230  20.600   5.080
  864BOLB   GL420728  25.040  20.220   4.880
  864BOLB   C1C20729  25.000  20.500   5.490
  864BOLB   C2C20730  24.570  20.170   5.730
  864BOLB   C3C20731  24.400  19.880   5.960
  864BOLB   C4C20732  24.180  19.430   6.050
  864BOLB   C1D20733  24.950  20.060   5.310
  864BOLB   C2D20734  25.000  20.030   5.770
  864BOLB   C3D20735  25.430  19.850   5.930
  864BOLB   C4D20736  25.550  19.510   6.010
  865BOLB   NC120737  12.110  24.110  14.480
  865BOLB   PO120738  12.070  23.920  14.120
  865BOLB   GL120739  11.700  24.230  14.070
  865BOLB   GL220740  11.820  24.580  14.040
  865BOLB   C1A20741  11.410  24.450  13.880
  865BOLB   C2A20742  11.100  24.720  13.740
  865BOLB   C3A20743  11.000  25.010  13.450
  865BOLB   C4A20744  11.030  25.400  13.310
  865BOLB   C1B20745  11.690  24.810  13.690
  865BOLB   C2B20746  11.460  25.270  13.640
  865BOLB   C3B20747  11.170  25.670  13.710
  865BOLB   C4B20748  11.100  25.990  13.830
  865BOLB   NC220749  10.080  27.860  13.680
  865BOLB   PO220750  10.080  27.800  13.270
  865BOLB   GL320751  10.240  27.330  13.370
  865BOLB   GL420752   9.950  27.070  13.360
  865BOLB   C1C20753  10.440  27.000  13.540
  865BOLB   C2C20754  10.690  26.630  13.690
  865BOLB   C3C20755  10.790  26.270  13.510
  865BOLB   C4C20756  10.930  25.880  13.340
  865BOLB   C1D20757  10.200  26.950  13.040
  865BOLB   C2D20758  10.650  26.950  12.950
  865BOLB   C3D20759  10.920  26.570  12.870
  865BOLB   C4D20760  11.210  26.160  12.940
  866BOLB   NC120761  23.190  13.740  13.610
  866BOLB   PO120762  22.960  13.540  13.350
  866BOLB   GL120763  23.210  13.270  13.620
  866BOLB   GL220764  23.190  12.880  13.670
  866BOLB   C1A20765  23.620  13.090  13.540
  866BOLB   C2A20766  24.000  12.960  13.480
  866BOLB   C3A20767  24.500  13.090  13.520
  866BOLB   C4A20768  24.810  13.140  13.610
  866BOLB   C1B20769  23.530  12.490  13.650
  866BOLB   C2B20770  23.790  12.130  13.540
  866BOLB   C3B20771  24.160  11.790  13.570
  866BOLB   C4B20772  24.210  11.410  13.510
  866BOLB   NC220773  26.860  11.240  14.460
  866BOLB   PO220774  26.750  11.610  14.340
  866BOLB   GL320775  26.340  11.890  14.240
  866BOLB   GL420776  26.390  12.130  14.040
  866BOLB   C1C20777  25.950  12.070  14.180
  866BOLB   C2C20778  25.820  12.510  14.010
  866BOLB   C3C20779  25.660  12.770  13.670
  866BOLB   C4C20780  25.190  12.880  13.620
  866BOLB   C1D20781  26.230  12.370  14.410
  866BOLB   C2D20782  25.760  12.360  14.490
  866BOLB   C3D20783  25.440  12.440  14.340
  866BOLB   C4D20784  25.340  12.570  13.970
  867BOLB   NC120785  23.960  18.400  11.950
  867BOLB   PO120786  23.860  18.600  12.410
  867BOLB   GL120787  24.230  18.840  12.300
  867BOLB   GL220788  24.280  18.790  12.060
  867BOLB   C1A20789  24.690  18.990  12.400
  867BOLB   C2A20790  25.130  19.150  12.200
  867BOLB   C3A20791  25.270  19.180  11.810
  867BOLB   C4A20792  25.440  18.850  11.630
  867BOLB   C1B20793  24.740  18.710  11.950
  867BOLB   C2B20794  25.100  18.620  11.960
  867BOLB   C3B20795  25.440  18.750  12.120
  867BOLB   C4B20796  25.710  19.060  12.200
  867BOLB   NC220797  27.970  19.980  12.050
  867BOLB   PO220798  27.650  19.660  12.220
  867BOLB   GL320799  27.410  19.320  11.990
  867BOLB   GL420800  27.230  19.400  11.620
  867BOLB   C1C20801  26.940  19.330  12.150
  867BOLB   C2C20802  26.560  19.140  12.140
  867BOLB   C3C20803  26.220  18.950  11.870
  867BOLB   C4C20804  25.860  18.740  11.720
  867BOLB   C1D20805  26.830  19.660  11.840
  867BOLB   C2D20806  26.480  19.680  12.150
  867BOLB   C3D20807  26.700  19.590  12.470
  867BOLB   C4D20808  27.090  19.530  12.790
  868BOLB   NC120809  19.300   9.860  10.140
  868BOLB   PO120810  19.320   9.760   9.750
  868BOLB   GL120811  19.410   9.350   9.870
  868BOLB   GL220812  19.380   9.260  10.160
  868BOLB   C1A20813  19.500   8.980   9.740
  868BOLB   C2A20814  19.410   8.500   9.810
  868BOLB   C3A20815  19.240   8.070   9.910
  868BOLB   C4A20816  19.390   7.660  10.100
  868BOLB   C1B20817  19.620   8.850  10.210
  868BOLB   C2B20818  19.790   8.530  10.170
  868BOLB   C3B20819  19.770   8.080  10.160
  868BOLB   C4B20820  19.710   7.800   9.660
  868BOLB   NC220821  20.120   5.640  10.510
  868BOLB   PO220822  20.070   5.500  10.840
  868BOLB   GL320823  19.920   5.960  10.960
  868BOLB   GL420824  19.640   5.730  11.180
  868BOLB   C1C20825  19.750   6.370  11.080
  868BOLB   C2C20826  19.590   6.730  10.980
  868BOLB   C3C20827  19.480   7.140  10.700
  868BOLB   C4C20828  19.590   7.500  10.560
  868BOLB   C1D20829  19.350   5.940  11.480
  868BOLB   C2D20830  19.040   6.170  11.660
  868BOLB   C3D20831  18.800   6.430  11.430
  868BOLB   C4D20832  18.340   6.620  11.370
  869BOLB   NC120833  16.850  24.770  17.390
  869BOLB   PO120834  17.170  24.390  17.560
  869BOLB   GL120835  17.170  24.650  17.890
  869BOLB   GL220836  16.930  24.930  17.920
  869BOLB   C1A20837  17.280  24.830  18.310
  869BOLB   C2A20838  17.390  25.000  18.740
  869BOLB   C3A20839  17.620  25.010  19.090
  869BOLB   C4A20840  17.930  24.790  19.160
  869BOLB   C1B20841  17.110  25.250  18.190
  869BOLB   C2B20842  17.120  25.600  18.440
  869BOLB   C3B20843  16.980  26.020  18.410
  869BOLB   C4B20844  17.140  26.390  18.300
  869BOLB   NC220845  19.300  26.730  20.560
  869BOLB   PO220846  19.230  26.250  20.380
  869BOLB   GL320847  18.910  26.070  20.130
  869BOLB   GL420848  18.650  25.930  20.400
  869BOLB   C1C20849  18.600  25.840  19.870
  869BOLB   C2C20850  18.610  25.710  19.450
  869BOLB   C3C20851  18.500  25.380  19.110
  869BOLB   C4C20852  18.190  25.090  19.260
  869BOLB   C1D20853  18.350  25.570  20.310
  869BOLB   C2D20854  18.420  25.280  19.920
  869BOLB   C3D20855  18.230  25.430  19.600
  869BOLB   C4D20856  17.770  25.290  19.520
  870BOLB   NC120857  12.890   9.240  13.510
  870BOLB   PO120858  12.580   9.430  13.810
  870BOLB   GL120859  12.720   9.100  13.960
  870BOLB   GL220860  12.720   9.110  14.300
  870BOLB   C1A20861  12.930   8.730  14.020
  870BOLB   C2A20862  12.970   8.210  14.170
  870BOLB   C3A20863  13.050   7.830  14.410
  870BOLB   C4A20864  13.150   7.420  14.590
  870BOLB   C1B20865  12.340   8.810  14.260
  870BOLB   C2B20866  12.030   8.600  14.220
  870BOLB   C3B20867  12.140   8.240  14.430
  870BOLB   C4B20868  12.010   7.860  14.670
  870BOLB   NC220869  12.550   4.880  15.600
  870BOLB   PO220870  12.910   5.090  15.370
  870BOLB   GL320871  12.750   5.470  15.220
  870BOLB   GL420872  12.820   5.640  15.460
  870BOLB   C1C20873  12.820   5.920  14.970
  870BOLB   C2C20874  12.820   6.280  15.100
  870BOLB   C3C20875  12.990   6.650  14.940
  870BOLB   C4C20876  13.110   7.030  14.760
  870BOLB   C1D20877  13.160   5.980  15.330
  870BOLB   C2D20878  13.420   6.290  15.560
  870BOLB   C3D20879  13.650   6.710  15.570
  870BOLB   C4D20880  13.870   7.050  15.800
  871BOLB   NC120881   3.500  17.500  22.350
  871BOLB   PO120882   3.760  17.380  22.060
  871BOLB   GL120883   3.980  17.250  21.750
  871BOLB   GL220884   3.750  16.950  21.710
  871BOLB   C1A20885   4.290  17.250  21.380
  871BOLB   C2A20886   4.450  16.880  21.240
  871BOLB   C3A20887   4.540  16.700  20.930
  871BOLB   C4A20888   4.620  16.430  20.580
  871BOLB   C1B20889   4.070  16.660  21.670
  871BOLB   C2B20890   4.460  16.530  21.570
  871BOLB   C3B20891   4.820  16.500  21.330
  871BOLB   C4B20892   5.100  16.820  21.130
  871BOLB   NC220893   2.700  16.400  20.770
  871BOLB   PO220894   2.640  16.830  20.580
  871BOLB   GL320895   3.030  17.030  20.330
  871BOLB   GL420896   3.100  17.350  20.120
  871BOLB   C1C20897   3.430  16.730  20.230
  871BOLB   C2C20898   3.740  16.640  20.200
  871BOLB   C3C20899   4.170  16.640  20.050
  871BOLB   C4C20900   4.410  16.470  20.150
  871BOLB   C1D20901   3.360  17.220  19.960
  871BOLB   C2D20902   3.800  17.240  20.050
  871BOLB   C3D20903   4.290  17.160  19.990
  871BOLB   C4D20904   4.580  17.550  20.200
  872BOLB   NC120905  21.400  14.730  16.760
  872BOLB   PO120906  21.590  14.810  17.160
  872BOLB   GL120907  21.960  14.770  17.200
  872BOLB   GL220908  22.190  15.070  17.320
  872BOLB   C1A20909  22.340  14.590  17.330
  872BOLB   C2A20910  22.560  14.570  17.590
  872BOLB   C3A20911  22.820  14.260  17.600
  872BOLB   C4A20912  23.220  14.270  17.790
  872BOLB   C1B20913  22.670  15.110  17.350
  872BOLB   C2B20914  22.980  15.140  17.590
  872BOLB   C3B20915  23.060  14.710  17.870
  872BOLB   C4B20916  23.360  14.550  18.200
  872BOLB   NC220917  25.390  14.030  18.630
  872BOLB   PO220918  25.280  13.830  18.890
  872BOLB   GL320919  24.870  13.810  18.720
  872BOLB   GL420920  24.970  13.830  18.420
  872BOLB   C1C20921  24.570  14.160  18.650
  872BOLB   C2C20922  24.240  14.390  18.420
  872BOLB   C3C20923  23.930  14.520  17.980
  872BOLB   C4C20924  23.590  14.330  17.860
  872BOLB   C1D20925  24.510  13.840  18.270
  872BOLB   C2D20926  24.270  14.120  18.000
  872BOLB   C3D20927  24.430  14.260  17.550
  872BOLB   C4D20928  24.660  13.950  17.370
  873BOLB   NC120929  18.800  10.480  14.930
  873BOLB   PO120930  18.740  10.070  15.050
  873BOLB   GL120931  18.970   9.640  15.100
  873BOLB   GL220932  19.180   9.740  15.270
  873BOLB   C1A20933  19.120   9.150  15.120
  873BOLB   C2A20934  18.980   8.810  14.820
  873BOLB   C3A20935  18.940   8.380  14.800
  873BOLB   C4A20936  19.000   8.110  15.200
  873BOLB   C1B20937  19.290   9.520  15.490
  873BOLB   C2B20938  19.300   9.170  15.610
  873BOLB   C3B20939  19.270   8.850  15.960
  873BOLB   C4B20940  19.140   8.360  16.170
  873BOLB   NC220941  20.640   6.140  15.650
  873BOLB   PO220942  20.370   6.330  16.060
  873BOLB   GL320943  20.160   6.660  15.960
  873BOLB   GL420944  19.920   6.770  16.210
  873BOLB   C1C20945  19.800   6.760  15.690
  873BOLB   C2C20946  19.590   6.970  15.400
  873BOLB   C3C20947  19.430   7.390  15.360
  873BOLB   C4C20948  19.220   7.690  15.140
  873BOLB   C1D20949  19.720   7.000  16.120
  873BOLB   C2D20950  19.360   7.160  15.940
  873BOLB   C3D20951  19.130   7.510  15.890
  873BOLB   C4D20952  19.040   7.780  15.600
  874BOLB   NC120953  16.730  24.970  11.140
  874BOLB   PO120954  17.040  24.780  10.800
  874BOLB   GL120955  17.060  25.260  10.670
  874BOLB   GL220956  16.850  25.430  10.920
  874BOLB   C1A20957  17.110  25.520  10.410
  874BOLB   C2A20958  17.070  25.770  10.060
  874BOLB   C3A20959  17.040  25.960   9.700
  874BOLB   C4A20960  16.910  26.310   9.560
  874BOLB   C1B20961  16.870  25.850  10.790
  874BOLB   C2B20962  16.750  26.330  10.810
  874BOLB   C3B20963  16.860  26.720  10.910
  874BOLB   C4B20964  16.780  27.170  10.980
  874BOLB   NC220965  16.360  28.620   9.200
  874BOLB   PO220966  15.860  28.510   9.210
  874BOLB   GL320967  15.790  28.080   9.190
  874BOLB   GL420968  15.530  27.930   9.240
  874BOLB   C1C20969  16.040  27.800   9.320
  874BOLB   C2C20970  16.250  27.390   9.280
  874BOLB   C3C20971  16.380  26.960   9.510
  874BOLB   C4C20972  16.780  26.760   9.560
  874BOLB   C1D20973  15.610  27.490   9.290
  874BOLB   C2D20974  15.770  27.160   9.470
  874BOLB   C3D20975  15.950  26.870   9.810
  874BOLB   C4D20976  16.190  26.580   9.990
  875BOLB   NC120977  20.210  10.600   8.460
  875BOLB   PO120978  20.560  10.810   8.580
  875BOLB   GL120979  20.680  10.430   8.400
  875BOLB   GL220980  21.020  10.600   8.250
  875BOLB   C1A20981  20.910  10.010   8.360
  875BOLB   C2A20982  21.040   9.690   8.220
  875BOLB   C3A20983  21.350   9.380   8.140
  875BOLB   C4A20984  21.360   9.080   7.810
  875BOLB   C1B20985  21.300  10.590   7.880
  875BOLB   C2B20986  21.570  10.330   7.770
  875BOLB   C3B20987  21.980  10.140   7.760
  875BOLB   C4B20988  22.300  10.180   7.460
  875BOLB   NC220989  23.400   8.300   6.780
  875BOLB   PO220990  23.140   8.350   6.470
  875BOLB   GL320991  22.980   8.580   6.880
  875BOLB   GL420992  23.250   8.700   7.020
  875BOLB   C1C20993  22.700   8.390   7.260
  875BOLB   C2C20994  22.480   8.490   7.580
  875BOLB   C3C20995  22.110   8.650   7.790
  875BOLB   C4C20996  21.730   8.870   7.700
  875BOLB   C1D20997  22.920   8.850   7.350
  875BOLB   C2D20998  22.580   8.940   7.700
  875BOLB   C3D20999  22.230   9.210   7.860
  875BOLB   C4D21000  21.840   9.320   8.030
  876BOLB   NC121001  17.530  26.870   5.200
  876BOLB   PO121002  17.790  26.590   5.420
  876BOLB   GL121003  17.510  26.190   5.660
  876BOLB   GL221004  17.360  25.980   5.560
  876BOLB   C1A21005  17.730  25.910   5.950
  876BOLB   C2A21006  17.990  25.830   6.390
  876BOLB   C3A21007  18.210  25.410   6.300
  876BOLB   C4A21008  18.490  25.130   6.590
  876BOLB   C1B21009  17.020  25.800   5.680
  876BOLB   C2B21010  16.720  25.460   5.520
  876BOLB   C3B21011  16.660  25.110   5.280
  876BOLB   C4B21012  16.800  24.940   4.800
  876BOLB   NC221013  18.270  27.300   6.880
  876BOLB   PO221014  17.860  27.270   6.500
  876BOLB   GL321015  18.040  26.830   6.740
  876BOLB   GL421016  17.940  26.570   6.620
  876BOLB   C1C21017  18.140  26.560   7.080
  876BOLB   C2C21018  18.320  26.150   7.200
  876BOLB   C3C21019  18.440  25.710   7.280
  876BOLB   C4C21020  18.670  25.430   7.010
  876BOLB   C1D21021  17.910  26.180   6.900
  876BOLB   C2D21022  17.940  25.820   7.120
  876BOLB   C3D21023  17.910  25.500   7.410
  876BOLB   C4D21024  17.800  25.070   7.330
  877BOLB   NC121025  12.800  20.770   7.500
  877BOLB   PO121026  12.330  21.010   7.530
  877BOLB   GL121027  12.110  21.390   7.270
  877BOLB   GL221028  12.160  21.330   7.080
  877BOLB   C1A21029  11.910  21.780   6.960
  877BOLB   C2A21030  11.630  21.930   6.860
  877BOLB   C3A21031  11.390  22.400   6.900
  877BOLB   C4A21032  10.910  22.540   6.880
  877BOLB   C1B21033  12.040  21.370   6.670
  877BOLB   C2B21034  11.970  21.520   6.270
  877BOLB   C3B21035  11.940  21.870   6.010
  877BOLB   C4B21036  11.600  21.880   5.680
  877BOLB   NC221037   8.660  23.780   6.050
  877BOLB   PO221038   9.110  23.490   5.960
  877BOLB   GL321039   9.530  23.520   6.020
  877BOLB   GL421040   9.640  23.400   5.900
  877BOLB   C1C21041   9.710  23.140   6.280
  877BOLB   C2C21042  10.110  22.880   6.340
  877BOLB   C3C21043  10.500  22.820   6.230
  877BOLB   C4C21044  10.810  22.640   6.460
  877BOLB   C1D21045  10.060  23.270   5.980
  877BOLB   C2D21046  10.500  23.050   5.800
  877BOLB   C3D21047  10.830  22.910   5.710
  877BOLB   C4D21048  11.270  22.940   5.740
  878BOLB   NC121049  16.880  22.020  18.980
  878BOLB   PO121050  17.030  22.020  19.380
  878BOLB   GL121051  17.300  22.230  19.710
  878BOLB   GL221052  17.360  22.520  19.580
  878BOLB   C1A21053  17.370  22.420  20.090
  878BOLB   C2A21054  17.470  22.870  20.210
  878BOLB   C3A21055  17.290  23.160  20.560
  878BOLB   C4A21056  17.250  23.450  21.030
  878BOLB   C1B21057  17.300  22.950  19.690
  878BOLB   C2B21058  17.210  23.270  19.960
  878BOLB   C3B21059  16.900  23.310  20.230
  878BOLB   C4B21060  16.670  23.670  20.350
  878BOLB   NC221061  17.110  25.210  22.120
  878BOLB   PO221062  16.990  25.680  21.980
  878BOLB   GL321063  16.900  25.360  21.680
  878BOLB   GL421064  16.740  25.080  21.810
  878BOLB   C1C21065  16.990  25.170  21.350
  878BOLB   C2C21066  17.080  24.860  21.100
  878BOLB   C3C21067  17.080  24.400  21.020
  878BOLB   C4C21068  17.250  23.880  21.100
  878BOLB   C1D21069  16.730  24.760  21.530
  878BOLB   C2D21070  16.640  24.450  21.220
  878BOLB   C3D21071  16.690  24.070  21.030
  878BOLB   C4D21072  16.890  23.870  20.730
  879BOLB   NC121073  23.280  25.720  18.320
  879BOLB   PO121074  23.130  26.020  17.980
  879BOLB   GL121075  22.720  26.010  17.860
  879BOLB   GL221076  22.520  26.230  17.560
  879BOLB   C1A21077  22.570  25.600  17.910
  879BOLB   C2A21078  22.210  25.310  17.830
  879BOLB   C3A21079  22.040  24.910  17.710
  879BOLB   C4A21080  21.720  24.970  17.430
  879BOLB   C1B21081  22.550  25.810  17.400
  879BOLB   C2B21082  22.430  25.380  17.400
  879BOLB   C3B21083  22.150  25.130  17.200
  879BOLB   C4B21084  21.940  24.770  16.980
  879BOLB   NC221085  22.800  26.640  18.630
  879BOLB   PO221086  22.310  26.600  18.620
  879BOLB   GL321087  22.200  26.370  18.280
  879BOLB   GL421088  22.310  26.050  18.200
  879BOLB   C1C21089  21.720  26.110  18.200
  879BOLB   C2C21090  21.520  25.820  18.120
  879BOLB   C3C21091  21.470  25.420  17.910
  879BOLB   C4C21092  21.470  25.160  17.580
  879BOLB   C1D21093  22.060  25.690  18.170
  879BOLB   C2D21094  21.870  25.230  18.150
  879BOLB   C3D21095  21.640  24.900  18.030
  879BOLB   C4D21096  21.450  24.660  17.750
  880BOLB   NC121097  19.410  17.590  19.500
  880BOLB   PO121098  19.600  17.490  19.170
  880BOLB   GL121099  19.960  17.380  19.530
  880BOLB   GL221100  19.880  17.520  19.790
  880BOLB   C1A21101  20.360  17.460  19.580
  880BOLB   C2A21102  20.520  17.630  19.800
  880BOLB   C3A21103  20.800  17.760  20.070
  880BOLB   C4A21104  20.980  17.500  20.500
  880BOLB   C1B21105  20.030  17.730  20.050
  880BOLB   C2B21106  20.160  17.840  20.470
  880BOLB   C3B21107  20.380  17.560  20.700
  880BOLB   C4B21108  20.390  17.210  20.990
  880BOLB   NC221109  22.330  16.380  22.360
  880BOLB   PO221110  21.960  16.700  22.420
  880BOLB   GL321111  21.600  16.640  22.180
  880BOLB   GL421112  21.440  16.780  22.480
  880BOLB   C1C21113  21.300  16.780  21.990
  880BOLB   C2C21114  20.970  17.040  21.720
  880BOLB   C3C21115  20.830  17.230  21.310
  880BOLB   C4C21116  20.810  17.470  20.930
  880BOLB   C1D21117  21.080  16.490  22.300
  880BOLB   C2D21118  20.800  16.190  22.230
  880BOLB   C3D21119  20.520  15.970  22.070
  880BOLB   C4D21120  20.350  15.650  21.790
  881BOLB   NC121121   1.670  15.110  19.370
  881BOLB   PO121122   2.000  15.380  19.510
  881BOLB   GL121123   2.500  15.390  19.470
  881BOLB   GL221124   2.650  15.160  19.210
  881BOLB   C1A21125   2.980  15.490  19.420
  881BOLB   C2A21126   3.430  15.490  19.260
  881BOLB   C3A21127   3.620  15.660  18.880
  881BOLB   C4A21128   3.660  15.830  18.500
  881BOLB   C1B21129   3.030  14.820  19.170
  881BOLB   C2B21130   3.180  14.410  19.000
  881BOLB   C3B21131   3.480  14.170  19.180
  881BOLB   C4B21132   3.820  13.960  19.030
  881BOLB   NC221133   1.790  17.140  19.600
  881BOLB   PO221134   2.120  16.890  19.390
  881BOLB   GL321135   2.270  16.820  18.990
  881BOLB   GL421136   2.010  16.730  18.720
  881BOLB   C1C21137   2.650  16.890  18.810
  881BOLB   C2C21138   2.940  16.610  18.540
  881BOLB   C3C21139   3.250  16.440  18.310
  881BOLB   C4C21140   3.540  16.160  18.300
  881BOLB   C1D21141   2.330  16.850  18.360
  881BOLB   C2D21142   2.740  16.700  18.110
  881BOLB   C3D21143   3.070  16.550  17.870
  881BOLB   C4D21144   3.310  16.140  17.850
  882BOLB   NC121145  13.010  23.000  17.720
  882BOLB   PO121146  13.060  23.390  17.600
  882BOLB   GL121147  12.820  23.710  17.750
  882BOLB   GL221148  12.800  23.610  17.990
  882BOLB   C1A21149  12.560  24.090  17.870
  882BOLB   C2A21150  12.420  24.520  17.750
  882BOLB   C3A21151  12.200  24.970  17.880
  882BOLB   C4A21152  11.920  25.290  18.080
  882BOLB   C1B21153  12.640  23.420  18.370
  882BOLB   C2B21154  12.530  23.570  18.770
  882BOLB   C3B21155  12.410  23.700  19.080
  882BOLB   C4B21156  12.440  24.080  19.360
  882BOLB   NC221157  10.370  26.950  17.090
  882BOLB   PO221158  10.030  26.860  17.260
  882BOLB   GL321159  10.250  26.470  17.240
  882BOLB   GL421160  10.060  26.360  17.040
  882BOLB   C1C21161  10.700  26.370  17.530
  882BOLB   C2C21162  10.980  25.980  17.750
  882BOLB   C3C21163  11.520  25.890  17.660
  882BOLB   C4C21164  11.830  25.700  17.940
  882BOLB   C1D21165  10.250  25.960  16.980
  882BOLB   C2D21166  10.130  25.580  17.120
  882BOLB   C3D21167  10.040  25.130  17.060
  882BOLB   C4D21168   9.670  24.870  17.060
  883BOLB   NC121169  13.690  24.220  16.580
  883BOLB   PO121170  13.720  24.530  16.810
  883BOLB   GL121171  13.710  24.980  16.910
  883BOLB   GL221172  13.490  25.010  16.760
  883BOLB   C1A21173  13.440  25.140  17.230
  883BOLB   C2A21174  13.120  25.260  17.420
  883BOLB   C3A21175  12.870  25.240  17.760
  883BOLB   C4A21176  12.610  25.520  17.900
  883BOLB   C1B21177  13.280  25.450  16.900
  883BOLB   C2B21178  13.010  25.710  17.190
  883BOLB   C3B21179  12.720  25.700  17.460
  883BOLB   C4B21180  12.260  25.700  17.590
  883BOLB   NC221181  12.570  27.510  19.280
  883BOLB   PO221182  13.070  27.470  19.180
  883BOLB   GL321183  12.800  27.140  18.970
  883BOLB   GL421184  12.640  27.260  18.600
  883BOLB   C1C21185  12.520  26.770  18.830
  883BOLB   C2C21186  12.200  26.440  18.510
  883BOLB   C3C21187  12.070  26.080  18.430
  883BOLB   C4C21188  12.270  25.730  18.160
  883BOLB   C1D21189  12.530  26.880  18.350
  883BOLB   C2D21190  12.720  26.710  17.980
  883BOLB   C3D21191  13.020  26.500  17.880
  883BOLB   C4D21192  13.360  26.100  17.900
  884BOLB   NC121193  20.540  19.260   5.950
  884BOLB   PO121194  20.540  19.450   5.490
  884BOLB   GL121195  20.430  19.720   5.200
  884BOLB   GL221196  20.560  20.050   5.200
  884BOLB   C1A21197  20.550  19.910   4.740
  884BOLB   C2A21198  20.830  19.860   4.410
  884BOLB   C3A21199  20.850  19.570   4.020
  884BOLB   C4A21200  21.160  19.570   3.720
  884BOLB   C1B21201  20.690  20.410   4.830
  884BOLB   C2B21202  20.780  20.350   4.380
  884BOLB   C3B21203  20.950  20.790   4.040
  884BOLB   C4B21204  21.330  20.800   3.910
  884BOLB   NC221205  21.480  20.470   1.620
  884BOLB   PO221206  21.480  20.920   1.780
  884BOLB   GL321207  21.560  20.860   2.350
  884BOLB   GL421208  21.600  21.140   2.460
  884BOLB   C1C21209  21.680  20.540   2.550
  884BOLB   C2C21210  21.620  20.390   3.010
  884BOLB   C3C21211  21.670  20.160   3.320
  884BOLB   C4C21212  21.370  19.960   3.640
  884BOLB   C1D21213  21.830  20.990   2.840
  884BOLB   C2D21214  22.090  20.600   2.860
  884BOLB   C3D21215  22.010  20.170   2.880
  884BOLB   C4D21216  22.090  19.790   2.840
  885BOLB   NC121217  21.430  15.850  18.080
  885BOLB   PO121218  21.730  15.890  17.700
  885BOLB   GL121219  21.930  15.970  17.950
  885BOLB   GL221220  22.140  15.740  17.970
  885BOLB   C1A21221  22.340  16.150  18.240
  885BOLB   C2A21222  22.730  16.150  18.440
  885BOLB   C3A21223  23.120  16.310  18.410
  885BOLB   C4A21224  23.510  16.310  18.620
  885BOLB   C1B21225  22.140  15.750  18.390
  885BOLB   C2B21226  22.140  15.800  18.830
  885BOLB   C3B21227  22.220  15.540  19.180
  885BOLB   C4B21228  22.460  15.480  19.680
  885BOLB   NC221229  25.730  16.550  18.640
  885BOLB   PO221230  25.770  16.990  18.470
  885BOLB   GL321231  25.390  17.050  18.240
  885BOLB   GL421232  25.300  17.300  18.360
  885BOLB   C1C21233  25.070  16.860  18.400
  885BOLB   C2C21234  24.590  16.820  18.380
  885BOLB   C3C21235  24.100  16.730  18.460
  885BOLB   C4C21236  23.840  16.470  18.680
  885BOLB   C1D21237  24.980  17.270  18.100
  885BOLB   C2D21238  24.810  17.580  17.740
  885BOLB   C3D21239  24.920  17.690  17.390
  885BOLB   C4D21240  24.540  17.570  17.200
  886BOLB   NC121241  14.260  14.910   3.980
  886BOLB   PO121242  14.450  15.330   3.810
  886BOLB   GL121243  14.250  15.250   3.370
  886BOLB   GL221244  13.920  15.190   3.560
  886BOLB   C1A21245  14.240  15.150   2.960
  886BOLB   C2A21246  14.250  15.310   2.550
  886BOLB   C3A21247  14.520  15.530   2.380
  886BOLB   C4A21248  14.410  15.820   2.100
  886BOLB   C1B21249  13.720  15.250   3.100
  886BOLB   C2B21250  13.500  15.620   3.040
  886BOLB   C3B21251  13.160  15.920   3.010
  886BOLB   C4B21252  13.290  16.280   2.810
  886BOLB   NC221253  13.010  15.630   0.230
  886BOLB   PO221254  13.330  15.900   0.050
  886BOLB   GL321255  13.270  15.980   0.430
  886BOLB   GL421256  13.250  15.830   0.680
  886BOLB   C1C21257  13.460  16.210   0.830
  886BOLB   C2C21258  13.790  16.250   1.090
  886BOLB   C3C21259  13.870  15.970   1.480
  886BOLB   C4C21260  14.000  15.920   1.930
  886BOLB   C1D21261  13.240  15.400   0.860
  886BOLB   C2D21262  13.230  15.340   1.310
  886BOLB   C3D21263  13.100  15.400   1.700
  886BOLB   C4D21264  13.110  15.370   2.090
  887BOLB   NC121265  12.820  24.070  13.410
  887BOLB   PO121266  12.470  23.890  13.240
  887BOLB   GL121267  12.120  24.180  13.220
  887BOLB   GL221268  11.790  24.280  13.290
  887BOLB   C1A21269  12.090  24.680  13.350
  887BOLB   C2A21270  12.300  25.030  13.440
  887BOLB   C3A21271  11.960  25.340  13.610
  887BOLB   C4A21272  11.640  25.710  13.500
  887BOLB   C1B21273  11.560  24.310  12.870
  887BOLB   C2B21274  11.430  24.680  12.630
  887BOLB   C3B21275  10.920  24.800  12.520
  887BOLB   C4B21276  10.610  24.910  12.670
  887BOLB   NC221277  10.420  27.940  12.970
  887BOLB   PO221278  10.730  28.010  13.120
  887BOLB   GL321279  11.030  27.740  13.200
  887BOLB   GL421280  11.100  27.740  13.540
  887BOLB   C1C21281  10.890  27.310  13.270
  887BOLB   C2C21282  10.920  26.880  13.330
  887BOLB   C3C21283  11.230  26.510  13.260
  887BOLB   C4C21284  11.420  26.100  13.430
  887BOLB   C1D21285  11.350  27.350  13.320
  887BOLB   C2D21286  11.480  26.910  13.380
  887BOLB   C3D21287  11.690  26.560  13.450
  887BOLB   C4D21288  12.100  26.280  13.540
  888BOLB   NC121289   9.130  15.090   8.840
  888BOLB   PO121290   9.070  14.750   9.150
  888BOLB   GL121291   8.600  14.730   9.020
  888BOLB   GL221292   8.570  14.960   8.960
  888BOLB   C1A21293   8.030  14.680   8.940
  888BOLB   C2A21294   7.660  14.720   9.160
  888BOLB   C3A21295   7.370  14.510   9.310
  888BOLB   C4A21296   6.950  14.380   9.240
  888BOLB   C1B21297   8.390  14.510   8.630
  888BOLB   C2B21298   8.250  14.250   8.250
  888BOLB   C3B21299   8.080  14.040   7.790
  888BOLB   C4B21300   8.060  14.220   7.320
  888BOLB   NC221301   5.500  14.780   7.130
  888BOLB   PO221302   5.480  14.780   7.570
  888BOLB   GL321303   5.920  14.580   7.520
  888BOLB   GL421304   5.990  14.860   7.430
  888BOLB   C1C21305   6.120  14.140   7.750
  888BOLB   C2C21306   6.160  13.970   8.140
  888BOLB   C3C21307   6.430  14.030   8.520
  888BOLB   C4C21308   6.750  14.300   8.820
  888BOLB   C1D21309   5.950  15.220   7.740
  888BOLB   C2D21310   6.240  15.440   8.060
  888BOLB   C3D21311   6.510  15.510   8.310
  888BOLB   C4D21312   6.800  15.800   8.500
  889BOLB   NC121313  12.580  24.050  14.220
  889BOLB   PO121314  12.740  24.340  13.840
  889BOLB   GL121315  12.550  24.740  13.810
  889BOLB   GL221316  12.640  25.020  13.930
  889BOLB   C1A21317  12.160  25.060  13.960
  889BOLB   C2A21318  11.730  25.150  14.110
  889BOLB   C3A21319  11.500  25.540  14.150
  889BOLB   C4A21320  11.500  25.960  14.280
  889BOLB   C1B21321  12.500  25.470  13.750
  889BOLB   C2B21322  12.300  25.670  13.400
  889BOLB   C3B21323  12.500  25.590  12.970
  889BOLB   C4B21324  12.820  25.430  12.800
  889BOLB   NC221325   9.680  27.040  15.030
  889BOLB   PO221326  10.130  27.280  15.050
  889BOLB   GL321327  10.010  26.920  14.660
  889BOLB   GL421328   9.940  26.670  14.750
  889BOLB   C1C21329  10.100  26.790  14.290
  889BOLB   C2C21330  10.400  26.510  14.140
  889BOLB   C3C21331  10.750  26.340  14.060
  889BOLB   C4C21332  11.210  26.290  14.210
  889BOLB   C1D21333   9.960  26.270  14.810
  889BOLB   C2D21334  10.180  26.080  15.160
  889BOLB   C3D21335  10.040  26.120  15.640
  889BOLB   C4D21336  10.310  25.920  16.010
  890BOLB   NC121337  24.400  18.580  13.190
  890BOLB   PO121338  24.200  18.970  12.960
  890BOLB   GL121339  24.720  18.960  13.060
  890BOLB   GL221340  24.800  18.660  12.940
  890BOLB   C1A21341  25.090  19.060  12.850
  890BOLB   C2A21342  25.430  19.370  12.740
  890BOLB   C3A21343  25.750  19.560  12.490
  890BOLB   C4A21344  26.050  19.380  12.140
  890BOLB   C1B21345  25.170  18.610  13.070
  890BOLB   C2B21346  25.560  18.860  13.160
  890BOLB   C3B21347  25.960  18.760  13.350
  890BOLB   C4B21348  26.290  18.470  13.400
  890BOLB   NC221349  27.640  19.400  10.910
  890BOLB   PO221350  27.900  19.710  10.580
  890BOLB   GL321351  27.440  19.750  10.600
  890BOLB   GL421352  27.230  19.950  10.440
  890BOLB   C1C21353  26.980  19.560  10.700
  890BOLB   C2C21354  26.570  19.540  10.940
  890BOLB   C3C21355  26.480  19.700  11.400
  890BOLB   C4C21356  26.180  19.500  11.760
  890BOLB   C1D21357  26.800  19.930  10.440
  890BOLB   C2D21358  26.430  19.970  10.300
  890BOLB   C3D21359  26.080  20.150  10.050
  890BOLB   C4D21360  25.610  20.000  10.110
  891BOLB   NC121361  16.920  25.200  15.170
  891BOLB   PO121362  16.920  25.240  14.860
  891BOLB   GL121363  16.780  25.570  14.700
  891BOLB   GL221364  16.490  25.700  14.590
  891BOLB   C1A21365  16.950  26.000  14.930
  891BOLB   C2A21366  17.140  26.360  15.190
  891BOLB   C3A21367  16.930  26.570  15.350
  891BOLB   C4A21368  16.850  26.860  15.730
  891BOLB   C1B21369  16.650  26.070  14.530
  891BOLB   C2B21370  16.700  26.440  14.680
  891BOLB   C3B21371  16.720  26.780  14.870
  891BOLB   C4B21372  16.920  27.070  15.080
  891BOLB   NC221373  18.580  28.600  16.230
  891BOLB   PO221374  18.160  28.660  16.310
  891BOLB   GL321375  17.910  28.390  16.210
  891BOLB   GL421376  18.010  28.440  15.910
  891BOLB   C1C21377  17.780  27.990  16.160
  891BOLB   C2C21378  17.560  27.660  16.280
  891BOLB   C3C21379  17.150  27.500  16.220
  891BOLB   C4C21380  16.870  27.110  16.060
  891BOLB   C1D21381  17.690  28.200  15.660
  891BOLB   C2D21382  17.670  27.800  15.460
  891BOLB   C3D21383  17.450  27.400  15.350
  891BOLB   C4D21384  17.280  27.040  15.510
  892BOLB   NC121385   7.400  21.350  25.510
  892BOLB   PO121386   6.990  21.330  25.430
  892BOLB   GL121387   7.200  20.990  25.240
  892BOLB   GL221388   7.580  20.890  25.250
  892BOLB   C1A21389   7.250  20.640  24.830
  892BOLB   C2A21390   7.490  20.210  24.820
  892BOLB   C3A21391   7.500  19.860  24.420
  892BOLB   C4A21392   7.670  19.540  24.160
  892BOLB   C1B21393   7.770  20.490  25.130
  892BOLB   C2B21394   7.970  20.320  24.770
  892BOLB   C3B21395   7.960  20.020  24.470
  892BOLB   C4B21396   7.850  19.990  23.990
  892BOLB   NC221397   7.800  19.820  26.540
  892BOLB   PO221398   7.610  19.800  26.170
  892BOLB   GL321399   7.710  19.640  25.730
  892BOLB   GL421400   7.570  19.910  25.540
  892BOLB   C1C21401   7.620  19.510  25.280
  892BOLB   C2C21402   7.610  19.080  25.110
  892BOLB   C3C21403   7.800  19.000  24.720
  892BOLB   C4C21404   7.940  19.140  24.210
  892BOLB   C1D21405   7.820  19.910  25.050
  892BOLB   C2D21406   8.090  19.800  24.890
  892BOLB   C3D21407   8.420  19.870  24.710
  892BOLB   C4D21408   8.720  19.990  24.360
  893BOLB   NC121409  21.350  16.050   5.700
  893BOLB   PO121410  21.180  15.570   5.530
  893BOLB   GL121411  21.180  15.360   5.120
  893BOLB   GL221412  20.940  15.550   4.980
  893BOLB   C1A21413  21.590  15.540   4.850
  893BOLB   C2A21414  21.900  15.720   4.480
  893BOLB   C3A21415  21.930  15.980   4.100
  893BOLB   C4A21416  22.250  16.330   4.150
  893BOLB   C1B21417  21.070  15.770   4.750
  893BOLB   C2B21418  21.230  15.850   4.340
  893BOLB   C3B21419  21.510  15.760   3.960
  893BOLB   C4B21420  21.330  15.970   3.520
  893BOLB   NC221421  24.210  15.870   2.760
  893BOLB   PO221422  23.970  16.170   2.510
  893BOLB   GL321423  23.630  16.400   2.720
  893BOLB   GL421424  23.420  16.180   2.600
  893BOLB   C1C21425  23.450  16.420   3.130
  893BOLB   C2C21426  23.160  16.590   3.380
  893BOLB   C3C21427  22.760  16.480   3.580
  893BOLB   C4C21428  22.600  16.370   3.980
  893BOLB   C1D21429  23.100  16.350   2.720
  893BOLB   C2D21430  22.840  16.240   3.060
  893BOLB   C3D21431  22.560  16.030   3.330
  893BOLB   C4D21432  22.280  16.030   3.710
  894BOLB   NC121433  18.170  15.810  20.340
  894BOLB   PO121434  17.950  15.510  20.350
  894BOLB   GL121435  18.370  15.350  20.540
  894BOLB   GL221436  18.500  15.100  20.390
  894BOLB   C1A21437  18.460  15.030  20.860
  894BOLB   C2A21438  18.470  14.880  21.190
  894BOLB   C3A21439  18.470  14.750  21.700
  894BOLB   C4A21440  18.490  14.620  22.170
  894BOLB   C1B21441  18.950  15.020  20.650
  894BOLB   C2B21442  19.390  14.740  20.900
  894BOLB   C3B21443  19.440  14.290  20.710
  894BOLB   C4B21444  19.560  13.880  20.540
  894BOLB   NC221445  20.330  13.990  23.360
  894BOLB   PO221446  20.260  14.170  23.730
  894BOLB   GL321447  19.900  14.470  23.610
  894BOLB   GL421448  19.820  14.880  23.540
  894BOLB   C1C21449  19.540  14.520  23.320
  894BOLB   C2C21450  19.200  14.750  23.170
  894BOLB   C3C21451  18.830  14.810  22.910
  894BOLB   C4C21452  18.510  14.900  22.520
  894BOLB   C1D21453  19.570  15.080  23.220
  894BOLB   C2D21454  19.230  15.180  22.880
  894BOLB   C3D21455  19.120  15.270  22.510
  894BOLB   C4D21456  19.030  15.430  22.180
  895BOLB   NC121457  19.800  24.420  11.850
  895BOLB   PO121458  19.810  24.830  11.620
  895BOLB   GL121459  20.070  25.040  11.600
  895BOLB   GL221460  20.140  25.160  11.930
  895BOLB   C1A21461  20.400  25.180  11.290
  895BOLB   C2A21462  20.680  25.590  11.390
  895BOLB   C3A21463  20.510  26.010  11.240
  895BOLB   C4A21464  20.520  26.440  11.030
  895BOLB   C1B21465  20.340  25.520  11.790
  895BOLB   C2B21466  20.410  25.970  11.760
  895BOLB   C3B21467  20.340  26.480  11.610
  895BOLB   C4B21468  20.120  26.820  11.830
  895BOLB   NC221469  20.370  28.550   9.970
  895BOLB   PO221470  20.060  28.510   9.680
  895BOLB   GL321471  19.990  28.140   9.940
  895BOLB   GL421472  19.690  28.310  10.010
  895BOLB   C1C21473  20.120  27.840  10.320
  895BOLB   C2C21474  20.200  27.420  10.360
  895BOLB   C3C21475  20.480  27.160  10.570
  895BOLB   C4C21476  20.430  26.790  10.810
  895BOLB   C1D21477  19.630  28.030  10.290
  895BOLB   C2D21478  19.710  27.490  10.300
  895BOLB   C3D21479  19.900  27.070  10.380
  895BOLB   C4D21480  19.970  26.710  10.550
  896BOLB   NC121481  17.890  14.970  20.130
  896BOLB   PO121482  18.250  14.850  20.030
  896BOLB   GL121483  18.470  14.490  20.170
  896BOLB   GL221484  18.750  14.460  20.160
  896BOLB   C1A21485  18.540  14.140  20.510
  896BOLB   C2A21486  18.240  13.940  20.820
  896BOLB   C3A21487  18.240  13.910  21.180
  896BOLB   C4A21488  18.410  13.640  21.330
  896BOLB   C1B21489  18.830  14.570  20.570
  896BOLB   C2B21490  18.980  14.400  20.850
  896BOLB   C3B21491  19.310  14.270  21.190
  896BOLB   C4B21492  19.260  14.200  21.540
  896BOLB   NC221493  19.870  12.220  23.000
  896BOLB   PO221494  19.820  12.390  22.550
  896BOLB   GL321495  19.430  12.610  22.430
  896BOLB   GL421496  19.520  12.700  22.130
  896BOLB   C1C21497  18.940  12.720  22.230
  896BOLB   C2C21498  18.770  13.000  22.000
  896BOLB   C3C21499  18.750  13.150  21.640
  896BOLB   C4C21500  18.610  13.440  21.550
  896BOLB   C1D21501  19.370  13.050  21.970
  896BOLB   C2D21502  19.180  13.390  21.770
  896BOLB   C3D21503  19.200  13.660  21.350
  896BOLB   C4D21504  19.360  13.530  21.060
  897BOLB   NC121505  19.550  10.620   7.200
  897BOLB   PO121506  19.700  10.580   7.570
  897BOLB   GL121507  19.940  10.240   7.460
  897BOLB   GL221508  20.200  10.350   7.580
  897BOLB   C1A21509  19.890   9.870   7.190
  897BOLB   C2A21510  20.140   9.650   6.900
  897BOLB   C3A21511  20.270   9.190   6.600
  897BOLB   C4A21512  20.640   9.140   6.430
  897BOLB   C1B21513  20.240   9.890   7.560
  897BOLB   C2B21514  20.350   9.500   7.420
  897BOLB   C3B21515  20.550   9.060   7.520
  897BOLB   C4B21516  20.630   8.710   7.490
  897BOLB   NC221517  21.960   8.130   5.920
  897BOLB   PO221518  21.950   7.810   6.180
  897BOLB   GL321519  21.880   8.130   6.450
  897BOLB   GL421520  22.150   8.380   6.280
  897BOLB   C1C21521  21.630   8.470   6.490
  897BOLB   C2C21522  21.580   8.830   6.680
  897BOLB   C3C21523  21.330   9.080   6.620
  897BOLB   C4C21524  20.980   9.200   6.630
  897BOLB   C1D21525  22.060   8.750   6.400
  897BOLB   C2D21526  22.010   8.840   6.880
  897BOLB   C3D21527  22.050   8.650   7.290
  897BOLB   C4D21528  22.110   8.220   7.390
  898BOLB   NC121529  19.560  23.960  10.920
  898BOLB   PO121530  19.500  23.930  10.450
  898BOLB   GL121531  19.630  24.060  10.040
  898BOLB   GL221532  19.440  24.360   9.990
  898BOLB   C1A21533  19.870  24.310   9.550
  898BOLB   C2A21534  19.980  24.800   9.300
  898BOLB   C3A21535  20.190  25.080   9.600
  898BOLB   C4A21536  20.230  25.440   9.750
  898BOLB   C1B21537  19.690  24.610   9.910
  898BOLB   C2B21538  19.840  24.940   9.910
  898BOLB   C3B21539  19.840  25.230  10.110
  898BOLB   C4B21540  19.830  25.620   9.990
  898BOLB   NC221541  21.110  28.000   8.790
  898BOLB   PO221542  20.760  27.660   8.890
  898BOLB   GL321543  20.600  27.330   8.780
  898BOLB   GL421544  20.370  27.380   9.080
  898BOLB   C1C21545  20.580  26.920   9.150
  898BOLB   C2C21546  20.400  26.560   9.210
  898BOLB   C3C21547  20.450  26.140   9.420
  898BOLB   C4C21548  20.260  25.870   9.730
  898BOLB   C1D21549  20.430  27.230   9.470
  898BOLB   C2D21550  20.180  27.260   9.860
  898BOLB   C3D21551  19.800  27.160   9.870
  898BOLB   C4D21552  19.380  27.200  10.070
  899BOLB   NC121553  11.120  18.230   6.600
  899BOLB   PO121554  11.360  18.310   6.210
  899BOLB   GL121555  10.940  18.130   6.010
  899BOLB   GL221556  10.750  17.970   6.080
  899BOLB   C1A21557  10.670  18.330   5.780
  899BOLB   C2A21558  10.260  18.410   5.720
  899BOLB   C3A21559  10.220  18.830   5.790
  899BOLB   C4A21560   9.970  19.170   5.650
  899BOLB   C1B21561  10.390  18.130   6.120
  899BOLB   C2B21562  10.060  18.470   6.180
  899BOLB   C3B21563   9.790  18.760   6.070
  899BOLB   C4B21564   9.400  18.990   5.960
  899BOLB   NC221565   7.840  19.840   4.260
  899BOLB   PO221566   8.340  19.630   4.220
  899BOLB   GL321567   8.660  19.740   4.440
  899BOLB   GL421568   8.710  19.910   4.630
  899BOLB   C1C21569   9.110  19.580   4.410
  899BOLB   C2C21570   9.490  19.490   4.630
  899BOLB   C3C21571   9.760  19.450   4.900
  899BOLB   C4C21572   9.750  19.290   5.260
  899BOLB   C1D21573   8.540  19.620   4.930
  899BOLB   C2D21574   8.960  19.580   5.000
  899BOLB   C3D21575   9.280  19.490   5.230
  899BOLB   C4D21576   9.530  19.730   5.390
  900BOLB   NC121577  24.020  16.130  13.950
  900BOLB   PO121578  24.200  16.040  13.530
  900BOLB   GL121579  24.510  15.870  13.740
  900BOLB   GL221580  24.780  16.090  13.830
  900BOLB   C1A21581  24.630  15.680  14.130
  900BOLB   C2A21582  24.670  15.680  14.530
  900BOLB   C3A21583  24.700  15.640  15.010
  900BOLB   C4A21584  25.060  15.680  15.280
  900BOLB   C1B21585  25.020  16.130  14.080
  900BOLB   C2B21586  25.180  15.800  14.340
  900BOLB   C3B21587  25.150  15.620  14.720
  900BOLB   C4B21588  25.050  15.280  14.920
  900BOLB   NC221589  27.000  14.890  16.440
  900BOLB   PO221590  27.170  15.350  16.230
  900BOLB   GL321591  26.750  15.130  16.080
  900BOLB   GL421592  26.890  14.880  15.930
  900BOLB   C1C21593  26.270  15.280  15.920
  900BOLB   C2C21594  26.000  15.440  15.630
  900BOLB   C3C21595  25.830  15.700  15.300
  900BOLB   C4C21596  25.460  15.590  15.290
  900BOLB   C1D21597  26.970  15.160  15.610
  900BOLB   C2D21598  26.700  14.990  15.280
  900BOLB   C3D21599  26.210  14.810  15.130
  900BOLB   C4D21600  25.810  14.750  14.860
  901BOLB   NC121601  16.410   9.170  10.740
  901BOLB   PO121602  16.800   9.100  11.040
  901BOLB   GL121603  17.020   8.730  11.000
  901BOLB   GL221604  16.880   8.430  11.060
  901BOLB   C1A21605  17.340   8.370  10.990
  901BOLB   C2A21606  17.300   7.960  10.900
  901BOLB   C3A21607  17.510   7.600  10.950
  901BOLB   C4A21608  17.830   7.260  11.050
  901BOLB   C1B21609  16.780   8.020  11.080
  901BOLB   C2B21610  16.850   7.620  10.790
  901BOLB   C3B21611  16.970   7.190  10.660
  901BOLB   C4B21612  17.010   6.760  10.660
  901BOLB   NC221613  18.020   5.040  10.430
  901BOLB   PO221614  17.900   4.940  10.840
  901BOLB   GL321615  18.090   5.260  10.980
  901BOLB   GL421616  18.100   5.470  10.760
  901BOLB   C1C21617  18.020   5.590  11.270
  901BOLB   C2C21618  17.890   6.020  11.270
  901BOLB   C3C21619  17.840   6.470  11.180
  901BOLB   C4C21620  17.920   6.890  11.360
  901BOLB   C1D21621  17.830   5.750  10.780
  901BOLB   C2D21622  17.770   6.220  10.730
  901BOLB   C3D21623  17.700   6.490  10.480
  901BOLB   C4D21624  17.410   6.930  10.460
  902BOLB   NC121625  21.600  22.380  21.920
  902BOLB   PO121626  21.430  22.710  21.760
  902BOLB   GL121627  21.210  22.660  21.340
  902BOLB   GL221628  21.260  22.300  21.340
  902BOLB   C1A21629  20.900  22.630  21.030
  902BOLB   C2A21630  20.650  22.130  21.150
  902BOLB   C3A21631  20.320  21.820  21.120
  902BOLB   C4A21632  20.040  21.390  21.130
  902BOLB   C1B21633  21.100  21.880  21.150
  902BOLB   C2B21634  21.040  21.540  20.940
  902BOLB   C3B21635  20.630  21.430  20.820
  902BOLB   C4B21636  20.300  21.350  20.620
  902BOLB   NC221637  19.980  21.140  23.440
  902BOLB   PO221638  20.190  20.750  23.420
  902BOLB   GL321639  20.210  20.760  22.900
  902BOLB   GL421640  20.030  21.020  22.940
  902BOLB   C1C21641  20.250  20.740  22.440
  902BOLB   C2C21642  20.240  20.860  21.970
  902BOLB   C3C21643  19.780  20.970  21.690
  902BOLB   C4C21644  19.780  21.120  21.400
  902BOLB   C1D21645  19.730  20.770  22.680
  902BOLB   C2D21646  19.560  20.590  22.410
  902BOLB   C3D21647  19.850  20.470  21.940
  902BOLB   C4D21648  19.820  20.420  21.550
  903BOLB   NC121649  24.410  16.320   9.780
  903BOLB   PO121650  24.230  16.620   9.790
  903BOLB   GL121651  24.570  16.850   9.770
  903BOLB   GL221652  24.840  16.660   9.750
  903BOLB   C1A21653  24.930  17.020   9.420
  903BOLB   C2A21654  24.980  17.220   9.000
  903BOLB   C3A21655  25.170  17.500   8.800
  903BOLB   C4A21656  25.510  17.820   8.640
  903BOLB   C1B21657  25.170  16.300   9.870
  903BOLB   C2B21658  25.530  16.100   9.580
  903BOLB   C3B21659  26.030  16.170   9.640
  903BOLB   C4B21660  26.360  16.070   9.960
  903BOLB   NC221661  28.090  17.950   8.540
  903BOLB   PO221662  27.730  18.150   8.390
  903BOLB   GL321663  27.520  17.700   8.550
  903BOLB   GL421664  27.430  17.690   8.250
  903BOLB   C1C21665  27.150  17.660   8.800
  903BOLB   C2C21666  26.660  17.690   8.970
  903BOLB   C3C21667  26.240  17.850   9.040
  903BOLB   C4C21668  25.940  17.840   8.660
  903BOLB   C1D21669  27.020  17.860   8.130
  903BOLB   C2D21670  26.650  17.940   8.330
  903BOLB   C3D21671  26.500  18.100   8.650
  903BOLB   C4D21672  26.920  18.240   8.850
  904BOLB   NC121673  16.250  24.710  10.350
  904BOLB   PO121674  15.890  24.510  10.300
  904BOLB   GL121675  15.860  24.980  10.460
  904BOLB   GL221676  16.150  25.220  10.460
  904BOLB   C1A21677  15.810  25.370  10.150
  904BOLB   C2A21678  15.930  25.730   9.880
  904BOLB   C3A21679  16.110  26.060   9.700
  904BOLB   C4A21680  16.320  26.390   9.500
  904BOLB   C1B21681  16.250  25.590  10.290
  904BOLB   C2B21682  16.290  26.080  10.140
  904BOLB   C3B21683  16.620  26.380  10.030
  904BOLB   C4B21684  16.930  26.570  10.040
  904BOLB   NC221685  16.050  28.240   7.670
  904BOLB   PO221686  16.400  28.020   7.580
  904BOLB   GL321687  16.470  27.590   7.800
  904BOLB   GL421688  16.270  27.840   8.030
  904BOLB   C1C21689  16.550  27.250   8.040
  904BOLB   C2C21690  16.550  26.970   8.480
  904BOLB   C3C21691  16.750  26.610   8.790
  904BOLB   C4C21692  16.540  26.500   9.190
  904BOLB   C1D21693  16.180  27.420   8.310
  904BOLB   C2D21694  15.970  27.140   8.510
  904BOLB   C3D21695  15.720  26.720   8.650
  904BOLB   C4D21696  15.500  26.330   8.670
  905BOLB   NC121697   9.880  21.540  11.700
  905BOLB   PO121698   9.730  21.910  11.990
  905BOLB   GL121699   9.350  21.860  12.050
  905BOLB   GL221700   9.290  22.160  12.060
  905BOLB   C1A21701   8.850  21.980  11.980
  905BOLB   C2A21702   8.540  22.250  12.050
  905BOLB   C3A21703   8.280  22.590  12.180
  905BOLB   C4A21704   8.180  22.920  12.470
  905BOLB   C1B21705   9.010  22.530  12.110
  905BOLB   C2B21706   8.750  22.950  12.110
  905BOLB   C3B21707   8.390  23.300  12.210
  905BOLB   C4B21708   8.540  23.760  12.220
  905BOLB   NC221709   6.320  24.470  12.830
  905BOLB   PO221710   6.570  24.270  13.140
  905BOLB   GL321711   7.020  24.380  13.150
  905BOLB   GL421712   7.190  24.660  13.130
  905BOLB   C1C21713   7.460  24.240  13.190
  905BOLB   C2C21714   7.560  23.840  13.110
  905BOLB   C3C21715   7.700  23.370  13.000
  905BOLB   C4C21716   8.010  23.020  12.760
  905BOLB   C1D21717   7.700  24.640  13.040
  905BOLB   C2D21718   8.060  24.910  12.940
  905BOLB   C3D21719   8.440  24.910  13.000
  905BOLB   C4D21720   8.800  24.970  12.740
  906BOLB   NC121721  20.950  17.160  17.860
  906BOLB   PO121722  21.000  17.500  18.080
  906BOLB   GL121723  21.360  17.620  18.380
  906BOLB   GL221724  21.650  17.800  18.160
  906BOLB   C1A21725  21.710  17.620  18.680
  906BOLB   C2A21726  22.010  17.730  18.950
  906BOLB   C3A21727  22.070  17.440  19.290
  906BOLB   C4A21728  22.320  17.160  19.460
  906BOLB   C1B21729  21.820  18.080  18.590
  906BOLB   C2B21730  22.180  18.150  18.810
  906BOLB   C3B21731  22.440  18.200  19.170
  906BOLB   C4B21732  22.860  18.090  19.500
  906BOLB   NC221733  24.900  16.420  20.260
  906BOLB   PO221734  24.850  16.860  20.300
  906BOLB   GL321735  24.500  16.690  20.040
  906BOLB   GL421736  24.640  16.950  19.770
  906BOLB   C1C21737  24.010  16.680  20.000
  906BOLB   C2C21738  23.590  16.760  19.930
  906BOLB   C3C21739  23.220  16.810  19.680
  906BOLB   C4C21740  22.870  17.090  19.470
  906BOLB   C1D21741  24.400  16.710  19.560
  906BOLB   C2D21742  23.970  16.720  19.520
  906BOLB   C3D21743  23.730  17.130  19.550
  906BOLB   C4D21744  23.710  17.510  19.670
  907BOLB   NC121745  17.970  21.580   6.770
  907BOLB   PO121746  17.610  21.880   6.670
  907BOLB   GL121747  17.450  22.100   6.350
  907BOLB   GL221748  17.320  21.830   6.050
  907BOLB   C1A21749  17.690  22.270   6.030
  907BOLB   C2A21750  17.660  22.510   5.630
  907BOLB   C3A21751  17.710  22.920   5.400
  907BOLB   C4A21752  17.400  23.200   5.360
  907BOLB   C1B21753  17.320  22.010   5.580
  907BOLB   C2B21754  17.240  22.190   5.180
  907BOLB   C3B21755  17.100  22.340   4.750
  907BOLB   C4B21756  17.250  22.350   4.290
  907BOLB   NC221757  16.300  24.830   3.560
  907BOLB   PO221758  16.590  24.590   3.630
  907BOLB   GL321759  16.870  24.370   3.700
  907BOLB   GL421760  16.950  24.320   3.980
  907BOLB   C1C21761  16.930  23.870   3.820
  907BOLB   C2C21762  16.850  23.630   4.200
  907BOLB   C3C21763  17.070  23.380   4.520
  907BOLB   C4C21764  17.200  23.350   4.950
  907BOLB   C1D21765  17.180  24.010   4.300
  907BOLB   C2D21766  17.380  23.780   4.660
  907BOLB   C3D21767  17.640  23.490   4.800
  907BOLB   C4D21768  17.910  23.220   5.040
  908BOLB   NC121769  21.640  11.970   9.090
  908BOLB   PO121770  21.530  11.920   8.660
  908BOLB   GL121771  21.760  11.590   8.410
  908BOLB   GL221772  21.630  11.460   8.060
  908BOLB   C1A21773  22.180  11.310   8.240
  908BOLB   C2A21774  22.400  11.010   8.120
  908BOLB   C3A21775  22.760  10.720   8.230
  908BOLB   C4A21776  23.210  10.550   8.460
  908BOLB   C1B21777  21.760  11.120   7.840
  908BOLB   C2B21778  22.010  10.670   7.890
  908BOLB   C3B21779  22.510  10.630   7.800
  908BOLB   C4B21780  22.800  10.380   7.830
  908BOLB   NC221781  25.160   9.660   8.350
  908BOLB   PO221782  24.860   9.480   8.060
  908BOLB   GL321783  24.660   9.620   8.370
  908BOLB   GL421784  24.280   9.460   8.500
  908BOLB   C1C21785  24.460   9.890   8.660
  908BOLB   C2C21786  24.120  10.120   8.740
  908BOLB   C3C21787  23.760  10.420   9.000
  908BOLB   C4C21788  23.310  10.490   8.920
  908BOLB   C1D21789  23.950   9.450   8.780
  908BOLB   C2D21790  23.550   9.380   8.970
  908BOLB   C3D21791  23.120   9.420   9.070
  908BOLB   C4D21792  22.870   9.580   9.430
  909BOLB   NC121793  15.910  25.460  12.070
  909BOLB   PO121794  16.270  25.580  12.230
  909BOLB   GL121795  16.130  25.960  12.280
  909BOLB   GL221796  15.890  26.000  12.050
  909BOLB   C1A21797  16.210  26.380  12.170
  909BOLB   C2A21798  16.280  26.840  12.190
  909BOLB   C3A21799  16.240  27.260  12.310
  909BOLB   C4A21800  16.580  27.460  12.390
  909BOLB   C1B21801  15.740  26.440  11.930
  909BOLB   C2B21802  15.430  26.570  11.660
  909BOLB   C3B21803  14.950  26.510  11.770
  909BOLB   C4B21804  14.620  26.310  11.740
  909BOLB   NC221805  17.150  29.470  11.280
  909BOLB   PO221806  16.860  29.480  11.620
  909BOLB   GL321807  16.990  29.090  11.620
  909BOLB   GL421808  16.810  29.060  11.310
  909BOLB   C1C21809  17.190  28.820  11.770
  909BOLB   C2C21810  17.380  28.500  12.030
  909BOLB   C3C21811  17.220  28.130  12.220
  909BOLB   C4C21812  16.920  27.770  12.290
  909BOLB   C1D21813  17.020  28.680  11.290
  909BOLB   C2D21814  17.000  28.190  11.190
  909BOLB   C3D21815  16.970  27.710  11.430
  909BOLB   C4D21816  16.950  27.270  11.480
  910BOLB   NC121817   3.410   8.340  14.530
  910BOLB   PO121818   3.760   8.460  14.260
  910BOLB   GL121819   4.070   8.350  14.240
  910BOLB   GL221820   4.260   8.590  14.040
  910BOLB   C1A21821   4.500   8.190  14.170
  910BOLB   C2A21822   4.810   8.090  13.930
  910BOLB   C3A21823   4.880   8.150  13.520
  910BOLB   C4A21824   4.950   8.460  13.230
  910BOLB   C1B21825   4.180   9.040  14.140
  910BOLB   C2B21826   4.270   9.280  14.440
  910BOLB   C3B21827   4.120   9.640  14.660
  910BOLB   C4B21828   4.020  10.020  14.470
  910BOLB   NC221829   3.770   8.780  11.570
  910BOLB   PO221830   4.050   9.140  11.460
  910BOLB   GL321831   4.200   9.450  11.850
  910BOLB   GL421832   4.180   9.450  12.240
  910BOLB   C1C21833   4.620   9.440  12.100
  910BOLB   C2C21834   4.730   9.360  12.450
  910BOLB   C3C21835   4.710   9.160  12.900
  910BOLB   C4C21836   5.060   8.790  13.090
  910BOLB   C1D21837   4.300   9.560  12.650
  910BOLB   C2D21838   4.380   9.990  12.890
  910BOLB   C3D21839   4.690  10.310  12.630
  910BOLB   C4D21840   4.910  10.600  12.540
  911BOLB   NC121841   2.920  18.550  21.210
  911BOLB   PO121842   2.630  18.740  20.880
  911BOLB   GL121843   2.970  18.700  20.600
  911BOLB   GL221844   2.940  18.410  20.730
  911BOLB   C1A21845   3.300  18.750  20.590
  911BOLB   C2A21846   3.630  18.950  20.670
  911BOLB   C3A21847   4.050  18.870  20.390
  911BOLB   C4A21848   4.400  18.760  20.510
  911BOLB   C1B21849   3.270  18.280  20.520
  911BOLB   C2B21850   3.450  18.280  20.070
  911BOLB   C3B21851   3.570  18.130  19.710
  911BOLB   C4B21852   3.700  18.040  19.270
  911BOLB   NC221853   4.130  17.100  22.400
  911BOLB   PO221854   3.970  17.520  22.490
  911BOLB   GL321855   4.290  17.520  22.100
  911BOLB   GL421856   4.440  17.160  22.000
  911BOLB   C1C21857   4.300  17.870  21.840
  911BOLB   C2C21858   4.300  18.110  21.500
  911BOLB   C3C21859   4.480  18.340  21.120
  911BOLB   C4C21860   4.610  18.430  20.780
  911BOLB   C1D21861   4.580  17.460  21.710
  911BOLB   C2D21862   4.830  17.730  21.410
  911BOLB   C3D21863   4.970  18.220  21.250
  911BOLB   C4D21864   5.120  18.540  20.990
  912BOLB   NC121865   9.310   9.320  24.260
  912BOLB   PO121866   9.780   9.480  24.590
  912BOLB   GL121867   9.820   9.670  24.210
  912BOLB   GL221868   9.940   9.920  24.390
  912BOLB   C1A21869  10.210   9.590  23.760
  912BOLB   C2A21870  10.550   9.420  23.730
  912BOLB   C3A21871  11.020   9.520  23.600
  912BOLB   C4A21872  11.410   9.780  23.480
  912BOLB   C1B21873  10.210  10.030  24.050
  912BOLB   C2B21874  10.490   9.980  23.630
  912BOLB   C3B21875  10.740   9.870  23.290
  912BOLB   C4B21876  10.820   9.790  22.880
  912BOLB   NC221877  10.320   9.990  25.370
  912BOLB   PO221878  10.100  10.300  25.080
  912BOLB   GL321879  10.290  10.460  24.730
  912BOLB   GL421880  10.420  10.740  24.870
  912BOLB   C1C21881  10.640  10.630  24.410
  912BOLB   C2C21882  10.970  10.730  24.140
  912BOLB   C3C21883  11.240  10.460  23.900
  912BOLB   C4C21884  11.390  10.180  23.630
  912BOLB   C1D21885  10.280  10.940  24.610
  912BOLB   C2D21886  10.460  11.190  24.330
  912BOLB   C3D21887  10.900  11.150  24.440
  912BOLB   C4D21888  11.290  11.290  24.480
  913BOLB   NC121889  22.750  10.380  20.160
  913BOLB   PO121890  22.420  10.120  19.940
  913BOLB   GL121891  22.320  10.320  19.720
  913BOLB   GL221892  22.390  10.260  19.280
  913BOLB   C1A21893  22.160  10.650  19.510
  913BOLB   C2A21894  21.960  10.930  19.180
  913BOLB   C3A21895  21.720  11.220  19.030
  913BOLB   C4A21896  21.420  11.340  18.770
  913BOLB   C1B21897  22.350  10.570  18.930
  913BOLB   C2B21898  22.400  10.850  18.630
  913BOLB   C3B21899  22.160  10.860  18.250
  913BOLB   C4B21900  21.850  11.170  18.010
  913BOLB   NC221901  20.160  13.060  17.170
  913BOLB   PO221902  20.030  12.770  16.830
  913BOLB   GL321903  20.220  12.570  17.200
  913BOLB   GL421904  20.070  12.610  17.480
  913BOLB   C1C21905  20.340  12.190  17.510
  913BOLB   C2C21906  20.680  11.930  17.840
  913BOLB   C3C21907  21.000  11.710  18.080
  913BOLB   C4C21908  21.210  11.660  18.500
  913BOLB   C1D21909  20.220  12.500  17.860
  913BOLB   C2D21910  20.430  12.190  18.220
  913BOLB   C3D21911  20.630  11.900  18.500
  913BOLB   C4D21912  20.780  11.500  18.600
  914BOLB   NC121913  13.600  14.180   0.280
  914BOLB   PO121914  13.630  13.850   0.580
  914BOLB   GL121915  13.420  13.830   1.020
  914BOLB   GL221916  13.180  13.610   1.090
  914BOLB   C1A21917  13.380  13.990   1.430
  914BOLB   C2A21918  13.410  14.000   1.920
  914BOLB   C3A21919  13.540  13.700   2.210
  914BOLB   C4A21920  13.890  13.600   2.430
  914BOLB   C1B21921  13.000  14.150   1.080
  914BOLB   C2B21922  12.900  14.470   1.320
  914BOLB   C3B21923  12.830  14.560   1.800
  914BOLB   C4B21924  12.780  14.740   2.170
  914BOLB   NC221925  14.080  13.580   4.700
  914BOLB   PO221926  13.660  13.540   4.840
  914BOLB   GL321927  13.540  13.390   4.410
  914BOLB   GL421928  13.350  13.580   4.270
  914BOLB   C1C21929  13.740  13.240   4.040
  914BOLB   C2C21930  13.760  13.280   3.680
  914BOLB   C3C21931  13.900  13.490   3.330
  914BOLB   C4C21932  14.030  13.450   2.850
  914BOLB   C1D21933  13.210  13.300   4.010
  914BOLB   C2D21934  13.320  13.040   3.630
  914BOLB   C3D21935  13.380  12.950   3.170
  914BOLB   C4D21936  13.650  12.800   2.820
  915BOLB   NC121937  22.720   8.900  18.470
  915BOLB   PO121938  22.930   9.300  18.460
  915BOLB   GL121939  22.670   9.740  18.480
  915BOLB   GL221940  22.330   9.790  18.290
  915BOLB   C1A21941  22.380  10.060  18.660
  915BOLB   C2A21942  22.280  10.380  18.400
  915BOLB   C3A21943  21.980  10.310  18.220
  915BOLB   C4A21944  21.730  10.650  18.120
  915BOLB   C1B21945  22.270  10.080  17.910
  915BOLB   C2B21946  22.160  10.500  17.790
  915BOLB   C3B21947  21.840  10.810  17.610
  915BOLB   C4B21948  21.550  11.050  17.550
  915BOLB   NC221949  19.710  12.420  16.980
  915BOLB   PO221950  19.830  11.920  16.770
  915BOLB   GL321951  20.150  11.850  17.050
  915BOLB   GL421952  20.450  11.940  16.890
  915BOLB   C1C21953  20.570  11.760  17.320
  915BOLB   C2C21954  20.940  11.540  17.570
  915BOLB   C3C21955  21.000  11.140  17.720
  915BOLB   C4C21956  21.330  10.810  17.900
  915BOLB   C1D21957  20.720  11.640  16.750
  915BOLB   C2D21958  21.030  11.290  16.730
  915BOLB   C3D21959  21.450  11.080  16.520
  915BOLB   C4D21960  21.660  10.790  16.680
  916BOLB   NC121961  22.060  10.850  20.690
  916BOLB   PO121962  22.280  11.150  20.930
  916BOLB   GL121963  22.020  11.370  20.500
  916BOLB   GL221964  22.100  11.380  20.100
  916BOLB   C1A21965  21.740  11.750  20.240
  916BOLB   C2A21966  21.450  11.770  19.900
  916BOLB   C3A21967  21.140  11.760  19.560
  916BOLB   C4A21968  20.780  11.510  19.500
  916BOLB   C1B21969  21.900  11.630  19.740
  916BOLB   C2B21970  21.710  11.680  19.340
  916BOLB   C3B21971  21.430  11.950  19.090
  916BOLB   C4B21972  21.290  12.330  18.890
  916BOLB   NC221973  21.570   9.850  20.240
  916BOLB   PO221974  21.470   9.980  19.710
  916BOLB   GL321975  21.550  10.430  19.550
  916BOLB   GL421976  21.880  10.230  19.470
  916BOLB   C1C21977  21.530  10.760  19.270
  916BOLB   C2C21978  21.280  10.880  18.990
  916BOLB   C3C21979  20.980  11.060  18.840
  916BOLB   C4C21980  20.830  11.350  19.120
  916BOLB   C1D21981  21.840  10.370  19.090
  916BOLB   C2D21982  21.480  10.420  18.800
  916BOLB   C3D21983  21.210  10.600  18.540
  916BOLB   C4D21984  20.900  10.540  18.290
  917BOLB   NC121985  13.560   9.520  13.780
  917BOLB   PO121986  13.440   9.160  13.680
  917BOLB   GL121987  13.410   8.700  13.720
  917BOLB   GL221988  13.390   8.630  13.370
  917BOLB   C1A21989  13.410   8.430  14.040
  917BOLB   C2A21990  13.460   7.960  14.020
  917BOLB   C3A21991  13.490   7.490  14.230
  917BOLB   C4A21992  13.170   7.160  14.060
  917BOLB   C1B21993  13.220   8.240  13.540
  917BOLB   C2B21994  13.050   7.800  13.820
  917BOLB   C3B21995  12.630   7.720  14.010
  917BOLB   C4B21996  12.210   7.720  14.120
  917BOLB   NC221997  12.630   5.210  14.710
  917BOLB   PO221998  12.180   5.370  14.600
  917BOLB   GL321999  12.270   5.790  14.420
  917BOLB   GL422000  11.920   5.740  14.270
  917BOLB   C1C22001  12.670   5.860  14.500
  917BOLB   C2C22002  13.000   6.040  14.210
  917BOLB   C3C22003  13.270   6.310  14.070
  917BOLB   C4C22004  13.240   6.740  14.060
  917BOLB   C1D22005  12.030   6.080  14.150
  917BOLB   C2D22006  12.180   6.310  14.300
  917BOLB   C3D22007  12.260   6.730  14.290
  917BOLB   C4D22008  12.300   7.240  14.250
  918BOLB   NC122009   2.760   9.400  17.500
  918BOLB   PO122010   3.100   9.570  17.170
  918BOLB   GL122011   3.420   9.840  17.040
  918BOLB   GL222012   3.370  10.100  17.120
  918BOLB   C1A22013   3.390   9.960  16.520
  918BOLB   C2A22014   3.720  10.370  16.420
  918BOLB   C3A22015   3.800  10.680  16.700
  918BOLB   C4A22016   3.990  11.090  16.810
  918BOLB   C1B22017   3.710  10.230  16.950
  918BOLB   C2B22018   4.120  10.230  16.810
  918BOLB   C3B22019   4.490  10.290  16.590
  918BOLB   C4B22020   4.680  10.650  16.290
  918BOLB   NC222021   2.470  11.650  17.720
  918BOLB   PO222022   2.780  11.310  17.830
  918BOLB   GL322023   3.210  11.430  17.850
  918BOLB   GL422024   3.430  11.240  17.580
  918BOLB   C1C22025   3.570  11.620  17.920
  918BOLB   C2C22026   3.980  11.650  17.840
  918BOLB   C3C22027   4.070  11.500  17.460
  918BOLB   C4C22028   4.080  11.360  17.120
  918BOLB   C1D22029   3.520  11.340  17.160
  918BOLB   C2D22030   3.410  11.250  16.800
  918BOLB   C3D22031   3.370  10.900  16.600
  918BOLB   C4D22032   3.340  10.480  16.790
  919BOLB   NC122033   7.810   6.100  19.280
  919BOLB   PO122034   7.470   6.350  19.600
  919BOLB   GL122035   7.690   6.770  19.550
  919BOLB   GL222036   7.570   7.050  19.620
  919BOLB   C1A22037   7.940   6.850  19.110
  919BOLB   C2A22038   8.310   6.960  18.910
  919BOLB   C3A22039   8.750   6.850  18.820
  919BOLB   C4A22040   9.190   6.810  18.870
  919BOLB   C1B22041   7.770   7.280  19.290
  919BOLB   C2B22042   7.920   7.690  19.100
  919BOLB   C3B22043   7.810   8.210  19.060
  919BOLB   C4B22044   7.770   8.650  19.190
  919BOLB   NC222045  10.480   4.920  19.070
  919BOLB   PO222046  10.380   5.180  18.750
  919BOLB   GL322047  10.370   5.590  18.560
  919BOLB   GL422048  10.310   5.620  18.220
  919BOLB   C1C22049  10.290   6.020  18.580
  919BOLB   C2C22050  10.270   6.200  18.880
  919BOLB   C3C22051   9.970   6.530  18.950
  919BOLB   C4C22052   9.540   6.800  19.110
  919BOLB   C1D22053  10.340   6.060  18.070
  919BOLB   C2D22054  10.180   6.260  17.940
  919BOLB   C3D22055   9.990   6.450  17.680
  919BOLB   C4D22056   9.920   6.850  17.770
  920BOLB   NC122057  28.680  16.070  11.850
  920BOLB   PO122058  28.480  15.800  11.590
  920BOLB   GL122059  28.100  15.800  11.720
  920BOLB   GL222060  27.870  15.770  11.470
  920BOLB   C1A22061  27.700  15.960  11.920
  920BOLB   C2A22062  27.440  16.270  11.830
  920BOLB   C3A22063  27.140  16.160  11.470
  920BOLB   C4A22064  26.700  16.130  11.150
  920BOLB   C1B22065  27.440  15.740  11.530
  920BOLB   C2B22066  27.080  15.660  11.510
  920BOLB   C3B22067  26.680  15.740  11.520
  920BOLB   C4B22068  26.330  15.710  11.330
  920BOLB   NC222069  28.630  15.550   9.850
  920BOLB   PO222070  28.370  15.900   9.980
  920BOLB   GL322071  27.890  15.940  10.050
  920BOLB   GL422072  27.720  16.240  10.270
  920BOLB   C1C22073  27.450  15.920   9.840
  920BOLB   C2C22074  27.020  15.950  10.090
  920BOLB   C3C22075  26.670  16.240  10.390
  920BOLB   C4C22076  26.680  16.240  10.750
  920BOLB   C1D22077  27.400  15.960  10.350
  920BOLB   C2D22078  26.940  15.800  10.590
  920BOLB   C3D22079  26.450  15.740  10.690
  920BOLB   C4D22080  26.190  16.050  10.900
  921BOLB   NC122081   8.850  18.560   9.410
  921BOLB   PO122082   8.470  18.450   9.600
  921BOLB   GL122083   8.100  18.570   9.520
  921BOLB   GL222084   8.040  18.560   9.160
  921BOLB   C1A22085   7.680  18.770   9.480
  921BOLB   C2A22086   7.330  18.850   9.240
  921BOLB   C3A22087   7.010  18.970   9.110
  921BOLB   C4A22088   6.580  18.950   9.250
  921BOLB   C1B22089   8.070  18.730   8.780
  921BOLB   C2B22090   8.200  19.010   8.420
  921BOLB   C3B22091   7.800  19.350   8.150
  921BOLB   C4B22092   7.700  19.660   8.010
  921BOLB   NC222093   4.630  19.290   8.530
  921BOLB   PO222094   4.600  18.810   8.500
  921BOLB   GL322095   4.820  18.440   8.670
  921BOLB   GL422096   4.630  18.540   8.940
  921BOLB   C1C22097   5.200  18.200   8.860
  921BOLB   C2C22098   5.540  18.260   9.150
  921BOLB   C3C22099   5.940  18.440   9.240
  921BOLB   C4C22100   6.210  18.810   9.250
  921BOLB   C1D22101   5.050  18.680   9.090
  921BOLB   C2D22102   5.600  18.810   9.120
  921BOLB   C3D22103   5.840  19.140   8.970
  921BOLB   C4D22104   5.950  19.560   8.710
  922BOLB   NC122105  11.150  26.750  19.320
  922BOLB   PO122106  10.790  26.530  19.470
  922BOLB   GL122107  10.700  26.290  19.180
  922BOLB   GL222108  10.830  26.030  19.460
  922BOLB   C1A22109  10.750  25.870  18.880
  922BOLB   C2A22110  11.000  25.580  18.890
  922BOLB   C3A22111  11.230  25.180  18.920
  922BOLB   C4A22112  11.210  24.810  18.750
  922BOLB   C1B22113  11.210  25.920  19.530
  922BOLB   C2B22114  11.200  25.390  19.470
  922BOLB   C3B22115  11.470  25.080  19.730
  922BOLB   C4B22116  11.100  24.790  19.820
  922BOLB   NC222117  11.770  22.700  17.020
  922BOLB   PO222118  11.820  22.990  17.460
  922BOLB   GL322119  11.500  23.420  17.490
  922BOLB   GL422120  11.620  23.720  17.550
  922BOLB   C1C22121  11.110  23.590  17.710
  922BOLB   C2C22122  11.140  24.040  17.890
  922BOLB   C3C22123  11.490  24.360  18.150
  922BOLB   C4C22124  11.460  24.570  18.450
  922BOLB   C1D22125  11.800  23.970  17.820
  922BOLB   C2D22126  11.880  24.070  18.210
  922BOLB   C3D22127  11.710  23.930  18.580
  922BOLB   C4D22128  11.880  23.800  18.880
  923BOLB   NC122129   7.380   6.360  19.140
  923BOLB   PO122130   7.450   6.150  18.870
  923BOLB   GL122131   7.690   6.500  18.740
  923BOLB   GL222132   7.660   6.900  18.650
  923BOLB   C1A22133   8.120   6.600  18.630
  923BOLB   C2A22134   8.250   7.010  18.390
  923BOLB   C3A22135   8.520   7.380  18.250
  923BOLB   C4A22136   8.920   7.550  18.160
  923BOLB   C1B22137   7.920   7.290  18.770
  923BOLB   C2B22138   8.250   7.510  18.720
  923BOLB   C3B22139   8.660   7.340  18.880
  923BOLB   C4B22140   9.070   7.300  18.830
  923BOLB   NC222141   8.440   5.810  18.310
  923BOLB   PO222142   8.840   5.650  18.450
  923BOLB   GL322143   9.100   5.930  18.230
  923BOLB   GL422144   8.920   5.860  17.950
  923BOLB   C1C22145   9.340   6.270  18.010
  923BOLB   C2C22146   9.520   6.640  17.900
  923BOLB   C3C22147   9.400   7.040  17.900
  923BOLB   C4C22148   9.380   7.460  17.920
  923BOLB   C1D22149   9.260   5.860  17.710
  923BOLB   C2D22150   9.690   6.030  17.690
  923BOLB   C3D22151  10.030   6.070  17.380
  923BOLB   C4D22152  10.320   5.920  17.050
  924BOLB   NC122153   1.010  14.170  14.620
  924BOLB   PO122154   1.050  13.630  14.580
  924BOLB   GL122155   1.410  13.840  14.520
  924BOLB   GL222156   1.460  14.050  14.700
  924BOLB   C1A22157   1.860  14.070  14.390
  924BOLB   C2A22158   2.310  13.950  14.520
  924BOLB   C3A22159   2.580  13.790  14.730
  924BOLB   C4A22160   2.820  13.860  15.090
  924BOLB   C1B22161   1.850  14.230  14.860
  924BOLB   C2B22162   2.190  14.420  14.650
  924BOLB   C3B22163   2.430  14.820  14.750
  924BOLB   C4B22164   2.770  15.010  14.770
  924BOLB   NC222165   1.460  12.730  15.790
  924BOLB   PO222166   1.570  13.060  16.070
  924BOLB   GL322167   1.970  13.240  16.010
  924BOLB   GL422168   1.990  13.340  15.690
  924BOLB   C1C22169   2.360  13.190  15.990
  924BOLB   C2C22170   2.760  13.330  16.100
  924BOLB   C3C22171   3.030  13.550  15.810
  924BOLB   C4C22172   3.030  13.780  15.500
  924BOLB   C1D22173   1.940  13.690  15.430
  924BOLB   C2D22174   2.030  14.000  15.650
  924BOLB   C3D22175   2.310  14.220  15.960
  924BOLB   C4D22176   2.500  14.620  16.130
  925BOLB   NC122177   4.010  16.240  22.510
  925BOLB   PO122178   4.430  16.080  22.420
  925BOLB   GL122179   4.260  16.130  22.050
  925BOLB   GL222180   4.530  15.990  21.800
  925BOLB   C1A22181   4.070  16.130  21.620
  925BOLB   C2A22182   4.200  15.920  21.300
  925BOLB   C3A22183   4.160  15.590  21.120
  925BOLB   C4A22184   4.170  15.300  20.840
  925BOLB   C1B22185   4.890  16.200  21.700
  925BOLB   C2B22186   5.230  16.440  21.590
  925BOLB   C3B22187   5.510  16.550  21.330
  925BOLB   C4B22188   5.820  16.820  21.010
  925BOLB   NC222189   2.900  13.370  21.290
  925BOLB   PO222190   3.050  13.680  20.760
  925BOLB   GL322191   3.290  13.880  20.500
  925BOLB   GL422192   3.280  13.780  20.180
  925BOLB   C1C22193   3.710  13.980  20.470
  925BOLB   C2C22194   4.110  14.120  20.770
  925BOLB   C3C22195   4.360  14.460  20.960
  925BOLB   C4C22196   4.210  14.810  20.900
  925BOLB   C1D22197   3.800  13.850  20.000
  925BOLB   C2D22198   4.180  13.870  19.770
  925BOLB   C3D22199   4.600  13.760  19.730
  925BOLB   C4D22200   5.030  13.690  19.790
  926BOLB   NC122201   8.670  19.210  11.990
  926BOLB   PO122202   8.380  19.040  12.090
  926BOLB   GL122203   7.870  19.260  12.150
  926BOLB   GL222204   7.850  19.370  12.520
  926BOLB   C1A22205   7.550  19.520  11.830
  926BOLB   C2A22206   7.120  19.600  11.700
  926BOLB   C3A22207   6.670  19.720  11.440
  926BOLB   C4A22208   6.310  20.030  11.310
  926BOLB   C1B22209   7.360  19.310  12.230
  926BOLB   C2B22210   7.040  19.410  12.170
  926BOLB   C3B22211   6.760  19.760  12.020
  926BOLB   C4B22212   6.350  19.630  11.760
  926BOLB   NC222213   3.910  21.070  10.950
  926BOLB   PO222214   4.290  21.190  11.250
  926BOLB   GL322215   4.740  20.910  11.410
  926BOLB   GL422216   4.950  20.960  11.600
  926BOLB   C1C22217   4.770  20.530  11.620
  926BOLB   C2C22218   5.130  20.230  11.620
  926BOLB   C3C22219   5.560  20.060  11.540
  926BOLB   C4C22220   5.910  20.240  11.440
  926BOLB   C1D22221   5.020  20.830  12.020
  926BOLB   C2D22222   5.010  20.760  12.440
  926BOLB   C3D22223   5.080  20.650  12.840
  926BOLB   C4D22224   5.290  20.690  13.210
  927BOLB   NC122225   9.870  18.840  27.270
  927BOLB   PO122226   9.660  19.000  26.920
  927BOLB   GL122227   9.900  18.770  26.600
  927BOLB   GL222228   9.900  19.020  26.410
  927BOLB   C1A22229   9.940  18.430  26.280
  927BOLB   C2A22230  10.050  18.060  26.070
  927BOLB   C3A22231   9.940  17.610  25.880
  927BOLB   C4A22232  10.220  17.240  26.100
  927BOLB   C1B22233  10.020  18.860  26.040
  927BOLB   C2B22234   9.870  19.000  25.760
  927BOLB   C3B22235   9.760  19.170  25.370
  927BOLB   C4B22236   9.680  19.030  24.940
  927BOLB   NC222237  11.010  17.520  27.730
  927BOLB   PO222238  11.450  17.770  27.800
  927BOLB   GL322239  11.510  17.860  27.320
  927BOLB   GL422240  11.800  18.090  27.390
  927BOLB   C1C22241  11.310  17.650  26.930
  927BOLB   C2C22242  11.300  17.610  26.490
  927BOLB   C3C22243  11.160  17.350  26.190
  927BOLB   C4C22244  10.650  17.240  26.080
  927BOLB   C1D22245  11.770  17.960  26.870
  927BOLB   C2D22246  11.870  17.960  26.460
  927BOLB   C3D22247  11.800  18.240  26.150
  927BOLB   C4D22248  11.490  18.500  26.020
  928BOLB   NC122249  15.560   5.900  22.730
  928BOLB   PO122250  15.370   6.330  22.480
  928BOLB   GL122251  15.300   6.730  22.320
  928BOLB   GL222252  15.520   6.710  22.150
  928BOLB   C1A22253  15.050   7.080  22.280
  928BOLB   C2A22254  14.870   7.450  22.190
  928BOLB   C3A22255  14.960   7.830  22.130
  928BOLB   C4A22256  15.170   8.340  22.240
  928BOLB   C1B22257  15.580   7.110  22.230
  928BOLB   C2B22258  15.460   7.520  22.370
  928BOLB   C3B22259  15.430   7.830  22.020
  928BOLB   C4B22260  15.410   7.830  21.690
  928BOLB   NC222261  17.020   7.260  22.830
  928BOLB   PO222262  17.110   7.420  22.460
  928BOLB   GL322263  16.900   7.850  22.530
  928BOLB   GL422264  16.920   7.790  22.850
  928BOLB   C1C22265  16.490   8.280  22.480
  928BOLB   C2C22266  16.230   8.360  22.250
  928BOLB   C3C22267  15.930   8.640  22.200
  928BOLB   C4C22268  15.500   8.650  22.330
  928BOLB   C1D22269  16.630   8.090  23.060
  928BOLB   C2D22270  16.440   8.540  22.910
  928BOLB   C3D22271  16.640   8.980  22.950
  928BOLB   C4D22272  16.990   9.270  22.960
  929BOLB   NC122273   2.850   9.570  15.000
  929BOLB   PO122274   2.980   9.340  15.420
  929BOLB   GL122275   3.250   9.380  15.180
  929BOLB   GL222276   3.650   9.220  15.120
  929BOLB   C1A22277   3.510   9.730  14.960
  929BOLB   C2A22278   3.890   9.930  15.020
  929BOLB   C3A22279   4.250  10.240  14.880
  929BOLB   C4A22280   4.100  10.480  14.580
  929BOLB   C1B22281   3.970   9.180  14.960
  929BOLB   C2B22282   4.220   8.820  14.830
  929BOLB   C3B22283   4.530   8.620  14.610
  929BOLB   C4B22284   4.870   8.480  14.430
  929BOLB   NC222285   2.130  11.290  15.190
  929BOLB   PO222286   2.390  10.960  15.180
  929BOLB   GL322287   2.670  11.170  15.030
  929BOLB   GL422288   2.650  11.390  15.310
  929BOLB   C1C22289   2.960  11.330  14.710
  929BOLB   C2C22290   3.330  11.310  14.570
  929BOLB   C3C22291   3.700  11.180  14.570
  929BOLB   C4C22292   3.780  10.770  14.550
  929BOLB   C1D22293   2.990  11.540  15.240
  929BOLB   C2D22294   3.360  11.670  15.490
  929BOLB   C3D22295   3.660  12.060  15.670
  929BOLB   C4D22296   3.950  12.370  15.790
  930BOLB   NC122297   6.480  15.850   5.440
  930BOLB   PO122298   6.070  15.990   5.460
  930BOLB   GL122299   6.300  16.150   5.820
  930BOLB   GL222300   6.530  16.320   5.840
  930BOLB   C1A22301   6.590  15.890   6.140
  930BOLB   C2A22302   6.680  15.610   6.330
  930BOLB   C3A22303   6.970  15.370   6.430
  930BOLB   C4A22304   7.320  15.410   6.290
  930BOLB   C1B22305   6.380  16.320   6.330
  930BOLB   C2B22306   6.260  16.350   6.660
  930BOLB   C3B22307   6.660  16.390   6.940
  930BOLB   C4B22308   6.860  16.460   7.380
  930BOLB   NC222309   6.810  15.210   4.680
  930BOLB   PO222310   7.100  15.380   4.310
  930BOLB   GL322311   7.270  15.490   4.740
  930BOLB   GL422312   7.310  15.710   5.130
  930BOLB   C1C22313   7.670  15.550   4.980
  930BOLB   C2C22314   7.690  15.370   5.370
  930BOLB   C3C22315   7.940  15.240   5.710
  930BOLB   C4C22316   7.780  15.290   6.080
  930BOLB   C1D22317   7.730  15.890   5.300
  930BOLB   C2D22318   7.840  16.240   5.320
  930BOLB   C3D22319   8.260  16.360   5.410
  930BOLB   C4D22320   8.630  16.190   5.560
  931BOLB   NC122321  10.180  17.480  27.470
  931BOLB   PO122322  10.030  17.240  27.130
  931BOLB   GL122323  10.180  17.580  26.910
  931BOLB   GL222324  10.440  17.400  26.820
  931BOLB   C1A22325  10.270  18.000  26.760
  931BOLB   C2A22326  10.420  18.140  26.450
  931BOLB   C3A22327  10.830  18.350  26.250
  931BOLB   C4A22328  11.050  18.730  26.070
  931BOLB   C1B22329  10.660  17.760  26.900
  931BOLB   C2B22330  11.000  18.110  26.750
  931BOLB   C3B22331  11.330  18.100  26.360
  931BOLB   C4B22332  11.540  17.730  26.030
  931BOLB   NC222333  10.940  18.060  27.940
  931BOLB   PO222334  10.850  18.460  27.640
  931BOLB   GL322335  11.190  18.510  27.340
  931BOLB   GL422336  11.290  18.790  27.180
  931BOLB   C1C22337  11.470  18.320  26.920
  931BOLB   C2C22338  11.580  18.490  26.580
  931BOLB   C3C22339  11.650  18.880  26.400
  931BOLB   C4C22340  11.310  19.010  26.100
  931BOLB   C1D22341  11.580  18.870  26.900
  931BOLB   C2D22342  11.860  19.250  26.720
  931BOLB   C3D22343  12.360  19.350  26.520
  931BOLB   C4D22344  12.700  19.230  26.690
  932BOLB   NC122345  11.120  21.670   9.300
  932BOLB   PO122346  11.050  22.150   9.270
  932BOLB   GL122347  10.770  22.360   9.140
  932BOLB   GL222348  10.810  22.590   9.310
  932BOLB   C1A22349  10.750  22.570   8.690
  932BOLB   C2A22350  10.900  22.580   8.250
  932BOLB   C3A22351  11.050  22.720   7.850
  932BOLB   C4A22352  11.120  23.110   7.640
  932BOLB   C1B22353  10.620  22.860   9.100
  932BOLB   C2B22354  10.590  23.330   9.080
  932BOLB   C3B22355  10.520  23.560   8.730
  932BOLB   C4B22356  10.720  23.820   8.530
  932BOLB   NC222357   9.320  24.870   7.260
  932BOLB   PO222358   9.110  24.550   7.460
  932BOLB   GL322359   9.290  24.090   7.530
  932BOLB   GL422360   9.110  23.840   7.530
  932BOLB   C1C22361   9.780  24.030   7.530
  932BOLB   C2C22362  10.260  24.080   7.650
  932BOLB   C3C22363  10.520  23.720   7.550
  932BOLB   C4C22364  10.720  23.260   7.660
  932BOLB   C1D22365   8.850  23.430   7.600
  932BOLB   C2D22366   8.460  23.290   7.500
  932BOLB   C3D22367   8.100  23.380   7.640
  932BOLB   C4D22368   7.790  23.600   7.870
  933BOLB   NC122369  11.590  27.010  18.500
  933BOLB   PO122370  11.390  26.840  18.860
  933BOLB   GL122371  11.590  26.440  18.990
  933BOLB   GL222372  11.660  26.220  19.260
  933BOLB   C1A22373  12.010  26.220  18.890
  933BOLB   C2A22374  12.060  25.780  18.900
  933BOLB   C3A22375  12.190  25.290  19.050
  933BOLB   C4A22376  12.210  24.850  18.950
  933BOLB   C1B22377  11.830  25.850  19.430
  933BOLB   C2B22378  11.740  25.510  19.500
  933BOLB   C3B22379  11.830  25.090  19.360
  933BOLB   C4B22380  11.790  24.600  19.450
  933BOLB   NC222381  13.630  22.920  18.210
  933BOLB   PO222382  13.230  22.670  18.140
  933BOLB   GL322383  13.130  22.890  18.500
  933BOLB   GL422384  13.380  22.800  18.780
  933BOLB   C1C22385  13.040  23.270  18.780
  933BOLB   C2C22386  12.990  23.830  18.850
  933BOLB   C3C22387  12.740  24.240  18.790
  933BOLB   C4C22388  12.410  24.560  18.700
  933BOLB   C1D22389  13.060  22.740  19.160
  933BOLB   C2D22390  12.790  23.020  19.190
  933BOLB   C3D22391  12.410  23.200  19.110
  933BOLB   C4D22392  11.880  23.290  19.220
  934BOLB   NC122393  28.540  16.030  12.940
  934BOLB   PO122394  28.330  15.740  12.610
  934BOLB   GL122395  27.940  15.710  12.660
  934BOLB   GL222396  27.850  15.940  12.410
  934BOLB   C1A22397  27.570  15.820  12.850
  934BOLB   C2A22398  27.130  15.860  12.950
  934BOLB   C3A22399  26.800  15.620  12.850
  934BOLB   C4A22400  26.340  15.670  12.770
  934BOLB   C1B22401  27.470  15.970  12.380
  934BOLB   C2B22402  27.080  16.160  12.460
  934BOLB   C3B22403  26.730  16.090  12.610
  934BOLB   C4B22404  26.570  16.000  13.020
  934BOLB   NC222405  24.010  16.790  13.840
  934BOLB   PO222406  24.370  16.460  13.720
  934BOLB   GL322407  24.620  16.570  13.820
  934BOLB   GL422408  24.550  16.750  14.150
  934BOLB   C1C22409  25.100  16.500  13.770
  934BOLB   C2C22410  25.430  16.380  13.520
  934BOLB   C3C22411  25.710  16.130  13.320
  934BOLB   C4C22412  26.010  15.930  13.060
  934BOLB   C1D22413  24.910  16.620  14.230
  934BOLB   C2D22414  25.010  16.790  14.670
  934BOLB   C3D22415  25.300  16.510  14.950
  934BOLB   C4D22416  25.160  16.160  15.100
  935BOLB   NC122417   8.310  18.700  10.010
  935BOLB   PO122418   8.110  18.290   9.960
  935BOLB   GL122419   7.770  18.190   9.640
  935BOLB   GL222420   7.600  17.790   9.550
  935BOLB   C1A22421   7.400  18.420   9.820
  935BOLB   C2A22422   6.950  18.400   9.890
  935BOLB   C3A22423   6.630  18.130   9.860
  935BOLB   C4A22424   6.660  17.670   9.980
  935BOLB   C1B22425   7.360  17.790   9.210
  935BOLB   C2B22426   7.250  17.930   8.790
  935BOLB   C3B22427   7.240  18.210   8.380
  935BOLB   C4B22428   7.000  18.270   8.030
  935BOLB   NC222429   4.260  17.940   9.300
  935BOLB   PO222430   4.410  17.530   9.390
  935BOLB   GL322431   4.630  17.360   9.580
  935BOLB   GL422432   4.500  17.190   9.790
  935BOLB   C1C22433   5.160  17.340   9.560
  935BOLB   C2C22434   5.600  17.240   9.710
  935BOLB   C3C22435   5.990  17.160   9.860
  935BOLB   C4C22436   6.400  17.270   9.870
  935BOLB   C1D22437   4.870  16.990   9.790
  935BOLB   C2D22438   5.230  16.870  10.060
  935BOLB   C3D22439   5.730  16.900  10.210
  935BOLB   C4D22440   6.230  16.830  10.200
  936BOLB   NC122441   6.220  14.780   5.240
  936BOLB   PO122442   5.980  14.680   5.630
  936BOLB   GL122443   6.210  14.480   6.050
  936BOLB   GL222444   6.260  14.750   6.300
  936BOLB   C1A22445   6.690  14.500   5.990
  936BOLB   C2A22446   6.990  14.430   6.290
  936BOLB   C3A22447   7.260  14.480   6.600
  936BOLB   C4A22448   7.610  14.640   6.680
  936BOLB   C1B22449   6.580  14.920   6.640
  936BOLB   C2B22450   7.080  14.970   6.750
  936BOLB   C3B22451   7.350  15.330   6.780
  936BOLB   C4B22452   7.600  15.680   6.970
  936BOLB   NC222453   9.910  14.370   7.490
  936BOLB   PO222454   9.680  14.720   7.700
  936BOLB   GL322455   9.360  14.630   7.570
  936BOLB   GL422456   9.420  14.290   7.470
  936BOLB   C1C22457   9.040  14.760   7.290
  936BOLB   C2C22458   8.710  14.780   7.150
  936BOLB   C3C22459   8.420  14.820   6.770
  936BOLB   C4C22460   7.920  14.780   6.830
  936BOLB   C1D22461   9.200  14.060   7.100
  936BOLB   C2D22462   8.850  14.000   7.050
  936BOLB   C3D22463   8.430  13.840   6.990
  936BOLB   C4D22464   7.930  13.820   7.040
  937BOLB   NC122465  11.960  23.170  26.650
  937BOLB   PO122466  11.780  22.760  26.510
  937BOLB   GL122467  11.610  22.640  26.170
  937BOLB   GL222468  11.340  22.780  26.190
  937BOLB   C1A22469  11.750  22.540  25.760
  937BOLB   C2A22470  11.930  22.760  25.370
  937BOLB   C3A22471  12.020  22.740  24.920
  937BOLB   C4A22472  12.410  22.800  24.770
  937BOLB   C1B22473  11.210  22.650  25.740
  937BOLB   C2B22474  11.010  22.550  25.360
  937BOLB   C3B22475  10.980  22.260  24.940
  937BOLB   C4B22476  10.670  22.080  24.610
  937BOLB   NC222477  14.700  23.890  25.150
  937BOLB   PO222478  14.310  24.000  24.880
  937BOLB   GL322479  13.840  23.960  24.780
  937BOLB   GL422480  13.770  23.850  25.100
  937BOLB   C1C22481  13.600  23.910  24.420
  937BOLB   C2C22482  13.220  23.550  24.410
  937BOLB   C3C22483  12.900  23.280  24.230
  937BOLB   C4C22484  12.550  23.000  24.370
  937BOLB   C1D22485  13.430  23.570  24.950
  937BOLB   C2D22486  13.040  23.510  25.060
  937BOLB   C3D22487  12.650  23.230  24.980
  937BOLB   C4D22488  12.430  22.900  25.270
  938BOLB   NC122489   2.040  22.150  18.090
  938BOLB   PO122490   2.360  22.430  18.350
  938BOLB   GL122491   2.520  22.070  18.420
  938BOLB   GL222492   2.750  22.270  18.590
  938BOLB   C1A22493   2.810  21.680  18.670
  938BOLB   C2A22494   3.060  21.260  18.790
  938BOLB   C3A22495   3.460  21.150  18.780
  938BOLB   C4A22496   4.000  21.220  18.910
  938BOLB   C1B22497   3.100  22.030  18.430
  938BOLB   C2B22498   3.290  21.940  18.030
  938BOLB   C3B22499   3.540  21.840  17.710
  938BOLB   C4B22500   3.380  21.750  17.400
  938BOLB   NC222501   3.180  21.680  20.560
  938BOLB   PO222502   2.970  21.290  20.500
  938BOLB   GL322503   3.190  21.180  20.190
  938BOLB   GL422504   3.120  21.170  19.930
  938BOLB   C1C22505   3.660  20.990  20.170
  938BOLB   C2C22506   4.080  20.940  20.000
  938BOLB   C3C22507   4.030  21.020  19.600
  938BOLB   C4C22508   4.140  21.180  19.270
  938BOLB   C1D22509   3.230  21.260  19.570
  938BOLB   C2D22510   3.290  20.950  19.240
  938BOLB   C3D22511   3.390  20.710  18.890
  938BOLB   C4D22512   3.490  20.350  18.800
  939BOLB   NC122513  15.730  28.810  17.620
  939BOLB   PO122514  15.220  28.850  17.780
  939BOLB   GL122515  15.280  28.560  17.420
  939BOLB   GL222516  15.090  28.360  17.610
  939BOLB   C1A22517  15.160  28.380  16.930
  939BOLB   C2A22518  15.300  28.110  16.670
  939BOLB   C3A22519  15.390  27.980  16.210
  939BOLB   C4A22520  15.800  27.780  16.130
  939BOLB   C1B22521  15.150  27.970  17.310
  939BOLB   C2B22522  15.280  27.650  17.060
  939BOLB   C3B22523  15.210  27.230  16.820
  939BOLB   C4B22524  15.060  26.800  16.590
  939BOLB   NC222525  16.450  29.320  17.610
  939BOLB   PO222526  16.640  29.130  17.200
  939BOLB   GL322527  16.760  28.710  16.970
  939BOLB   GL422528  16.700  28.770  16.610
  939BOLB   C1C22529  16.940  28.360  16.720
  939BOLB   C2C22530  16.660  28.260  16.500
  939BOLB   C3C22531  16.430  28.190  16.330
  939BOLB   C4C22532  16.260  27.970  16.010
  939BOLB   C1D22533  16.660  28.680  16.160
  939BOLB   C2D22534  16.760  28.330  16.030
  939BOLB   C3D22535  16.850  27.890  15.870
  939BOLB   C4D22536  16.640  27.590  16.090
  940BOLB   NC122537   2.300  11.100  15.720
  940BOLB   PO122538   2.240  11.510  15.630
  940BOLB   GL122539   2.640  11.460  15.820
  940BOLB   GL222540   2.580  11.280  16.120
  940BOLB   C1A22541   3.000  11.470  15.800
  940BOLB   C2A22542   3.380  11.530  15.970
  940BOLB   C3A22543   3.530  11.890  16.230
  940BOLB   C4A22544   3.840  11.960  16.510
  940BOLB   C1B22545   2.590  11.600  16.360
  940BOLB   C2B22546   2.940  11.850  16.230
  940BOLB   C3B22547   3.140  11.960  15.820
  940BOLB   C4B22548   3.260  12.140  15.410
  940BOLB   NC222549   2.180  12.550  17.460
  940BOLB   PO222550   2.080  12.270  17.820
  940BOLB   GL322551   2.600  12.200  17.700
  940BOLB   GL422552   2.750  12.560  17.680
  940BOLB   C1C22553   2.970  11.910  17.530
  940BOLB   C2C22554   3.420  11.850  17.340
  940BOLB   C3C22555   3.740  11.920  17.320
  940BOLB   C4C22556   3.960  11.910  16.940
  940BOLB   C1D22557   2.960  12.410  17.400
  940BOLB   C2D22558   3.350  12.340  17.180
  940BOLB   C3D22559   3.670  12.350  16.900
  940BOLB   C4D22560   3.820  12.670  16.730
  941BOLB   NC122561   9.960  12.760  12.410
  941BOLB   PO122562  10.040  12.500  12.050
  941BOLB   GL122563   9.500  12.630  12.120
  941BOLB   GL222564   9.350  12.920  12.210
  941BOLB   C1A22565   9.130  12.440  12.100
  941BOLB   C2A22566   8.810  12.360  12.410
  941BOLB   C3A22567   8.600  11.960  12.450
  941BOLB   C4A22568   8.790  11.700  12.690
  941BOLB   C1B22569   8.830  12.790  12.220
  941BOLB   C2B22570   8.410  12.860  12.060
  941BOLB   C3B22571   8.260  13.130  11.700
  941BOLB   C4B22572   8.000  13.280  11.500
  941BOLB   NC222573  10.740  13.190  12.300
  941BOLB   PO222574  10.280  13.140  12.630
  941BOLB   GL322575  10.070  13.240  12.910
  941BOLB   GL422576  10.330  13.260  13.210
  941BOLB   C1C22577  10.000  12.800  13.180
  941BOLB   C2C22578   9.830  12.470  12.990
  941BOLB   C3C22579   9.480  12.170  13.080
  941BOLB   C4C22580   9.110  11.880  12.940
  941BOLB   C1D22581  10.200  13.200  13.470
  941BOLB   C2D22582   9.780  13.080  13.670
  941BOLB   C3D22583   9.470  12.850  13.550
  941BOLB   C4D22584   9.060  12.810  13.620
  942BOLB   NC122585  13.880  24.950  12.770
  942BOLB   PO122586  14.160  25.140  12.650
  942BOLB   GL122587  13.880  25.420  12.600
  942BOLB   GL222588  13.650  25.210  12.320
  942BOLB   C1A22589  13.640  25.780  12.520
  942BOLB   C2A22590  13.620  26.180  12.480
  942BOLB   C3A22591  13.440  26.650  12.340
  942BOLB   C4A22592  13.500  27.030  12.130
  942BOLB   C1B22593  13.720  25.630  12.040
  942BOLB   C2B22594  13.530  25.870  11.780
  942BOLB   C3B22595  13.160  26.130  11.600
  942BOLB   C4B22596  13.130  26.540  11.570
  942BOLB   NC222597  13.830  29.740  12.180
  942BOLB   PO222598  13.960  29.280  12.190
  942BOLB   GL322599  13.770  28.940  12.310
  942BOLB   GL422600  13.650  28.950  12.620
  942BOLB   C1C22601  13.520  28.560  12.210
  942BOLB   C2C22602  13.360  28.210  11.920
  942BOLB   C3C22603  13.190  27.840  12.030
  942BOLB   C4C22604  13.360  27.480  12.120
  942BOLB   C1D22605  13.700  28.540  12.700
  942BOLB   C2D22606  13.850  28.230  12.350
  942BOLB   C3D22607  13.830  27.890  12.030
  942BOLB   C4D22608  13.670  27.610  11.670
  943BOLB   NC122609  10.220   5.610  15.610
  943BOLB   PO122610   9.790   5.640  15.850
  943BOLB   GL122611   9.430   5.720  15.550
  943BOLB   GL222612   9.630   5.790  15.340
  943BOLB   C1A22613   9.180   6.000  15.390
  943BOLB   C2A22614   8.640   5.970  15.350
  943BOLB   C3A22615   8.310   6.230  15.220
  943BOLB   C4A22616   8.210   6.650  15.150
  943BOLB   C1B22617   9.610   6.230  15.410
  943BOLB   C2B22618   9.570   6.660  15.500
  943BOLB   C3B22619   9.700   7.050  15.340
  943BOLB   C4B22620   9.840   7.380  15.110
  943BOLB   NC222621   6.270   6.010  15.570
  943BOLB   PO222622   6.320   6.380  15.230
  943BOLB   GL322623   6.600   6.460  15.350
  943BOLB   GL422624   6.750   6.610  15.540
  943BOLB   C1C22625   6.900   6.740  15.120
  943BOLB   C2C22626   7.250   7.040  15.120
  943BOLB   C3C22627   7.610   7.150  15.170
  943BOLB   C4C22628   8.040   7.050  15.170
  943BOLB   C1D22629   6.720   7.000  15.480
  943BOLB   C2D22630   6.400   7.320  15.360
  943BOLB   C3D22631   6.360   7.760  15.440
  943BOLB   C4D22632   6.290   8.180  15.350
  944BOLB   NC122633   8.410  20.550  26.760
  944BOLB   PO122634   8.480  20.650  26.350
  944BOLB   GL122635   8.610  20.580  25.860
  944BOLB   GL222636   8.370  20.740  25.740
  944BOLB   C1A22637   8.760  20.490  25.480
  944BOLB   C2A22638   8.930  20.510  25.080
  944BOLB   C3A22639   9.030  20.370  24.610
  944BOLB   C4A22640   9.380  20.590  24.370
  944BOLB   C1B22641   8.320  20.650  25.360
  944BOLB   C2B22642   8.370  20.580  25.050
  944BOLB   C3B22643   8.680  20.860  24.750
  944BOLB   C4B22644   9.000  20.880  24.540
  944BOLB   NC222645   8.730  22.550  26.090
  944BOLB   PO222646   8.980  22.180  25.990
  944BOLB   GL322647   9.270  21.950  25.790
  944BOLB   GL422648   9.440  21.650  26.010
  944BOLB   C1C22649   9.390  21.750  25.250
  944BOLB   C2C22650   9.510  21.530  24.910
  944BOLB   C3C22651   9.360  21.260  24.660
  944BOLB   C4C22652   9.510  20.920  24.480
  944BOLB   C1D22653   9.710  21.710  25.680
  944BOLB   C2D22654   9.890  21.410  25.270
  944BOLB   C3D22655  10.070  21.660  24.860
  944BOLB   C4D22656  10.400  21.680  24.520
  945BOLB   NC122657   7.950   9.260  22.940
  945BOLB   PO122658   7.810   9.660  22.740
  945BOLB   GL122659   8.120   9.620  22.510
  945BOLB   GL222660   8.060   9.720  22.120
  945BOLB   C1A22661   8.490   9.390  22.510
  945BOLB   C2A22662   8.890   9.590  22.380
  945BOLB   C3A22663   9.270   9.780  22.400
  945BOLB   C4A22664   9.700   9.790  22.320
  945BOLB   C1B22665   8.500   9.910  22.160
  945BOLB   C2B22666   8.960  10.080  22.140
  945BOLB   C3B22667   9.340  10.290  22.210
  945BOLB   C4B22668   9.680  10.260  22.450
  945BOLB   NC222669  10.560   9.180  24.580
  945BOLB   PO222670  10.440   8.940  24.140
  945BOLB   GL322671  10.500   8.940  23.830
  945BOLB   GL422672  10.410   8.680  23.730
  945BOLB   C1C22673  10.410   9.070  23.410
  945BOLB   C2C22674  10.420   9.330  23.060
  945BOLB   C3C22675  10.370   9.710  22.720
  945BOLB   C4C22676  10.090   9.850  22.400
  945BOLB   C1D22677  10.750   8.620  23.420
  945BOLB   C2D22678  10.720   8.770  22.990
  945BOLB   C3D22679  10.710   9.170  22.740
  945BOLB   C4D22680  11.110   9.390  22.780
  946BOLB   NC122681  22.960  14.900  12.990
  946BOLB   PO122682  23.350  14.700  13.220
  946BOLB   GL122683  23.690  14.400  13.380
  946BOLB   GL222684  23.830  14.190  13.130
  946BOLB   C1A22685  24.060  14.250  13.570
  946BOLB   C2A22686  24.450  14.120  13.690
  946BOLB   C3A22687  24.840  14.240  13.900
  946BOLB   C4A22688  25.240  14.130  14.040
  946BOLB   C1B22689  24.250  13.990  13.150
  946BOLB   C2B22690  24.560  13.700  13.120
  946BOLB   C3B22691  24.940  13.550  13.050
  946BOLB   C4B22692  25.110  13.210  13.230
  946BOLB   NC222693  27.290  12.810  14.340
  946BOLB   PO222694  27.470  13.150  14.400
  946BOLB   GL322695  27.030  13.320  14.370
  946BOLB   GL422696  27.150  13.700  14.340
  946BOLB   C1C22697  26.610  13.180  14.410
  946BOLB   C2C22698  26.120  13.280  14.230
  946BOLB   C3C22699  25.740  13.510  14.200
  946BOLB   C4C22700  25.440  13.790  14.030
  946BOLB   C1D22701  26.710  13.710  14.190
  946BOLB   C2D22702  26.240  13.770  14.190
  946BOLB   C3D22703  25.880  14.040  14.080
  946BOLB   C4D22704  25.790  14.400  13.900
  947BOLB   NC122705   1.450  13.770  12.610
  947BOLB   PO122706   1.600  13.470  12.770
  947BOLB   GL122707   2.040  13.410  12.520
  947BOLB   GL222708   2.060  13.210  12.810
  947BOLB   C1A22709   2.510  13.330  12.540
  947BOLB   C2A22710   2.720  13.390  12.890
  947BOLB   C3A22711   2.620  13.630  13.290
  947BOLB   C4A22712   2.670  13.930  13.610
  947BOLB   C1B22713   2.290  13.190  13.100
  947BOLB   C2B22714   2.630  13.110  13.410
  947BOLB   C3B22715   3.000  13.230  13.640
  947BOLB   C4B22716   2.810  13.570  13.880
  947BOLB   NC222717   2.000  14.350  11.750
  947BOLB   PO222718   1.890  14.210  12.090
  947BOLB   GL322719   2.320  14.240  12.230
  947BOLB   GL422720   2.510  14.520  12.120
  947BOLB   C1C22721   2.660  14.320  12.590
  947BOLB   C2C22722   2.480  14.590  12.940
  947BOLB   C3C22723   2.760  14.670  13.210
  947BOLB   C4C22724   2.940  14.220  13.480
  947BOLB   C1D22725   2.970  14.660  12.020
  947BOLB   C2D22726   3.150  14.600  12.440
  947BOLB   C3D22727   3.130  14.220  12.740
  947BOLB   C4D22728   3.440  13.920  12.760
  948BOLB   NC122729  14.830  14.000   4.560
  948BOLB   PO122730  15.020  13.680   4.440
  948BOLB   GL122731  14.930  13.560   4.080
  948BOLB   GL222732  14.770  13.310   3.990
  948BOLB   C1A22733  14.730  13.780   3.770
  948BOLB   C2A22734  14.790  14.100   3.500
  948BOLB   C3A22735  14.500  14.230   3.180
  948BOLB   C4A22736  14.160  14.400   2.900
  948BOLB   C1B22737  14.500  13.260   3.580
  948BOLB   C2B22738  14.310  13.190   3.210
  948BOLB   C3B22739  14.460  13.060   2.790
  948BOLB   C4B22740  14.470  13.430   2.540
  948BOLB   NC222741  14.280  13.630   0.740
  948BOLB   PO222742  14.180  13.990   0.470
  948BOLB   GL322743  14.200  14.340   0.860
  948BOLB   GL422744  14.250  14.710   0.960
  948BOLB   C1C22745  13.910  14.430   1.220
  948BOLB   C2C22746  13.840  14.250   1.660
  948BOLB   C3C22747  13.830  14.170   2.120
  948BOLB   C4C22748  13.870  14.280   2.530
  948BOLB   C1D22749  14.380  14.610   1.430
  948BOLB   C2D22750  14.320  14.450   1.890
  948BOLB   C3D22751  14.290  14.390   2.330
  948BOLB   C4D22752  14.550  14.270   2.630
  949BOLB   NC122753   7.100  14.660  25.140
  949BOLB   PO122754   6.950  15.110  25.140
  949BOLB   GL122755   7.140  15.320  24.780
  949BOLB   GL222756   7.470  15.550  24.820
  949BOLB   C1A22757   7.330  15.360  24.330
  949BOLB   C2A22758   7.160  15.580  23.980
  949BOLB   C3A22759   7.320  15.810  23.680
  949BOLB   C4A22760   7.510  15.480  23.410
  949BOLB   C1B22761   7.800  15.860  24.680
  949BOLB   C2B22762   7.970  16.180  24.510
  949BOLB   C3B22763   8.030  16.160  24.040
  949BOLB   C4B22764   8.310  16.040  23.770
  949BOLB   NC222765   6.540  15.100  24.820
  949BOLB   PO222766   6.640  14.710  25.050
  949BOLB   GL322767   6.950  14.650  24.690
  949BOLB   GL422768   6.880  14.350  24.490
  949BOLB   C1C22769   7.240  14.830  24.440
  949BOLB   C2C22770   7.630  14.980  24.170
  949BOLB   C3C22771   7.740  14.780  23.750
  949BOLB   C4C22772   7.620  14.990  23.420
  949BOLB   C1D22773   7.170  14.330  24.190
  949BOLB   C2D22774   7.500  14.380  23.920
  949BOLB   C3D22775   7.980  14.450  24.030
  949BOLB   C4D22776   8.410  14.340  24.270
  950BOLB   NC122777   3.970   8.630  13.020
  950BOLB   PO122778   4.050   8.240  13.230
  950BOLB   GL122779   4.440   8.220  13.280
  950BOLB   GL222780   4.630   8.170  13.010
  950BOLB   C1A22781   4.540   8.500  13.630
  950BOLB   C2A22782   4.600   8.900  13.890
  950BOLB   C3A22783   4.790   8.990  14.320
  950BOLB   C4A22784   4.760   9.110  14.670
  950BOLB   C1B22785   4.540   8.690  13.130
  950BOLB   C2B22786   4.510   9.080  13.410
  950BOLB   C3B22787   4.960   9.360  13.260
  950BOLB   C4B22788   5.330   9.550  13.230
  950BOLB   NC222789   2.800   8.730  15.950
  950BOLB   PO222790   2.950   9.090  16.270
  950BOLB   GL322791   3.380   9.430  16.210
  950BOLB   GL422792   3.620   9.420  16.560
  950BOLB   C1C22793   3.630   9.320  15.820
  950BOLB   C2C22794   4.010   9.160  15.530
  950BOLB   C3C22795   4.290   9.290  15.290
  950BOLB   C4C22796   4.520   9.280  14.930
  950BOLB   C1D22797   4.030   9.490  16.270
  950BOLB   C2D22798   4.410   9.470  16.280
  950BOLB   C3D22799   4.610   9.730  16.240
  950BOLB   C4D22800   4.850  10.150  16.280
  951BOLB   NC122801   2.670  13.270  20.010
  951BOLB   PO122802   3.110  13.340  19.980
  951BOLB   GL122803   3.420  13.590  19.760
  951BOLB   GL222804   3.260  13.860  19.580
  951BOLB   C1A22805   3.840  13.670  19.460
  951BOLB   C2A22806   3.950  13.490  19.060
  951BOLB   C3A22807   4.160  13.270  18.670
  951BOLB   C4A22808   4.320  12.990  18.420
  951BOLB   C1B22809   3.390  13.650  19.210
  951BOLB   C2B22810   3.480  13.260  18.950
  951BOLB   C3B22811   3.550  12.920  18.620
  951BOLB   C4B22812   3.890  12.670  18.450
  951BOLB   NC222813   2.570  11.640  18.600
  951BOLB   PO222814   2.730  11.880  18.170
  951BOLB   GL322815   3.090  11.910  18.030
  951BOLB   GL422816   3.240  11.990  18.330
  951BOLB   C1C22817   3.330  12.150  17.840
  951BOLB   C2C22818   3.730  12.240  17.690
  951BOLB   C3C22819   4.170  12.380  17.790
  951BOLB   C4C22820   4.330  12.540  18.210
  951BOLB   C1D22821   3.690  11.960  18.430
  951BOLB   C2D22822   4.050  11.680  18.370
  951BOLB   C3D22823   4.370  11.390  18.530
  951BOLB   C4D22824   4.420  11.240  19.000
  952BOLB   NC122825   4.870  15.820  22.720
  952BOLB   PO122826   4.830  15.490  22.560
  952BOLB   GL122827   4.940  15.620  22.180
  952BOLB   GL222828   4.820  15.840  22.150
  952BOLB   C1A22829   4.990  15.700  21.720
  952BOLB   C2A22830   5.440  15.840  21.720
  952BOLB   C3A22831   5.870  15.990  21.720
  952BOLB   C4A22832   6.310  15.880  21.820
  952BOLB   C1B22833   5.330  15.860  22.230
  952BOLB   C2B22834   5.450  16.170  22.090
  952BOLB   C3B22835   5.700  16.510  21.830
  952BOLB   C4B22836   5.900  16.770  21.550
  952BOLB   NC222837   5.010  14.530  23.760
  952BOLB   PO222838   5.270  14.820  23.450
  952BOLB   GL322839   5.560  14.980  23.150
  952BOLB   GL422840   5.580  15.390  23.080
  952BOLB   C1C22841   5.760  14.980  22.730
  952BOLB   C2C22842   6.090  15.030  22.560
  952BOLB   C3C22843   6.460  15.170  22.350
  952BOLB   C4C22844   6.390  15.590  22.180
  952BOLB   C1D22845   5.990  15.360  23.040
  952BOLB   C2D22846   6.400  15.240  22.830
  952BOLB   C3D22847   6.680  15.530  22.580
  952BOLB   C4D22848   7.030  15.530  22.340
  953BOLB   NC122849   9.460  20.870  10.410
  953BOLB   PO122850   9.250  20.520  10.400
  953BOLB   GL122851   9.000  20.680  10.130
  953BOLB   GL222852   9.060  20.940  10.130
  953BOLB   C1A22853   8.510  20.890  10.060
  953BOLB   C2A22854   8.240  20.980   9.810
  953BOLB   C3A22855   8.080  21.350   9.910
  953BOLB   C4A22856   7.800  21.520  10.120
  953BOLB   C1B22857   8.830  21.290  10.000
  953BOLB   C2B22858   8.500  21.540   9.690
  953BOLB   C3B22859   8.430  21.910   9.560
  953BOLB   C4B22860   8.570  22.300   9.730
  953BOLB   NC222861   5.200  22.060   9.820
  953BOLB   PO222862   5.610  22.200   9.930
  953BOLB   GL322863   5.950  22.230  10.100
  953BOLB   GL422864   6.030  22.480   9.990
  953BOLB   C1C22865   6.400  22.240  10.300
  953BOLB   C2C22866   6.850  22.100  10.530
  953BOLB   C3C22867   7.210  21.970  10.310
  953BOLB   C4C22868   7.430  21.630  10.240
  953BOLB   C1D22869   6.340  22.400   9.680
  953BOLB   C2D22870   6.600  22.490   9.440
  953BOLB   C3D22871   7.020  22.390   9.540
  953BOLB   C4D22872   7.280  22.290   9.850
  954BOLB   NC122873  16.310  16.300  27.900
  954BOLB   PO122874  16.050  15.880  27.880
  954BOLB   GL122875  15.790  15.660  27.670
  954BOLB   GL222876  15.510  15.560  27.780
  954BOLB   C1A22877  15.670  15.670  27.210
  954BOLB   C2A22878  15.710  15.380  26.860
  954BOLB   C3A22879  15.570  15.280  26.380
  954BOLB   C4A22880  15.840  15.350  26.020
  954BOLB   C1B22881  15.100  15.580  27.620
  954BOLB   C2B22882  14.700  15.620  27.490
  954BOLB   C3B22883  14.310  15.410  27.520
  954BOLB   C4B22884  14.180  15.070  27.410
  954BOLB   NC222885  17.840  15.040  26.490
  954BOLB   PO222886  17.520  15.180  26.650
  954BOLB   GL322887  17.030  15.100  26.590
  954BOLB   GL422888  17.110  15.150  26.290
  954BOLB   C1C22889  16.700  14.780  26.670
  954BOLB   C2C22890  16.590  14.440  26.490
  954BOLB   C3C22891  16.300  14.600  26.160
  954BOLB   C4C22892  16.080  15.030  26.040
  954BOLB   C1D22893  17.230  15.050  25.920
  954BOLB   C2D22894  17.540  15.180  25.620
  954BOLB   C3D22895  17.530  15.070  25.240
  954BOLB   C4D22896  17.470  14.750  24.980
  955BOLB   NC122897  12.140   4.720  21.120
  955BOLB   PO122898  11.730   4.930  20.830
  955BOLB   GL122899  11.450   5.140  20.580
  955BOLB   GL222900  11.330   5.480  20.790
  955BOLB   C1A22901  11.460   5.390  20.230
  955BOLB   C2A22902  11.330   5.580  19.970
  955BOLB   C3A22903  11.060   5.930  19.870
  955BOLB   C4A22904  11.060   6.180  19.540
  955BOLB   C1B22905  11.530   5.750  20.570
  955BOLB   C2B22906  11.570   5.970  20.180
  955BOLB   C3B22907  11.430   6.270  19.940
  955BOLB   C4B22908  11.230   6.590  19.880
  955BOLB   NC222909  10.910   5.200  17.150
  955BOLB   PO222910  10.500   5.000  17.490
  955BOLB   GL322911  10.620   5.280  17.830
  955BOLB   GL422912  10.800   5.540  17.660
  955BOLB   C1C22913  10.770   5.710  18.150
  955BOLB   C2C22914  10.830   5.800  18.560
  955BOLB   C3C22915  10.810   6.060  18.830
  955BOLB   C4C22916  11.030   6.260  19.060
  955BOLB   C1D22917  11.090   5.980  17.730
  955BOLB   C2D22918  11.270   6.290  17.950
  955BOLB   C3D22919  11.450   6.640  18.290
  955BOLB   C4D22920  11.630   6.990  18.580
  956BOLB   NC122921   5.220  12.850  22.490
  956BOLB   PO122922   4.820  12.980  22.270
  956BOLB   GL122923   5.160  13.110  21.990
  956BOLB   GL222924   5.360  13.410  22.030
  956BOLB   C1A22925   5.420  12.960  21.750
  956BOLB   C2A22926   5.810  13.160  21.560
  956BOLB   C3A22927   6.070  13.070  21.390
  956BOLB   C4A22928   6.340  13.380  21.370
  956BOLB   C1B22929   5.330  13.840  21.930
  956BOLB   C2B22930   5.400  14.220  21.800
  956BOLB   C3B22931   5.770  14.490  21.540
  956BOLB   C4B22932   6.170  14.670  21.620
  956BOLB   NC222933   5.760  13.180  23.390
  956BOLB   PO222934   5.450  12.980  23.080
  956BOLB   GL322935   5.870  12.980  22.910
  956BOLB   GL422936   6.130  13.240  22.900
  956BOLB   C1C22937   6.090  12.750  22.540
  956BOLB   C2C22938   6.460  12.880  22.260
  956BOLB   C3C22939   6.850  13.070  22.040
  956BOLB   C4C22940   6.710  13.250  21.600
  956BOLB   C1D22941   6.480  13.130  22.670
  956BOLB   C2D22942   6.740  13.360  22.610
  956BOLB   C3D22943   7.000  13.570  22.380
  956BOLB   C4D22944   7.090  13.840  22.220
  957BOLB   NC122945   5.260   9.390  20.940
  957BOLB   PO122946   5.520   9.280  20.730
  957BOLB   GL122947   5.640   9.620  20.500
  957BOLB   GL222948   5.640   9.970  20.510
  957BOLB   C1A22949   5.980   9.690  20.230
  957BOLB   C2A22950   6.130   9.810  19.910
  957BOLB   C3A22951   6.360   9.820  19.540
  957BOLB   C4A22952   6.800   9.830  19.330
  957BOLB   C1B22953   5.660  10.390  20.100
  957BOLB   C2B22954   6.030  10.610  19.820
  957BOLB   C3B22955   6.330  10.550  19.520
  957BOLB   C4B22956   6.300  10.820  19.130
  957BOLB   NC222957   6.360   9.540  21.130
  957BOLB   PO222958   6.160   9.960  21.330
  957BOLB   GL322959   6.310  10.290  20.910
  957BOLB   GL422960   6.050  10.600  20.950
  957BOLB   C1C22961   6.560  10.280  20.630
  957BOLB   C2C22962   6.840  10.180  20.360
  957BOLB   C3C22963   7.180   9.960  20.070
  957BOLB   C4C22964   7.100   9.910  19.590
  957BOLB   C1D22965   6.320  10.760  20.850
  957BOLB   C2D22966   6.740  10.830  20.660
  957BOLB   C3D22967   7.100  11.010  20.570
  957BOLB   C4D22968   7.570  11.090  20.570
  958BOLB   NC122969  16.450  23.070   8.660
  958BOLB   PO122970  16.790  23.310   8.720
  958BOLB   GL122971  16.730  23.500   8.330
  958BOLB   GL222972  16.920  23.710   8.020
  958BOLB   C1A22973  16.390  23.770   8.190
  958BOLB   C2A22974  16.260  24.210   8.130
  958BOLB   C3A22975  16.150  24.580   8.000
  958BOLB   C4A22976  16.300  24.750   7.650
  958BOLB   C1B22977  16.920  24.110   7.800
  958BOLB   C2B22978  16.650  24.370   7.580
  958BOLB   C3B22979  16.710  24.580   7.200
  958BOLB   C4B22980  16.930  25.130   7.200
  958BOLB   NC222981  17.160  27.270   6.650
  958BOLB   PO222982  16.900  26.940   6.450
  958BOLB   GL322983  16.690  26.620   6.520
  958BOLB   GL422984  16.500  26.540   6.300
  958BOLB   C1C22985  16.510  26.220   6.780
  958BOLB   C2C22986  16.460  25.890   7.020
  958BOLB   C3C22987  16.510  25.560   7.340
  958BOLB   C4C22988  16.460  25.130   7.450
  958BOLB   C1D22989  16.180  26.440   6.440
  958BOLB   C2D22990  15.990  26.550   6.770
  958BOLB   C3D22991  15.710  26.410   7.150
  958BOLB   C4D22992  15.880  26.620   7.590
  959BOLB   NC122993  20.820  15.070   0.310
  959BOLB   PO122994  20.820  15.000   0.820
  959BOLB   GL122995  20.880  15.030   1.280
  959BOLB   GL222996  20.920  14.760   1.520
  959BOLB   C1A22997  20.440  15.120   1.520
  959BOLB   C2A22998  20.290  15.030   1.970
  959BOLB   C3A22999  19.960  15.120   2.160
  959BOLB   C4A23000  19.520  15.200   2.320
  959BOLB   C1B23001  20.810  14.810   1.880
  959BOLB   C2B23002  20.870  15.100   2.150
  959BOLB   C3B23003  20.620  15.390   2.440
  959BOLB   C4B23004  20.230  15.470   2.790
  959BOLB   NC223005  18.590  15.730   4.370
  959BOLB   PO223006  18.790  16.110   4.310
  959BOLB   GL323007  18.700  15.850   3.900
  959BOLB   GL423008  18.770  16.090   3.550
  959BOLB   C1C23009  18.910  15.600   3.610
  959BOLB   C2C23010  19.000  15.700   3.270
  959BOLB   C3C23011  19.130  15.560   2.810
  959BOLB   C4C23012  19.330  15.520   2.440
  959BOLB   C1D23013  18.780  16.170   3.110
  959BOLB   C2D23014  19.050  16.170   2.940
  959BOLB   C3D23015  19.060  16.270   2.530
  959BOLB   C4D23016  19.220  15.960   2.250
  960BOLB   NC123017  14.800   9.930   7.610
  960BOLB   PO123018  14.610  10.090   7.390
  960BOLB   GL123019  14.600   9.660   7.160
  960BOLB   GL223020  14.850   9.690   6.860
  960BOLB   C1A23021  14.500   9.310   7.060
  960BOLB   C2A23022  14.060   9.110   7.080
  960BOLB   C3A23023  13.810   8.720   7.210
  960BOLB   C4A23024  13.460   8.410   7.070
  960BOLB   C1B23025  15.090   9.270   6.590
  960BOLB   C2B23026  15.310   8.960   6.300
  960BOLB   C3B23027  15.090   8.790   6.000
  960BOLB   C4B23028  15.090   8.480   5.720
  960BOLB   NC223029  12.030   7.350   6.500
  960BOLB   PO223030  12.180   6.920   6.580
  960BOLB   GL323031  12.570   7.180   6.690
  960BOLB   GL423032  12.330   7.250   6.910
  960BOLB   C1C23033  12.580   7.680   6.730
  960BOLB   C2C23034  12.490   8.020   6.970
  960BOLB   C3C23035  12.850   8.250   7.010
  960BOLB   C4C23036  13.220   8.260   7.150
  960BOLB   C1D23037  12.550   7.480   7.170
  960BOLB   C2D23038  12.830   7.540   7.540
  960BOLB   C3D23039  12.950   7.070   7.780
  960BOLB   C4D23040  12.810   6.660   7.790
  961BOLB   NC123041  13.170   5.300  23.350
  961BOLB   PO123042  13.020   5.640  23.010
  961BOLB   GL123043  12.940   6.100  22.990
  961BOLB   GL223044  13.140   6.290  22.900
  961BOLB   C1A23045  12.570   6.350  22.830
  961BOLB   C2A23046  12.510   6.760  22.730
  961BOLB   C3A23047  12.350   6.930  22.350
  961BOLB   C4A23048  12.140   7.010  22.070
  961BOLB   C1B23049  12.990   6.320  22.520
  961BOLB   C2B23050  12.860   6.280  22.070
  961BOLB   C3B23051  12.770   6.390  21.650
  961BOLB   C4B23052  12.690   6.710  21.440
  961BOLB   NC223053  11.670   7.270  24.350
  961BOLB   PO223054  11.360   7.380  23.960
  961BOLB   GL323055  11.630   7.460  23.600
  961BOLB   GL423056  11.650   7.780  23.660
  961BOLB   C1C23057  11.720   7.590  23.210
  961BOLB   C2C23058  11.530   7.490  22.770
  961BOLB   C3C23059  11.410   7.210  22.400
  961BOLB   C4C23060  11.800   7.050  22.030
  961BOLB   C1D23061  11.800   8.190  23.570
  961BOLB   C2D23062  12.230   8.270  23.670
  961BOLB   C3D23063  12.580   8.480  23.710
  961BOLB   C4D23064  12.970   8.740  23.690
  962BOLB   NC123065   6.770   9.880  22.500
  962BOLB   PO123066   6.580   9.890  22.050
  962BOLB   GL123067   7.040   9.910  22.100
  962BOLB   GL223068   6.900  10.210  21.880
  962BOLB   C1A23069   7.350   9.880  21.890
  962BOLB   C2A23070   7.670  10.020  21.550
  962BOLB   C3A23071   8.040  10.100  21.400
  962BOLB   C4A23072   8.160  10.050  20.960
  962BOLB   C1B23073   6.970  10.330  21.500
  962BOLB   C2B23074   6.810  10.400  21.120
  962BOLB   C3B23075   7.130  10.520  20.790
  962BOLB   C4B23076   7.570  10.590  20.700
  962BOLB   NC223077   7.550   8.930  22.280
  962BOLB   PO223078   7.890   8.520  22.410
  962BOLB   GL323079   8.140   8.580  22.060
  962BOLB   GL423080   8.000   8.940  22.030
  962BOLB   C1C23081   8.210   8.850  21.610
  962BOLB   C2C23082   8.370   9.150  21.300
  962BOLB   C3C23083   8.220   9.260  20.900
  962BOLB   C4C23084   8.210   9.650  20.740
  962BOLB   C1D23085   8.300   9.270  22.110
  962BOLB   C2D23086   8.680   9.480  21.920
  962BOLB   C3D23087   9.110   9.630  21.930
  962BOLB   C4D23088   9.430   9.870  21.920
  963BOLB   NC123089  12.000  10.740   9.890
  963BOLB   PO123090  11.440  10.580   9.770
  963BOLB   GL123091  10.980  10.360   9.680
  963BOLB   GL223092  10.870  10.420   9.320
  963BOLB   C1A23093  10.540  10.290   9.630
  963BOLB   C2A23094  10.240  10.160   9.650
  963BOLB   C3A23095   9.840   9.880   9.590
  963BOLB   C4A23096   9.500   9.610   9.740
  963BOLB   C1B23097  10.460  10.130   9.110
  963BOLB   C2B23098  10.030  10.030   9.120
  963BOLB   C3B23099   9.570   9.950   8.950
  963BOLB   C4B23100   9.230   9.960   8.920
  963BOLB   NC223101   8.000   7.810   8.500
  963BOLB   PO223102   7.730   8.010   8.900
  963BOLB   GL323103   8.120   8.180   9.210
  963BOLB   GL423104   8.280   8.040   9.390
  963BOLB   C1C23105   8.300   8.520   9.200
  963BOLB   C2C23106   8.450   8.720   9.570
  963BOLB   C3C23107   8.820   8.930   9.730
  963BOLB   C4C23108   9.150   9.230   9.650
  963BOLB   C1D23109   8.630   8.200   9.520
  963BOLB   C2D23110   9.020   8.170   9.820
  963BOLB   C3D23111   9.320   8.140  10.130
  963BOLB   C4D23112   9.860   8.210  10.060
  964BOLB   NC123113   0.920  18.450  15.590
  964BOLB   PO123114   1.220  18.540  15.810
  964BOLB   GL123115   1.660  18.550  15.690
  964BOLB   GL223116   1.740  18.850  15.880
  964BOLB   C1A23117   2.050  18.280  15.890
  964BOLB   C2A23118   2.460  18.040  15.930
  964BOLB   C3A23119   2.810  17.750  16.100
  964BOLB   C4A23120   3.010  17.740  16.540
  964BOLB   C1B23121   2.260  18.830  15.890
  964BOLB   C2B23122   2.580  18.560  15.860
  964BOLB   C3B23123   2.910  18.260  15.990
  964BOLB   C4B23124   3.220  18.190  16.220
  964BOLB   NC223125   1.320  17.680  17.860
  964BOLB   PO223126   1.410  18.020  17.930
  964BOLB   GL323127   1.800  17.720  17.860
  964BOLB   GL423128   1.780  17.480  17.550
  964BOLB   C1C23129   2.280  17.570  17.690
  964BOLB   C2C23130   2.680  17.740  17.600
  964BOLB   C3C23131   2.990  17.720  17.310
  964BOLB   C4C23132   3.170  17.630  16.920
  964BOLB   C1D23133   2.060  17.630  17.200
  964BOLB   C2D23134   2.420  17.630  17.000
  964BOLB   C3D23135   2.690  17.320  16.820
  964BOLB   C4D23136   2.940  17.220  16.470
  965BOLB   NC123137  14.920  23.910   9.480
  965BOLB   PO123138  15.020  23.850   9.100
  965BOLB   GL123139  15.070  24.230   8.970
  965BOLB   GL223140  14.860  24.340   9.120
  965BOLB   C1A23141  15.110  24.730   8.830
  965BOLB   C2A23142  14.940  25.020   8.660
  965BOLB   C3A23143  14.690  25.230   8.310
  965BOLB   C4A23144  14.810  25.440   7.880
  965BOLB   C1B23145  14.650  24.490   8.740
  965BOLB   C2B23146  14.480  24.790   8.720
  965BOLB   C3B23147  14.380  25.290   8.750
  965BOLB   C4B23148  14.420  25.640   8.520
  965BOLB   NC223149  13.880  27.530   6.820
  965BOLB   PO223150  14.030  27.300   6.520
  965BOLB   GL323151  14.290  27.170   6.890
  965BOLB   GL423152  14.560  27.140   6.900
  965BOLB   C1C23153  14.180  26.750   7.130
  965BOLB   C2C23154  14.320  26.350   7.100
  965BOLB   C3C23155  14.560  25.990   7.290
  965BOLB   C4C23156  14.760  25.610   7.530
  965BOLB   C1D23157  14.530  27.020   7.410
  965BOLB   C2D23158  14.570  26.610   7.570
  965BOLB   C3D23159  14.240  26.230   7.630
  965BOLB   C4D23160  14.020  25.800   7.750
  966BOLB   NC123161  13.880  14.600   4.620
  966BOLB   PO123162  13.640  14.440   4.350
  966BOLB   GL123163  13.420  14.180   4.030
  966BOLB   GL223164  13.640  14.220   3.800
  966BOLB   C1A23165  13.300  13.840   3.860
  966BOLB   C2A23166  13.110  13.620   3.620
  966BOLB   C3A23167  13.370  13.420   3.280
  966BOLB   C4A23168  13.540  13.400   2.910
  966BOLB   C1B23169  13.190  14.290   3.600
  966BOLB   C2B23170  12.860  14.180   3.360
  966BOLB   C3B23171  12.530  14.060   3.200
  966BOLB   C4B23172  12.380  14.090   2.750
  966BOLB   NC223173  13.210  13.420   0.610
  966BOLB   PO223174  13.240  13.070   0.350
  966BOLB   GL323175  13.070  12.970   0.850
  966BOLB   GL423176  12.900  13.220   1.070
  966BOLB   C1C23177  13.170  12.820   1.210
  966BOLB   C2C23178  13.320  12.900   1.650
  966BOLB   C3C23179  13.490  13.160   2.010
  966BOLB   C4C23180  13.500  13.220   2.460
  966BOLB   C1D23181  12.980  13.220   1.440
  966BOLB   C2D23182  12.960  13.140   1.850
  966BOLB   C3D23183  13.010  13.180   2.250
  966BOLB   C4D23184  13.150  12.960   2.660
  967BOLB   NC123185   4.170  10.060  18.750
  967BOLB   PO123186   4.180   9.640  18.650
  967BOLB   GL123187   4.420   9.790  18.380
  967BOLB   GL223188   4.470   9.670  18.010
  967BOLB   C1A23189   4.490  10.150  18.140
  967BOLB   C2A23190   4.540  10.650  17.970
  967BOLB   C3A23191   4.660  10.990  17.870
  967BOLB   C4A23192   4.900  11.010  17.560
  967BOLB   C1B23193   4.780   9.830  17.790
  967BOLB   C2B23194   5.010   9.970  17.490
  967BOLB   C3B23195   5.070  10.360  17.190
  967BOLB   C4B23196   5.020  10.360  16.730
  967BOLB   NC223197   3.600   9.620  17.480
  967BOLB   PO223198   3.720   9.450  17.830
  967BOLB   GL323199   4.090   9.610  17.590
  967BOLB   GL423200   4.080   9.600  17.290
  967BOLB   C1C23201   4.550   9.790  17.350
  967BOLB   C2C23202   4.670  10.030  17.140
  967BOLB   C3C23203   4.550  10.390  17.140
  967BOLB   C4C23204   4.850  10.810  17.250
  967BOLB   C1D23205   3.900   9.790  16.980
  967BOLB   C2D23206   3.990   9.810  16.650
  967BOLB   C3D23207   4.200  10.070  16.310
  967BOLB   C4D23208   4.090  10.430  16.110
  968BOLB   NC123209   8.800  12.660  26.400
  968BOLB   PO123210   8.620  12.430  25.900
  968BOLB   GL123211   8.690  12.290  25.410
  968BOLB   GL223212   8.900  12.220  25.360
  968BOLB   C1A23213   8.560  12.490  25.030
  968BOLB   C2A23214   8.600  12.470  24.590
  968BOLB   C3A23215   8.660  12.190  24.220
  968BOLB   C4A23216   8.690  11.880  23.810
  968BOLB   C1B23217   8.970  12.160  24.890
  968BOLB   C2B23218   9.200  12.240  24.500
  968BOLB   C3B23219   9.500  12.100  24.360
  968BOLB   C4B23220   9.800  12.050  24.090
  968BOLB   NC223221   7.470   9.800  23.140
  968BOLB   PO223222   7.520  10.100  23.420
  968BOLB   GL323223   7.790  10.400  23.320
  968BOLB   GL423224   8.150  10.380  23.350
  968BOLB   C1C23225   7.960  10.770  23.060
  968BOLB   C2C23226   8.210  11.150  23.070
  968BOLB   C3C23227   8.480  11.480  23.170
  968BOLB   C4C23228   8.670  11.600  23.540
  968BOLB   C1D23229   8.510  10.650  23.310
  968BOLB   C2D23230   8.650  10.980  22.950
  968BOLB   C3D23231   8.940  11.210  22.940
  968BOLB   C4D23232   9.000  11.570  23.120
  969BOLB   NC123233   6.640   6.140  19.270
  969BOLB   PO123234   6.880   6.430  19.280
  969BOLB   GL123235   6.940   6.870  19.110
  969BOLB   GL223236   6.730   6.900  18.750
  969BOLB   C1A23237   7.170   7.160  18.800
  969BOLB   C2A23238   7.190   7.430  18.500
  969BOLB   C3A23239   7.300   7.840  18.360
  969BOLB   C4A23240   7.440   8.150  18.710
  969BOLB   C1B23241   6.860   6.900  18.360
  969BOLB   C2B23242   7.250   6.960  18.100
  969BOLB   C3B23243   7.470   6.990  17.730
  969BOLB   C4B23244   7.640   7.290  17.580
  969BOLB   NC223245   5.620   8.000  19.810
  969BOLB   PO223246   5.920   8.300  19.810
  969BOLB   GL323247   6.080   8.570  19.570
  969BOLB   GL423248   6.310   8.440  19.470
  969BOLB   C1C23249   6.330   8.960  19.390
  969BOLB   C2C23250   6.690   9.040  19.140
  969BOLB   C3C23251   7.050   8.750  19.160
  969BOLB   C4C23252   7.350   8.500  18.890
  969BOLB   C1D23253   6.730   8.570  19.460
  969BOLB   C2D23254   7.140   8.480  19.540
  969BOLB   C3D23255   7.440   8.210  19.320
  969BOLB   C4D23256   7.560   7.760  19.440
  970BOLB   NC123257   9.920   8.100  23.470
  970BOLB   PO123258   9.880   7.780  23.210
  970BOLB   GL123259   9.980   8.090  23.020
  970BOLB   GL223260  10.030   8.030  22.650
  970BOLB   C1A23261   9.870   8.510  22.930
  970BOLB   C2A23262   9.760   8.990  22.920
  970BOLB   C3A23263   9.900   9.460  22.710
  970BOLB   C4A23264   9.890   9.900  22.910
  970BOLB   C1B23265  10.350   8.390  22.620
  970BOLB   C2B23266  10.760   8.740  22.450
  970BOLB   C3B23267  11.040   8.710  22.030
  970BOLB   C4B23268  11.400   8.480  21.790
  970BOLB   NC223269   8.520   9.830  24.930
  970BOLB   PO223270   8.650  10.220  25.050
  970BOLB   GL323271   8.800  10.260  24.650
  970BOLB   GL423272   8.570  10.210  24.340
  970BOLB   C1C23273   9.100  10.400  24.260
  970BOLB   C2C23274   9.320  10.340  23.830
  970BOLB   C3C23275   9.480  10.370  23.420
  970BOLB   C4C23276   9.650  10.160  23.100
  970BOLB   C1D23277   8.840  10.060  24.040
  970BOLB   C2D23278   8.990  10.010  23.530
  970BOLB   C3D23279   9.290   9.850  23.200
  970BOLB   C4D23280   9.450   9.700  22.850
  971BOLB   NC123281   2.160  16.060  19.210
  971BOLB   PO123282   1.980  16.060  18.860
  971BOLB   GL123283   2.020  16.100  18.390
  971BOLB   GL223284   2.020  16.390  18.400
  971BOLB   C1A23285   2.180  16.080  17.960
  971BOLB   C2A23286   2.280  15.800  17.640
  971BOLB   C3A23287   2.520  15.390  17.530
  971BOLB   C4A23288   2.900  15.340  17.330
  971BOLB   C1B23289   2.450  16.380  18.390
  971BOLB   C2B23290   2.800  16.220  18.190
  971BOLB   C3B23291   3.130  15.880  18.230
  971BOLB   C4B23292   3.450  15.590  18.130
  971BOLB   NC223293   1.610  13.680  17.920
  971BOLB   PO223294   2.030  13.660  17.860
  971BOLB   GL323295   2.470  13.970  17.850
  971BOLB   GL423296   2.720  13.800  18.000
  971BOLB   C1C23297   2.750  14.300  17.660
  971BOLB   C2C23298   3.200  14.360  17.520
  971BOLB   C3C23299   3.280  14.720  17.360
  971BOLB   C4C23300   3.280  15.170  17.360
  971BOLB   C1D23301   3.150  13.920  17.750
  971BOLB   C2D23302   3.410  13.890  17.410
  971BOLB   C3D23303   3.650  13.660  17.250
  971BOLB   C4D23304   4.050  13.520  17.080
  972BOLB   NC123305  11.530  26.440  22.810
  972BOLB   PO123306  11.060  26.440  22.880
  972BOLB   GL123307  11.090  25.990  22.790
  972BOLB   GL223308  11.430  25.960  22.950
  972BOLB   C1A23309  10.950  25.530  22.660
  972BOLB   C2A23310  10.980  25.060  22.580
  972BOLB   C3A23311  10.760  24.670  22.620
  972BOLB   C4A23312  10.980  24.280  22.610
  972BOLB   C1B23313  11.420  25.650  22.670
  972BOLB   C2B23314  11.560  25.500  22.420
  972BOLB   C3B23315  11.750  25.260  22.120
  972BOLB   C4B23316  11.920  24.800  22.040
  972BOLB   NC223317  11.820  25.600  24.490
  972BOLB   PO223318  11.430  25.750  24.260
  972BOLB   GL323319  11.430  25.320  24.130
  972BOLB   GL423320  11.130  25.140  24.050
  972BOLB   C1C23321  11.590  24.980  23.880
  972BOLB   C2C23322  11.590  24.620  23.640
  972BOLB   C3C23323  11.490  24.390  23.310
  972BOLB   C4C23324  11.280  24.150  22.920
  972BOLB   C1D23325  10.880  24.760  24.080
  972BOLB   C2D23326  10.620  24.520  23.880
  972BOLB   C3D23327  10.200  24.330  23.860
  972BOLB   C4D23328  10.190  23.840  23.790
  973BOLB   NC123329   0.970  19.200  13.310
  973BOLB   PO123330   1.300  19.090  12.990
  973BOLB   GL123331   1.450  18.900  13.500
  973BOLB   GL223332   1.760  18.790  13.370
  973BOLB   C1A23333   1.750  18.600  13.830
  973BOLB   C2A23334   2.020  18.580  14.160
  973BOLB   C3A23335   2.420  18.640  14.380
  973BOLB   C4A23336   2.760  18.690  14.640
  973BOLB   C1B23337   1.800  18.450  13.120
  973BOLB   C2B23338   2.040  18.090  13.360
  973BOLB   C3B23339   2.370  17.730  13.120
  973BOLB   C4B23340   2.750  17.560  13.090
  973BOLB   NC223341   1.020  17.630  15.810
  973BOLB   PO223342   1.010  17.870  16.060
  973BOLB   GL323343   1.480  17.920  15.970
  973BOLB   GL423344   1.670  17.860  16.220
  973BOLB   C1C23345   1.690  17.990  15.630
  973BOLB   C2C23346   2.090  18.070  15.430
  973BOLB   C3C23347   2.340  18.430  15.280
  973BOLB   C4C23348   2.650  18.600  15.040
  973BOLB   C1D23349   1.990  17.790  16.110
  973BOLB   C2D23350   2.320  17.610  16.280
  973BOLB   C3D23351   2.490  17.880  16.540
  973BOLB   C4D23352   2.780  18.180  16.530
  974BOLB   NC123353  18.880  28.950  11.540
  974BOLB   PO123354  19.060  28.780  11.180
  974BOLB   GL123355  18.800  28.440  11.240
  974BOLB   GL223356  18.960  28.250  11.280
  974BOLB   C1A23357  18.490  28.190  10.890
  974BOLB   C2A23358  18.410  27.780  11.000
  974BOLB   C3A23359  18.290  27.610  11.440
  974BOLB   C4A23360  18.240  27.380  11.720
  974BOLB   C1B23361  18.780  27.780  11.400
  974BOLB   C2B23362  18.790  27.400  11.600
  974BOLB   C3B23363  19.140  27.090  11.740
  974BOLB   C4B23364  19.580  27.090  11.810
  974BOLB   NC223365  18.870  25.100  12.100
  974BOLB   PO223366  18.520  25.050  12.110
  974BOLB   GL323367  18.320  25.390  12.230
  974BOLB   GL423368  18.090  25.550  12.020
  974BOLB   C1C23369  18.440  25.780  12.350
  974BOLB   C2C23370  18.490  26.220  12.170
  974BOLB   C3C23371  18.730  26.610  12.020
  974BOLB   C4C23372  18.530  26.990  11.820
  974BOLB   C1D23373  17.880  25.810  12.320
  974BOLB   C2D23374  17.610  26.010  12.570
  974BOLB   C3D23375  17.750  26.280  12.960
  974BOLB   C4D23376  17.780  26.710  13.100
  975BOLB   NC123377   3.200  23.240  19.690
  975BOLB   PO123378   3.190  23.570  19.400
  975BOLB   GL123379   3.620  23.460  19.390
  975BOLB   GL223380   3.590  23.090  19.450
  975BOLB   C1A23381   3.960  23.450  19.560
  975BOLB   C2A23382   4.390  23.370  19.660
  975BOLB   C3A23383   4.770  23.570  19.510
  975BOLB   C4A23384   4.800  23.540  19.000
  975BOLB   C1B23385   3.860  23.020  19.240
  975BOLB   C2B23386   4.210  22.660  19.220
  975BOLB   C3B23387   4.490  22.510  18.820
  975BOLB   C4B23388   4.840  22.400  18.550
  975BOLB   NC223389   4.890  25.700  18.950
  975BOLB   PO223390   4.880  25.460  18.560
  975BOLB   GL323391   5.150  25.070  18.510
  975BOLB   GL423392   5.320  25.090  18.180
  975BOLB   C1C23393   5.470  24.770  18.670
  975BOLB   C2C23394   5.650  24.290  18.780
  975BOLB   C3C23395   5.460  23.860  18.760
  975BOLB   C4C23396   5.120  23.620  18.760
  975BOLB   C1D23397   5.260  24.660  18.230
  975BOLB   C2D23398   5.500  24.260  18.260
  975BOLB   C3D23399   5.820  24.040  18.330
  975BOLB   C4D23400   6.110  23.890  18.680
  976BOLB   NC123401   6.570  13.860  24.430
  976BOLB   PO123402   6.710  13.410  24.220
  976BOLB   GL123403   6.900  13.500  23.820
  976BOLB   GL223404   6.740  13.580  23.570
  976BOLB   C1A23405   7.240  13.580  23.560
  976BOLB   C2A23406   7.640  13.640  23.390
  976BOLB   C3A23407   7.820  13.410  23.010
  976BOLB   C4A23408   7.650  13.160  22.670
  976BOLB   C1B23409   6.970  13.850  23.240
  976BOLB   C2B23410   7.360  13.930  22.980
  976BOLB   C3B23411   7.780  14.010  23.050
  976BOLB   C4B23412   8.070  13.750  23.250
  976BOLB   NC223413   5.690  12.210  23.150
  976BOLB   PO223414   5.970  12.250  23.470
  976BOLB   GL323415   6.370  12.350  23.260
  976BOLB   GL423416   6.180  12.450  23.000
  976BOLB   C1C23417   6.770  12.410  23.090
  976BOLB   C2C23418   7.110  12.440  22.860
  976BOLB   C3C23419   7.430  12.590  22.540
  976BOLB   C4C23420   7.710  12.870  22.480
  976BOLB   C1D23421   6.540  12.620  22.750
  976BOLB   C2D23422   6.850  12.630  22.510
  976BOLB   C3D23423   7.150  13.030  22.530
  976BOLB   C4D23424   7.450  13.300  22.220
  977BOLB   NC123425   7.270  24.500   8.330
  977BOLB   PO123426   7.550  24.380   8.190
  977BOLB   GL123427   7.760  24.000   8.340
  977BOLB   GL223428   7.560  23.790   8.290
  977BOLB   C1A23429   7.810  23.600   8.650
  977BOLB   C2A23430   7.510  23.360   8.910
  977BOLB   C3A23431   7.540  22.920   9.030
  977BOLB   C4A23432   7.880  22.790   9.200
  977BOLB   C1B23433   7.570  23.310   8.230
  977BOLB   C2B23434   7.690  23.060   7.880
  977BOLB   C3B23435   7.910  22.960   7.490
  977BOLB   C4B23436   8.170  22.690   7.310
  977BOLB   NC223437   6.400  23.460   7.880
  977BOLB   PO223438   6.620  23.460   8.220
  977BOLB   GL323439   7.000  23.350   8.280
  977BOLB   GL423440   7.200  23.510   8.530
  977BOLB   C1C23441   7.310  23.050   8.520
  977BOLB   C2C23442   7.710  22.830   8.390
  977BOLB   C3C23443   8.040  22.630   8.600
  977BOLB   C4C23444   8.220  22.740   9.020
  977BOLB   C1D23445   7.060  23.130   8.980
  977BOLB   C2D23446   7.080  22.680   9.030
  977BOLB   C3D23447   7.320  22.330   9.170
  977BOLB   C4D23448   7.500  22.090   9.440
  978BOLB   NC123449  16.870   7.590  24.670
  978BOLB   PO123450  16.490   7.780  24.710
  978BOLB   GL123451  16.430   8.040  24.390
  978BOLB   GL223452  16.530   8.270  24.460
  978BOLB   C1A23453  16.150   8.440  24.200
  978BOLB   C2A23454  15.720   8.580  24.040
  978BOLB   C3A23455  15.430   8.730  23.790
  978BOLB   C4A23456  15.110   9.040  23.830
  978BOLB   C1B23457  16.560   8.740  24.380
  978BOLB   C2B23458  16.700   9.060  24.210
  978BOLB   C3B23459  16.470   9.320  24.000
  978BOLB   C4B23460  16.450   9.790  23.970
  978BOLB   NC223461  15.840   8.000  25.280
  978BOLB   PO223462  16.070   8.330  25.460
  978BOLB   GL323463  15.800   8.580  25.130
  978BOLB   GL423464  15.520   8.400  25.180
  978BOLB   C1C23465  15.430   8.830  24.930
  978BOLB   C2C23466  15.080   8.860  24.680
  978BOLB   C3C23467  14.750   8.730  24.370
  978BOLB   C4C23468  14.760   9.010  24.120
  978BOLB   C1D23469  15.190   8.410  24.770
  978BOLB   C2D23470  14.720   8.480  24.770
  978BOLB   C3D23471  14.560   8.900  24.870
  978BOLB   C4D23472  14.790   9.220  24.600
  979BOLB   NC123473  25.510  18.240  18.720
  979BOLB   PO123474  25.480  17.840  18.900
  979BOLB   GL123475  25.150  17.770  18.640
  979BOLB   GL223476  25.340  17.810  18.380
  979BOLB   C1A23477  24.780  17.630  18.500
  979BOLB   C2A23478  24.380  17.340  18.280
  979BOLB   C3A23479  24.210  17.010  17.990
  979BOLB   C4A23480  24.370  16.630  18.000
  979BOLB   C1B23481  25.170  17.780  18.040
  979BOLB   C2B23482  25.030  18.040  17.760
  979BOLB   C3B23483  25.120  18.500  17.780
  979BOLB   C4B23484  25.130  18.730  17.340
  979BOLB   NC223485  25.550  15.440  19.170
  979BOLB   PO223486  25.870  15.680  19.070
  979BOLB   GL323487  25.620  15.900  18.880
  979BOLB   GL423488  25.390  16.230  18.960
  979BOLB   C1C23489  25.190  15.970  18.640
  979BOLB   C2C23490  25.100  15.940  18.210
  979BOLB   C3C23491  24.630  16.000  18.070
  979BOLB   C4C23492  24.340  16.270  17.900
  979BOLB   C1D23493  24.990  16.290  18.930
  979BOLB   C2D23494  24.740  16.070  18.750
  979BOLB   C3D23495  24.470  15.820  18.530
  979BOLB   C4D23496  24.170  15.820  18.210
  980BOLB   NC123497  13.130   9.190  10.010
  980BOLB   PO123498  13.410   9.430   9.640
  980BOLB   GL123499  13.450   8.980   9.700
  980BOLB   GL223500  13.340   8.710   9.930
  980BOLB   C1A23501  13.610   8.700   9.400
  980BOLB   C2A23502  13.360   8.490   9.080
  980BOLB   C3A23503  13.030   8.260   8.850
  980BOLB   C4A23504  12.690   7.970   9.100
  980BOLB   C1B23505  13.400   8.350   9.760
  980BOLB   C2B23506  13.190   7.970   9.790
  980BOLB   C3B23507  12.940   7.650   9.960
  980BOLB   C4B23508  12.720   7.190   9.960
  980BOLB   NC223509  11.990   5.840   7.330
  980BOLB   PO223510  11.730   6.020   7.800
  980BOLB   GL323511  11.770   6.380   8.180
  980BOLB   GL423512  11.500   6.420   8.350
  980BOLB   C1C23513  11.930   6.760   8.410
  980BOLB   C2C23514  11.970   7.190   8.680
  980BOLB   C3C23515  12.160   7.570   8.790
  980BOLB   C4C23516  12.290   7.760   8.980
  980BOLB   C1D23517  11.490   6.760   8.640
  980BOLB   C2D23518  11.390   7.190   8.620
  980BOLB   C3D23519  11.630   7.520   8.670
  980BOLB   C4D23520  11.800   7.930   8.750
  981BOLB   NC123521  17.180  13.350  26.890
  981BOLB   PO123522  17.540  12.970  26.810
  981BOLB   GL123523  17.290  13.010  26.500
  981BOLB   GL223524  17.380  13.340  26.390
  981BOLB   C1A23525  17.090  12.770  26.140
  981BOLB   C2A23526  17.070  12.350  25.990
  981BOLB   C3A23527  16.960  12.150  26.320
  981BOLB   C4A23528  16.730  11.830  26.520
  981BOLB   C1B23529  17.200  13.250  25.960
  981BOLB   C2B23530  16.950  13.000  25.720
  981BOLB   C3B23531  16.830  12.640  25.660
  981BOLB   C4B23532  16.660  12.280  25.590
  981BOLB   NC223533  15.650   9.470  26.770
  981BOLB   PO223534  15.870   9.720  26.480
  981BOLB   GL323535  16.050  10.100  26.300
  981BOLB   GL423536  15.820  10.270  26.560
  981BOLB   C1C23537  16.170  10.430  26.050
  981BOLB   C2C23538  16.320  10.810  25.990
  981BOLB   C3C23539  16.400  11.200  26.090
  981BOLB   C4C23540  16.500  11.620  26.310
  981BOLB   C1D23541  15.640  10.230  26.160
  981BOLB   C2D23542  15.430  10.360  25.760
  981BOLB   C3D23543  15.440  10.660  25.470
  981BOLB   C4D23544  15.170  10.970  25.200
  982BOLB   NC123545  20.940  10.550   9.990
  982BOLB   PO123546  21.230  10.990   9.730
  982BOLB   GL123547  21.670  10.980   9.550
  982BOLB   GL223548  21.840  10.990   9.830
  982BOLB   C1A23549  21.830  10.610   9.390
  982BOLB   C2A23550  21.860  10.300   9.000
  982BOLB   C3A23551  22.120   9.960   8.920
  982BOLB   C4A23552  22.460   9.580   9.100
  982BOLB   C1B23553  21.870  10.450   9.840
  982BOLB   C2B23554  21.980   9.960   9.940
  982BOLB   C3B23555  22.240   9.670  10.050
  982BOLB   C4B23556  22.650   9.530   9.950
  982BOLB   NC223557  24.210   8.450   7.650
  982BOLB   PO223558  24.320   8.660   8.030
  982BOLB   GL323559  23.920   8.790   8.280
  982BOLB   GL423560  23.990   9.060   8.220
  982BOLB   C1C23561  23.660   8.630   8.510
  982BOLB   C2C23562  23.150   8.680   8.500
  982BOLB   C3C23563  22.760   8.950   8.630
  982BOLB   C4C23564  22.670   9.260   8.870
  982BOLB   C1D23565  23.580   9.130   8.430
  982BOLB   C2D23566  23.550   9.620   8.510
  982BOLB   C3D23567  23.930   9.840   8.350
  982BOLB   C4D23568  24.200   9.500   8.010
  983BOLB   NC123569   8.190   8.300   6.870
  983BOLB   PO123570   8.160   8.450   7.140
  983BOLB   GL123571   8.450   8.690   7.530
  983BOLB   GL223572   8.200   8.910   7.780
  983BOLB   C1A23573   8.670   8.660   7.910
  983BOLB   C2A23574   9.000   8.500   8.210
  983BOLB   C3A23575   9.190   8.460   8.630
  983BOLB   C4A23576   9.130   8.610   9.090
  983BOLB   C1B23577   8.500   9.180   7.770
  983BOLB   C2B23578   8.580   9.560   7.720
  983BOLB   C3B23579   8.370   9.940   7.410
  983BOLB   C4B23580   8.050   9.930   7.130
  983BOLB   NC223581   9.100   6.760   9.350
  983BOLB   PO223582   9.200   6.870   9.030
  983BOLB   GL323583   9.510   7.130   9.210
  983BOLB   GL423584   9.870   7.190   9.140
  983BOLB   C1C23585   9.660   7.480   9.520
  983BOLB   C2C23586   9.560   7.940   9.720
  983BOLB   C3C23587   9.530   8.420   9.800
  983BOLB   C4C23588   9.280   8.600   9.530
  983BOLB   C1D23589  10.120   7.580   8.970
  983BOLB   C2D23590  10.230   7.930   8.930
  983BOLB   C3D23591  10.280   8.350   9.090
  983BOLB   C4D23592  10.460   8.760   9.110
  984BOLB   NC123593   5.030   7.380  16.250
  984BOLB   PO123594   4.790   7.690  16.130
  984BOLB   GL123595   5.090   8.000  16.200
  984BOLB   GL223596   4.960   8.260  16.100
  984BOLB   C1A23597   5.490   8.140  16.250
  984BOLB   C2A23598   5.720   8.230  16.680
  984BOLB   C3A23599   5.490   8.510  16.910
  984BOLB   C4A23600   5.090   8.860  16.910
  984BOLB   C1B23601   5.290   8.570  16.230
  984BOLB   C2B23602   5.660   8.630  16.400
  984BOLB   C3B23603   6.050   8.710  16.650
  984BOLB   C4B23604   6.270   8.190  16.770
  984BOLB   NC223605   5.250   7.790  18.860
  984BOLB   PO223606   5.380   8.190  18.630
  984BOLB   GL323607   5.290   8.540  18.550
  984BOLB   GL423608   5.400   8.840  18.660
  984BOLB   C1C23609   5.230   8.560  18.090
  984BOLB   C2C23610   5.180   8.720  17.780
  984BOLB   C3C23611   4.890   8.930  17.450
  984BOLB   C4C23612   4.730   8.850  17.050
  984BOLB   C1D23613   5.790   8.840  18.840
  984BOLB   C2D23614   6.090   8.540  18.980
  984BOLB   C3D23615   6.540   8.510  19.050
  984BOLB   C4D23616   6.990   8.260  19.150
  985BOLB   NC123617  10.510   7.940   6.730
  985BOLB   PO123618  10.250   8.160   6.280
  985BOLB   GL123619  10.630   8.390   6.120
  985BOLB   GL223620  10.750   8.520   5.750
  985BOLB   C1A23621  10.860   8.710   6.210
  985BOLB   C2A23622  10.880   9.010   6.540
  985BOLB   C3A23623  11.130   9.350   6.520
  985BOLB   C4A23624  11.520   9.530   6.290
  985BOLB   C1B23625  10.980   8.870   5.650
  985BOLB   C2B23626  11.060   9.220   5.980
  985BOLB   C3B23627  11.330   9.440   5.900
  985BOLB   C4B23628  11.590   9.880   5.920
  985BOLB   NC223629  10.460   7.930   5.880
  985BOLB   PO223630  10.860   7.990   5.790
  985BOLB   GL323631  11.160   8.250   5.950
  985BOLB   GL423632  11.380   8.200   6.110
  985BOLB   C1C23633  11.410   8.680   5.980
  985BOLB   C2C23634  11.540   8.930   5.650
  985BOLB   C3C23635  11.750   9.200   5.720
  985BOLB   C4C23636  11.820   9.480   6.070
  985BOLB   C1D23637  11.720   8.430   6.250
  985BOLB   C2D23638  12.000   8.540   6.550
  985BOLB   C3D23639  12.210   8.500   6.910
  985BOLB   C4D23640  12.190   8.840   7.190
  986BOLB   NC123641   0.870  15.400  13.390
  986BOLB   PO123642   1.240  15.580  13.270
  986BOLB   GL123643   1.540  15.360  13.150
  986BOLB   GL223644   1.800  15.660  13.220
  986BOLB   C1A23645   1.820  15.210  13.000
  986BOLB   C2A23646   2.090  15.280  13.420
  986BOLB   C3A23647   2.130  15.620  13.750
  986BOLB   C4A23648   2.260  15.570  14.090
  986BOLB   C1B23649   1.950  15.980  13.410
  986BOLB   C2B23650   1.880  16.400  13.510
  986BOLB   C3B23651   1.700  16.770  13.640
  986BOLB   C4B23652   1.510  17.070  13.430
  986BOLB   NC223653   0.580  16.580  15.350
  986BOLB   PO223654   0.870  16.830  15.490
  986BOLB   GL323655   1.360  16.800  15.530
  986BOLB   GL423656   1.330  16.610  15.820
  986BOLB   C1C23657   1.790  16.750  15.250
  986BOLB   C2C23658   2.040  16.640  14.960
  986BOLB   C3C23659   2.200  16.380  14.620
  986BOLB   C4C23660   2.230  16.000  14.400
  986BOLB   C1D23661   1.700  16.660  15.910
  986BOLB   C2D23662   2.090  16.530  16.000
  986BOLB   C3D23663   2.510  16.340  15.940
  986BOLB   C4D23664   2.890  16.400  15.670
  987BOLB   NC123665   8.810  15.730   9.620
  987BOLB   PO123666   8.690  15.330   9.740
  987BOLB   GL123667   8.380  15.200   9.360
  987BOLB   GL223668   8.360  15.430   9.030
  987BOLB   C1A23669   7.940  15.110   9.160
  987BOLB   C2A23670   7.520  15.190   9.110
  987BOLB   C3A23671   7.160  14.990   9.110
  987BOLB   C4A23672   6.850  14.860   9.360
  987BOLB   C1B23673   8.020  15.440   8.730
  987BOLB   C2B23674   7.810  15.370   8.310
  987BOLB   C3B23675   7.350  15.400   8.260
  987BOLB   C4B23676   7.000  15.490   8.210
  987BOLB   NC223677   5.380  13.200   8.620
  987BOLB   PO223678   4.870  13.390   8.780
  987BOLB   GL323679   5.280  13.600   8.900
  987BOLB   GL423680   5.060  13.800   9.070
  987BOLB   C1C23681   5.650  13.580   9.150
  987BOLB   C2C23682   5.960  13.920   9.400
  987BOLB   C3C23683   6.210  14.240   9.510
  987BOLB   C4C23684   6.460  14.600   9.350
  987BOLB   C1D23685   5.510  14.050   9.240
  987BOLB   C2D23686   5.610  14.360   9.590
  987BOLB   C3D23687   5.890  14.570   9.770
  987BOLB   C4D23688   6.090  14.970  10.080
  988BOLB   NC123689  18.440  12.530  25.860
  988BOLB   PO123690  18.330  12.920  25.710
  988BOLB   GL123691  18.200  12.820  25.330
  988BOLB   GL223692  18.250  12.700  25.080
  988BOLB   C1A23693  17.750  12.730  25.260
  988BOLB   C2A23694  17.280  12.720  25.210
  988BOLB   C3A23695  16.890  13.000  25.130
  988BOLB   C4A23696  16.690  13.350  25.270
  988BOLB   C1B23697  18.230  13.150  24.880
  988BOLB   C2B23698  17.770  13.460  24.800
  988BOLB   C3B23699  17.460  13.600  24.550
  988BOLB   C4B23700  17.490  13.590  24.140
  988BOLB   NC223701  17.020  13.900  27.720
  988BOLB   PO223702  16.980  13.730  27.190
  988BOLB   GL323703  16.700  13.680  26.960
  988BOLB   GL423704  16.420  13.640  27.140
  988BOLB   C1C23705  16.510  13.910  26.590
  988BOLB   C2C23706  16.220  13.670  26.300
  988BOLB   C3C23707  16.270  13.650  25.910
  988BOLB   C4C23708  16.350  13.490  25.520
  988BOLB   C1D23709  16.070  13.680  26.770
  988BOLB   C2D23710  15.720  13.530  26.520
  988BOLB   C3D23711  15.460  13.460  26.090
  988BOLB   C4D23712  15.010  13.610  26.020
  989BOLB   NC123713  11.180   9.510  25.130
  989BOLB   PO123714  11.210   9.020  25.110
  989BOLB   GL123715  11.530   9.200  24.760
  989BOLB   GL223716  11.700   9.340  24.970
  989BOLB   C1A23717  11.860   9.400  24.530
  989BOLB   C2A23718  12.060   9.670  24.230
  989BOLB   C3A23719  12.360  10.030  24.400
  989BOLB   C4A23720  12.700  10.380  24.520
  989BOLB   C1B23721  12.190   9.500  24.940
  989BOLB   C2B23722  12.390   9.450  24.560
  989BOLB   C3B23723  12.760   9.610  24.370
  989BOLB   C4B23724  13.060   9.660  24.000
  989BOLB   NC223725  11.520  10.070  26.730
  989BOLB   PO223726  11.870  10.180  26.590
  989BOLB   GL323727  12.090  10.490  26.310
  989BOLB   GL423728  11.880  10.640  26.100
  989BOLB   C1C23729  12.390  10.640  26.040
  989BOLB   C2C23730  12.680  10.700  25.660
  989BOLB   C3C23731  12.920  10.610  25.370
  989BOLB   C4C23732  12.940  10.520  24.840
  989BOLB   C1D23733  12.050  10.360  25.790
  989BOLB   C2D23734  12.460  10.270  25.650
  989BOLB   C3D23735  12.670   9.940  25.290
  989BOLB   C4D23736  12.740   9.860  24.890
  990BOLB   NC123737  12.920  17.280   4.910
  990BOLB   PO123738  13.120  17.180   4.490
  990BOLB   GL123739  13.170  17.240   4.120
  990BOLB   GL223740  13.360  17.550   4.090
  990BOLB   C1A23741  13.270  17.100   3.720
  990BOLB   C2A23742  13.060  17.300   3.440
  990BOLB   C3A23743  12.800  17.510   3.290
  990BOLB   C4A23744  12.440  17.620   3.050
  990BOLB   C1B23745  12.920  17.570   3.790
  990BOLB   C2B23746  12.740  17.910   3.620
  990BOLB   C3B23747  12.560  18.230   3.540
  990BOLB   C4B23748  12.480  18.410   3.180
  990BOLB   NC223749  10.730  18.350   1.430
  990BOLB   PO223750  10.830  18.200   1.890
  990BOLB   GL323751  11.010  17.750   1.860
  990BOLB   GL423752  11.020  17.630   2.130
  990BOLB   C1C23753  11.470  17.740   1.920
  990BOLB   C2C23754  11.790  17.730   2.240
  990BOLB   C3C23755  11.820  17.500   2.690
  990BOLB   C4C23756  12.040  17.440   3.030
  990BOLB   C1D23757  10.920  17.930   2.520
  990BOLB   C2D23758  11.180  18.130   2.930
  990BOLB   C3D23759  11.650  18.310   3.050
  990BOLB   C4D23760  11.950  18.470   3.310
  991BOLB   NC123761   4.060   8.060  16.200
  991BOLB   PO123762   4.050   8.080  15.740
  991BOLB   GL123763   4.400   8.160  15.350
  991BOLB   GL223764   4.450   8.570  15.230
  991BOLB   C1A23765   4.640   8.160  14.930
  991BOLB   C2A23766   4.980   8.390  14.910
  991BOLB   C3A23767   5.170   8.740  14.750
  991BOLB   C4A23768   5.220   9.250  14.810
  991BOLB   C1B23769   4.620   8.810  15.110
  991BOLB   C2B23770   4.950   8.990  15.150
  991BOLB   C3B23771   5.290   9.090  15.430
  991BOLB   C4B23772   5.720   9.270  15.630
  991BOLB   NC223773   3.910   8.660  13.680
  991BOLB   PO223774   3.810   8.980  13.390
  991BOLB   GL323775   3.870   9.350  13.560
  991BOLB   GL423776   3.710   9.300  13.950
  991BOLB   C1C23777   4.300   9.500  13.650
  991BOLB   C2C23778   4.550   9.360  14.000
  991BOLB   C3C23779   4.680   9.550  14.340
  991BOLB   C4C23780   4.880   9.550  14.740
  991BOLB   C1D23781   3.720   9.800  13.670
  991BOLB   C2D23782   4.100   9.980  13.590
  991BOLB   C3D23783   4.500   9.930  13.490
  991BOLB   C4D23784   4.980   9.800  13.450
  992BOLB   NC123785  13.390  10.720   7.140
  992BOLB   PO123786  13.440  10.790   6.760
  992BOLB   GL123787  13.630  10.490   6.380
  992BOLB   GL223788  13.930  10.380   6.310
  992BOLB   C1A23789  13.530  10.110   6.150
  992BOLB   C2A23790  13.410   9.690   6.130
  992BOLB   C3A23791  13.110   9.430   6.140
  992BOLB   C4A23792  12.810   9.170   5.870
  992BOLB   C1B23793  14.090  10.090   6.110
  992BOLB   C2B23794  14.030   9.650   5.940
  992BOLB   C3B23795  14.180   9.300   6.120
  992BOLB   C4B23796  14.340   8.810   6.100
  992BOLB   NC223797  11.650   7.850   4.200
  992BOLB   PO223798  11.700   8.350   4.290
  992BOLB   GL323799  11.660   8.430   4.690
  992BOLB   GL423800  11.880   8.250   4.940
  992BOLB   C1C23801  11.750   8.890   4.790
  992BOLB   C2C23802  11.870   9.040   5.080
  992BOLB   C3C23803  12.100   9.120   5.450
  992BOLB   C4C23804  12.540   8.950   5.580
  992BOLB   C1D23805  11.910   8.100   5.410
  992BOLB   C2D23806  12.000   8.110   5.960
  992BOLB   C3D23807  12.200   8.430   6.130
  992BOLB   C4D23808  12.590   8.730   6.080
  993BOLB   NC123809  18.180  16.770  25.570
  993BOLB   PO123810  18.230  17.010  25.150
  993BOLB   GL123811  17.950  16.700  25.130
  993BOLB   GL223812  17.750  16.820  24.810
  993BOLB   C1A23813  17.710  16.370  24.810
  993BOLB   C2A23814  17.460  16.420  24.510
  993BOLB   C3A23815  17.090  16.520  24.660
  993BOLB   C4A23816  16.720  16.860  24.660
  993BOLB   C1B23817  17.820  16.870  24.400
  993BOLB   C2B23818  17.510  17.050  24.070
  993BOLB   C3B23819  17.160  17.150  23.840
  993BOLB   C4B23820  16.870  16.840  23.550
  993BOLB   NC223821  18.170  16.980  26.550
  993BOLB   PO223822  17.850  16.880  26.200
  993BOLB   GL323823  17.430  16.990  26.240
  993BOLB   GL423824  17.200  16.700  26.020
  993BOLB   C1C23825  17.210  17.280  26.090
  993BOLB   C2C23826  17.130  17.340  25.600
  993BOLB   C3C23827  17.120  17.440  25.150
  993BOLB   C4C23828  16.870  17.220  24.940
  993BOLB   C1D23829  16.950  16.410  25.920
  993BOLB   C2D23830  17.010  16.370  25.550
  993BOLB   C3D23831  16.780  16.020  25.410
  993BOLB   C4D23832  16.890  15.820  25.070
  994BOLB   NC123833   9.840  19.420  26.730
  994BOLB   PO123834  10.060  19.860  26.630
  994BOLB   GL123835  10.010  19.890  26.230
  994BOLB   GL223836   9.750  19.700  26.230
  994BOLB   C1A23837  10.110  19.930  25.820
  994BOLB   C2A23838  10.030  19.630  25.410
  994BOLB   C3A23839   9.650  19.640  25.230
  994BOLB   C4A23840   9.360  19.690  24.920
  994BOLB   C1B23841   9.970  19.370  26.060
  994BOLB   C2B23842  10.270  19.270  25.800
  994BOLB   C3B23843  10.230  18.940  25.470
  994BOLB   C4B23844   9.990  18.640  25.340
  994BOLB   NC223845   7.470  20.200  25.930
  994BOLB   PO223846   7.630  20.610  26.010
  994BOLB   GL323847   7.950  20.330  25.910
  994BOLB   GL423848   8.070  20.190  26.050
  994BOLB   C1C23849   8.030  20.290  25.480
  994BOLB   C2C23850   8.230  20.130  25.180
  994BOLB   C3C23851   8.690  20.080  25.020
  994BOLB   C4C23852   9.040  19.970  24.900
  994BOLB   C1D23853   8.400  20.040  25.740
  994BOLB   C2D23854   8.750  19.900  25.460
  994BOLB   C3D23855   9.140  19.690  25.340
  994BOLB   C4D23856   9.280  19.260  25.240
  995BOLB   NC123857  10.190  12.010  10.380
  995BOLB   PO123858  10.020  11.790  10.030
  995BOLB   GL123859   9.660  11.620   9.970
  995BOLB   GL223860   9.660  11.400  10.260
  995BOLB   C1A23861   9.310  11.470   9.870
  995BOLB   C2A23862   9.010  11.190   9.660
  995BOLB   C3A23863   8.590  10.990   9.560
  995BOLB   C4A23864   8.280  10.760   9.470
  995BOLB   C1B23865   9.360  11.140  10.270
  995BOLB   C2B23866   8.950  11.160  10.260
  995BOLB   C3B23867   8.750  10.970  10.000
  995BOLB   C4B23868   8.720  10.590   9.770
  995BOLB   NC223869   6.760   9.020   8.300
  995BOLB   PO223870   6.990   8.930   8.530
  995BOLB   GL323871   7.220   9.190   8.990
  995BOLB   GL423872   7.330   8.960   9.230
  995BOLB   C1C23873   7.170   9.520   9.290
  995BOLB   C2C23874   7.510   9.850   9.500
  995BOLB   C3C23875   7.880  10.110   9.550
  995BOLB   C4C23876   7.940  10.550   9.560
  995BOLB   C1D23877   7.630   9.350   9.310
  995BOLB   C2D23878   7.990   9.510   9.510
  995BOLB   C3D23879   8.280   9.900   9.520
  995BOLB   C4D23880   8.390  10.300   9.600
  996BOLB   NC123881   4.460  24.440  20.930
  996BOLB   PO123882   4.240  24.600  20.640
  996BOLB   GL123883   4.410  24.170  20.480
  996BOLB   GL223884   4.410  23.790  20.570
  996BOLB   C1A23885   4.860  23.960  20.400
  996BOLB   C2A23886   5.140  23.740  20.600
  996BOLB   C3A23887   5.440  23.400  20.640
  996BOLB   C4A23888   5.340  22.990  20.780
  996BOLB   C1B23889   4.680  23.490  20.400
  996BOLB   C2B23890   4.980  23.060  20.350
  996BOLB   C3B23891   5.380  22.980  20.210
  996BOLB   C4B23892   5.810  23.150  20.340
  996BOLB   NC223893   3.840  22.380  21.080
  996BOLB   PO223894   3.500  22.090  20.940
  996BOLB   GL323895   3.800  21.930  20.680
  996BOLB   GL423896   3.690  22.030  20.410
  996BOLB   C1C23897   4.180  21.880  20.470
  996BOLB   C2C23898   4.570  22.130  20.300
  996BOLB   C3C23899   4.870  22.440  20.410
  996BOLB   C4C23900   5.140  22.640  20.590
  996BOLB   C1D23901   3.920  21.770  20.090
  996BOLB   C2D23902   4.100  21.440  20.190
  996BOLB   C3D23903   4.560  21.300  20.400
  996BOLB   C4D23904   4.610  21.570  20.690
  997BOLB   NC123905   9.590  15.590  27.130
  997BOLB   PO123906   9.840  16.030  27.150
  997BOLB   GL123907  10.020  16.320  26.820
  997BOLB   GL223908   9.800  16.530  26.700
  997BOLB   C1A23909  10.320  16.490  26.420
  997BOLB   C2A23910  10.370  16.660  26.050
  997BOLB   C3A23911  10.420  17.010  25.690
  997BOLB   C4A23912  10.310  17.350  25.550
  997BOLB   C1B23913   9.860  16.680  26.190
  997BOLB   C2B23914   9.950  16.840  25.790
  997BOLB   C3B23915   9.750  17.220  25.690
  997BOLB   C4B23916   9.860  17.460  25.410
  997BOLB   NC223917  10.740  18.810  27.320
  997BOLB   PO223918  10.380  18.870  27.080
  997BOLB   GL323919  10.580  18.590  26.730
  997BOLB   GL423920  10.970  18.550  26.870
  997BOLB   C1C23921  10.420  18.640  26.320
  997BOLB   C2C23922  10.250  18.450  25.890
  997BOLB   C3C23923  10.140  18.210  25.570
  997BOLB   C4C23924  10.210  17.800  25.470
  997BOLB   C1D23925  11.150  18.750  26.600
  997BOLB   C2D23926  11.300  19.220  26.630
  997BOLB   C3D23927  11.440  19.580  26.410
  997BOLB   C4D23928  11.290  20.000  26.250
  998BOLB   NC123929  16.960  23.750  23.550
  998BOLB   PO123930  16.540  23.880  23.630
  998BOLB   GL123931  16.140  23.750  23.660
  998BOLB   GL223932  16.230  23.490  23.780
  998BOLB   C1A23933  15.860  23.470  23.390
  998BOLB   C2A23934  15.570  23.490  23.200
  998BOLB   C3A23935  15.380  23.570  22.750
  998BOLB   C4A23936  15.060  23.840  22.430
  998BOLB   C1B23937  15.910  23.160  23.760
  998BOLB   C2B23938  15.550  22.950  23.960
  998BOLB   C3B23939  15.340  22.680  23.740
  998BOLB   C4B23940  15.330  22.310  23.570
  998BOLB   NC223941  14.210  25.710  23.430
  998BOLB   PO223942  14.200  25.470  22.990
  998BOLB   GL323943  13.890  25.210  22.830
  998BOLB   GL423944  13.570  25.170  22.980
  998BOLB   C1C23945  14.040  24.780  22.580
  998BOLB   C2C23946  14.250  24.430  22.460
  998BOLB   C3C23947  14.530  24.120  22.260
  998BOLB   C4C23948  14.800  23.980  22.130
  998BOLB   C1D23949  13.130  25.070  22.870
  998BOLB   C2D23950  12.850  24.710  22.890
  998BOLB   C3D23951  12.830  24.290  22.760
  998BOLB   C4D23952  12.600  23.840  22.990
  999BOLB   NC123953   0.940  14.300  17.120
  999BOLB   PO123954   1.190  14.390  16.670
  999BOLB   GL123955   1.610  14.530  16.450
  999BOLB   GL223956   1.850  14.300  16.510
  999BOLB   C1A23957   1.940  14.560  16.030
  999BOLB   C2A23958   2.170  14.610  15.710
  999BOLB   C3A23959   2.570  14.510  15.640
  999BOLB   C4A23960   3.060  14.570  15.680
  999BOLB   C1B23961   2.280  14.270  16.450
  999BOLB   C2B23962   2.470  13.970  16.360
  999BOLB   C3B23963   2.440  13.670  16.050
  999BOLB   C4B23964   2.480  13.550  15.610
  999BOLB   NC223965   1.740  13.840  16.770
  999BOLB   PO223966   1.780  14.200  17.010
  999BOLB   GL323967   2.230  13.990  16.870
  999BOLB   GL423968   2.400  13.660  16.850
  999BOLB   C1C23969   2.730  14.140  16.750
  999BOLB   C2C23970   3.150  14.050  16.620
  999BOLB   C3C23971   3.460  14.280  16.380
  999BOLB   C4C23972   3.330  14.490  15.950
  999BOLB   C1D23973   2.760  13.640  16.600
  999BOLB   C2D23974   2.930  13.780  16.230
  999BOLB   C3D23975   3.250  14.030  15.950
  999BOLB   C4D23976   3.390  14.110  15.560
 1000BOLB   NC123977   0.520  18.830  15.510
 1000BOLB   PO123978   0.830  19.110  15.530
 1000BOLB   GL123979   1.140  19.230  15.160
 1000BOLB   GL223980   1.200  19.570  15.110
 1000BOLB   C1A23981   1.510  19.090  15.060
 1000BOLB   C2A23982   1.870  19.170  15.020
 1000BOLB   C3A23983   2.180  19.440  14.920
 1000BOLB   C4A23984   2.550  19.390  14.710
 1000BOLB   C1B23985   1.730  19.650  15.100
 1000BOLB   C2B23986   2.100  19.950  14.940
 1000BOLB   C3B23987   2.340  20.260  14.950
 1000BOLB   C4B23988   2.690  20.430  15.230
 1000BOLB   NC223989   1.510  19.510  12.930
 1000BOLB   PO223990   1.290  19.590  13.370
 1000BOLB   GL323991   1.740  19.450  13.430
 1000BOLB   GL423992   2.020  19.670  13.590
 1000BOLB   C1C23993   1.910  19.160  13.700
 1000BOLB   C2C23994   2.360  19.040  13.810
 1000BOLB   C3C23995   2.720  19.100  13.960
 1000BOLB   C4C23996   2.650  19.090  14.300
 1000BOLB   C1D23997   2.090  19.570  13.990
 1000BOLB   C2D23998   2.010  19.580  14.410
 1000BOLB   C3D23999   1.750  19.850  14.580
 1000BOLB   C4D24000   1.730  20.310  14.760
 1001BOLB   NC124001  12.540  23.450  10.630
 1001BOLB   PO124002  12.290  23.490  10.880
 1001BOLB   GL124003  12.280  23.870  11.090
 1001BOLB   GL224004  12.030  23.930  11.190
 1001BOLB   C1A24005  12.520  24.150  10.970
 1001BOLB   C2A24006  12.640  24.600  11.100
 1001BOLB   C3A24007  12.490  25.020  10.930
 1001BOLB   C4A24008  12.580  25.330  10.810
 1001BOLB   C1B24009  11.780  24.240  11.330
 1001BOLB   C2B24010  11.620  24.650  11.100
 1001BOLB   C3B24011  11.390  24.950  11.070
 1001BOLB   C4B24012  11.050  24.970  11.400
 1001BOLB   NC224013  11.510  27.810  10.190
 1001BOLB   PO224014  11.190  27.450  10.050
 1001BOLB   GL324015  11.500  27.100  10.020
 1001BOLB   GL424016  11.400  26.790   9.980
 1001BOLB   C1C24017  11.900  26.930  10.130
 1001BOLB   C2C24018  12.120  26.610  10.290
 1001BOLB   C3C24019  12.290  26.190  10.400
 1001BOLB   C4C24020  12.480  25.700  10.550
 1001BOLB   C1D24021  11.690  26.330  10.020
 1001BOLB   C2D24022  11.790  26.030  10.230
 1001BOLB   C3D24023  12.040  25.620  10.430
 1001BOLB   C4D24024  12.190  25.250  10.460
 1002BOLB   NC124025  11.650   5.060  16.690
 1002BOLB   PO124026  11.990   4.980  16.590
 1002BOLB   GL124027  12.010   5.380  16.360
 1002BOLB   GL224028  11.770   5.550  16.190
 1002BOLB   C1A24029  11.960   5.780  16.570
 1002BOLB   C2A24030  11.990   6.210  16.660
 1002BOLB   C3A24031  12.090   6.700  16.560
 1002BOLB   C4A24032  12.530   6.610  16.490
 1002BOLB   C1B24033  11.790   6.040  16.140
 1002BOLB   C2B24034  11.770   6.470  15.960
 1002BOLB   C3B24035  12.110   6.750  16.070
 1002BOLB   C4B24036  12.320   7.060  16.270
 1002BOLB   NC224037  13.520   4.590  17.370
 1002BOLB   PO224038  13.720   5.010  17.260
 1002BOLB   GL324039  13.570   5.410  17.170
 1002BOLB   GL424040  13.580   5.500  17.480
 1002BOLB   C1C24041  13.600   5.820  16.940
 1002BOLB   C2C24042  13.320   6.110  16.730
 1002BOLB   C3C24043  13.430   6.500  16.510
 1002BOLB   C4C24044  12.970   6.720  16.390
 1002BOLB   C1D24045  13.440   5.920  17.760
 1002BOLB   C2D24046  13.140   6.070  18.160
 1002BOLB   C3D24047  13.160   6.300  18.390
 1002BOLB   C4D24048  12.980   6.670  18.380
 1003BOLB   NC124049  13.540  24.560  25.700
 1003BOLB   PO124050  13.560  24.610  25.280
 1003BOLB   GL124051  13.540  24.290  24.970
 1003BOLB   GL224052  13.480  24.490  24.690
 1003BOLB   C1A24053  13.130  24.010  24.810
 1003BOLB   C2A24054  12.780  23.890  24.940
 1003BOLB   C3A24055  12.380  23.600  25.040
 1003BOLB   C4A24056  12.220  23.450  25.400
 1003BOLB   C1B24057  13.260  24.370  24.340
 1003BOLB   C2B24058  13.300  24.180  23.950
 1003BOLB   C3B24059  13.160  24.090  23.600
 1003BOLB   C4B24060  13.170  23.870  23.250
 1003BOLB   NC224061   9.970  23.860  25.470
 1003BOLB   PO224062  10.350  24.000  25.710
 1003BOLB   GL324063  10.710  23.750  25.650
 1003BOLB   GL424064  10.620  23.520  25.480
 1003BOLB   C1C24065  11.080  23.570  25.910
 1003BOLB   C2C24066  11.320  23.160  25.830
 1003BOLB   C3C24067  11.710  23.020  25.800
 1003BOLB   C4C24068  12.110  23.160  25.700
 1003BOLB   C1D24069  10.350  23.130  25.350
 1003BOLB   C2D24070  10.660  22.860  25.120
 1003BOLB   C3D24071  10.700  22.690  24.750
 1003BOLB   C4D24072  10.700  22.450  24.340
 1004BOLB   NC124073  26.180  15.970   5.850
 1004BOLB   PO124074  25.950  16.010   5.390
 1004BOLB   GL124075  25.790  16.340   5.630
 1004BOLB   GL224076  25.810  16.360   5.920
 1004BOLB   C1A24077  25.580  16.750   5.690
 1004BOLB   C2A24078  25.270  16.970   5.960
 1004BOLB   C3A24079  25.160  17.310   5.890
 1004BOLB   C4A24080  24.860  17.640   6.110
 1004BOLB   C1B24081  25.540  16.230   6.340
 1004BOLB   C2B24082  25.230  16.150   6.530
 1004BOLB   C3B24083  24.810  16.160   6.660
 1004BOLB   C4B24084  24.550  16.030   6.920
 1004BOLB   NC224085  26.520  19.240   5.890
 1004BOLB   PO224086  26.260  19.040   5.580
 1004BOLB   GL324087  25.920  18.770   5.750
 1004BOLB   GL424088  25.720  18.810   5.490
 1004BOLB   C1C24089  25.820  18.550   5.980
 1004BOLB   C2C24090  25.390  18.540   6.210
 1004BOLB   C3C24091  25.120  18.330   6.510
 1004BOLB   C4C24092  24.900  17.980   6.420
 1004BOLB   C1D24093  25.450  18.970   5.600
 1004BOLB   C2D24094  25.030  19.120   5.560
 1004BOLB   C3D24095  24.620  19.070   5.270
 1004BOLB   C4D24096  24.290  18.770   5.140
 1005BOLB   NC124097   8.330  15.010   9.860
 1005BOLB   PO124098   7.980  14.820   9.810
 1005BOLB   GL124099   7.470  14.740   9.780
 1005BOLB   GL224100   7.500  15.000   9.560
 1005BOLB   C1A24101   7.040  14.580   9.750
 1005BOLB   C2A24102   6.730  14.370   9.780
 1005BOLB   C3A24103   6.310  14.520  10.040
 1005BOLB   C4A24104   6.020  14.500  10.300
 1005BOLB   C1B24105   7.160  15.150   9.730
 1005BOLB   C2B24106   6.980  15.480  10.000
 1005BOLB   C3B24107   6.620  15.680   9.980
 1005BOLB   C4B24108   6.170  15.890  10.120
 1005BOLB   NC224109   4.710  14.450   8.660
 1005BOLB   PO224110   4.340  14.450   8.710
 1005BOLB   GL324111   4.560  14.700   9.070
 1005BOLB   GL424112   4.930  14.700   9.030
 1005BOLB   C1C24113   4.790  14.760   9.520
 1005BOLB   C2C24114   5.160  14.770   9.600
 1005BOLB   C3C24115   5.410  14.600  10.020
 1005BOLB   C4C24116   5.670  14.540  10.240
 1005BOLB   C1D24117   5.180  15.010   9.140
 1005BOLB   C2D24118   5.600  15.100   9.140
 1005BOLB   C3D24119   5.880  15.030   9.400
 1005BOLB   C4D24120   6.270  15.020   9.560
 1006BOLB   NC124121   9.670   5.720  20.060
 1006BOLB   PO124122   9.380   5.840  20.340
 1006BOLB   GL124123   9.370   6.130  20.110
 1006BOLB   GL224124   9.190   6.350  20.210
 1006BOLB   C1A24125   9.730   6.390  20.030
 1006BOLB   C2A24126   9.980   6.410  19.790
 1006BOLB   C3A24127  10.290   6.450  19.370
 1006BOLB   C4A24128  10.580   6.230  19.250
 1006BOLB   C1B24129   9.410   6.710  20.150
 1006BOLB   C2B24130   9.660   6.860  19.790
 1006BOLB   C3B24131   9.370   7.160  19.540
 1006BOLB   C4B24132   9.450   7.450  19.150
 1006BOLB   NC224133  12.160   4.350  18.090
 1006BOLB   PO224134  12.380   4.530  18.270
 1006BOLB   GL324135  11.950   4.780  18.280
 1006BOLB   GL424136  11.960   5.140  18.010
 1006BOLB   C1C24137  11.750   5.130  18.450
 1006BOLB   C2C24138  11.430   5.390  18.700
 1006BOLB   C3C24139  11.140   5.670  18.890
 1006BOLB   C4C24140  10.800   5.790  19.290
 1006BOLB   C1D24141  12.270   5.220  18.370
 1006BOLB   C2D24142  12.380   5.350  18.720
 1006BOLB   C3D24143  12.220   5.750  18.890
 1006BOLB   C4D24144  12.240   6.130  18.680
 1007BOLB   NC124145   6.050   9.760  21.980
 1007BOLB   PO124146   6.200  10.190  21.870
 1007BOLB   GL124147   6.430  10.530  21.810
 1007BOLB   GL224148   6.390  10.810  22.000
 1007BOLB   C1A24149   6.630  10.680  21.490
 1007BOLB   C2A24150   6.640  10.940  21.140
 1007BOLB   C3A24151   6.830  11.230  20.900
 1007BOLB   C4A24152   6.690  11.660  20.660
 1007BOLB   C1B24153   6.610  11.080  21.770
 1007BOLB   C2B24154   6.910  11.250  21.480
 1007BOLB   C3B24155   7.270  11.480  21.440
 1007BOLB   C4B24156   7.690  11.810  21.430
 1007BOLB   NC224157   5.190  11.140  21.500
 1007BOLB   PO224158   4.890  11.370  21.540
 1007BOLB   GL324159   5.050  11.400  21.100
 1007BOLB   GL424160   5.140  11.220  20.820
 1007BOLB   C1C24161   5.470  11.530  21.050
 1007BOLB   C2C24162   5.780  11.620  20.800
 1007BOLB   C3C24163   5.960  11.850  20.530
 1007BOLB   C4C24164   6.380  11.980  20.680
 1007BOLB   C1D24165   5.390  11.390  20.370
 1007BOLB   C2D24166   5.470  11.370  19.860
 1007BOLB   C3D24167   5.230  11.430  19.460
 1007BOLB   C4D24168   4.860  11.110  19.310
 1008BOLB   NC124169  11.490  23.590   3.600
 1008BOLB   PO124170  11.190  23.320   3.840
 1008BOLB   GL124171  11.390  23.250   4.280
 1008BOLB   GL224172  11.680  23.110   4.110
 1008BOLB   C1A24173  11.470  23.200   4.740
 1008BOLB   C2A24174  11.390  22.810   4.850
 1008BOLB   C3A24175  11.470  22.500   5.190
 1008BOLB   C4A24176  11.640  22.070   5.270
 1008BOLB   C1B24177  11.660  22.830   4.390
 1008BOLB   C2B24178  11.990  22.650   4.640
 1008BOLB   C3B24179  11.930  22.300   4.940
 1008BOLB   C4B24180  12.050  21.960   5.020
 1008BOLB   NC224181  13.130  20.550   6.070
 1008BOLB   PO224182  13.380  20.930   6.150
 1008BOLB   GL324183  13.020  21.000   5.940
 1008BOLB   GL424184  13.090  20.830   5.590
 1008BOLB   C1C24185  12.730  21.140   5.710
 1008BOLB   C2C24186  12.520  21.250   5.350
 1008BOLB   C3C24187  12.180  21.420   5.160
 1008BOLB   C4C24188  11.770  21.610   5.130
 1008BOLB   C1D24189  13.270  21.140   5.400
 1008BOLB   C2D24190  13.440  21.320   4.980
 1008BOLB   C3D24191  13.240  21.580   4.750
 1008BOLB   C4D24192  13.270  21.890   4.470
 1009BOLB   NC124193   9.960  15.250   7.350
 1009BOLB   PO124194   9.850  15.390   6.880
 1009BOLB   GL124195   9.690  15.340   6.570
 1009BOLB   GL224196   9.410  15.420   6.690
 1009BOLB   C1A24197   9.660  15.360   6.080
 1009BOLB   C2A24198   9.550  15.030   5.710
 1009BOLB   C3A24199   9.430  14.890   5.380
 1009BOLB   C4A24200   9.200  14.670   5.140
 1009BOLB   C1B24201   9.010  15.500   6.740
 1009BOLB   C2B24202   8.590  15.300   6.860
 1009BOLB   C3B24203   8.320  15.340   6.510
 1009BOLB   C4B24204   8.340  15.200   6.090
 1009BOLB   NC224205   7.400  12.680   4.560
 1009BOLB   PO224206   7.680  12.850   4.270
 1009BOLB   GL324207   7.930  13.200   4.370
 1009BOLB   GL424208   8.130  12.990   4.490
 1009BOLB   C1C24209   8.220  13.480   4.580
 1009BOLB   C2C24210   8.440  13.860   4.790
 1009BOLB   C3C24211   8.620  14.200   4.930
 1009BOLB   C4C24212   8.960  14.380   5.130
 1009BOLB   C1D24213   8.520  12.940   4.640
 1009BOLB   C2D24214   8.930  12.930   4.750
 1009BOLB   C3D24215   9.120  12.860   5.100
 1009BOLB   C4D24216   9.350  12.560   5.420
 1010BOLB   NC124217  12.780  25.740  23.540
 1010BOLB   PO124218  13.110  25.700  23.170
 1010BOLB   GL124219  12.990  25.280  23.340
 1010BOLB   GL224220  12.660  25.320  23.370
 1010BOLB   C1A24221  13.080  24.840  23.400
 1010BOLB   C2A24222  13.310  24.500  23.160
 1010BOLB   C3A24223  13.610  24.110  23.230
 1010BOLB   C4A24224  13.840  23.990  22.790
 1010BOLB   C1B24225  12.560  24.910  23.400
 1010BOLB   C2B24226  12.170  24.620  23.420
 1010BOLB   C3B24227  11.930  24.190  23.490
 1010BOLB   C4B24228  11.830  23.780  23.770
 1010BOLB   NC224229  15.340  24.670  23.410
 1010BOLB   PO224230  15.260  24.380  23.730
 1010BOLB   GL324231  15.140  24.180  23.450
 1010BOLB   GL424232  15.370  24.140  23.240
 1010BOLB   C1C24233  14.960  24.050  23.080
 1010BOLB   C2C24234  14.900  23.740  22.850
 1010BOLB   C3C24235  14.580  23.750  22.580
 1010BOLB   C4C24236  14.190  23.800  22.500
 1010BOLB   C1D24237  15.140  23.680  23.400
 1010BOLB   C2D24238  15.030  23.310  23.210
 1010BOLB   C3D24239  14.660  23.270  23.000
 1010BOLB   C4D24240  14.280  23.310  22.680
 1011BOLB   NC124241   9.640  12.320   1.950
 1011BOLB   PO124242  10.060  12.350   2.110
 1011BOLB   GL124243  10.390  12.420   2.460
 1011BOLB   GL224244  10.170  12.660   2.690
 1011BOLB   C1A24245  10.750  12.160   2.720
 1011BOLB   C2A24246  11.160  12.130   2.850
 1011BOLB   C3A24247  11.350  11.850   2.800
 1011BOLB   C4A24248  11.650  11.610   2.850
 1011BOLB   C1B24249  10.500  12.670   2.970
 1011BOLB   C2B24250  10.400  12.620   3.340
 1011BOLB   C3B24251  10.480  12.880   3.680
 1011BOLB   C4B24252  10.670  13.220   3.910
 1011BOLB   NC224253  12.090   9.630   2.550
 1011BOLB   PO224254  11.720   9.630   2.740
 1011BOLB   GL324255  11.950   9.740   3.100
 1011BOLB   GL424256  11.770   9.700   3.430
 1011BOLB   C1C24257  12.000  10.140   3.360
 1011BOLB   C2C24258  12.080  10.530   3.280
 1011BOLB   C3C24259  11.910  10.890   3.010
 1011BOLB   C4C24260  11.700  11.250   3.030
 1011BOLB   C1D24261  11.870   9.530   3.870
 1011BOLB   C2D24262  12.310   9.540   4.110
 1011BOLB   C3D24263  12.730   9.660   4.180
 1011BOLB   C4D24264  13.230   9.550   4.330
 1012BOLB   NC124265  13.910   8.840  13.630
 1012BOLB   PO124266  13.800   9.060  14.000
 1012BOLB   GL124267  13.870   8.640  14.040
 1012BOLB   GL224268  13.850   8.380  13.770
 1012BOLB   C1A24269  13.740   8.380  14.410
 1012BOLB   C2A24270  13.560   8.070  14.640
 1012BOLB   C3A24271  13.500   7.760  14.980
 1012BOLB   C4A24272  13.420   7.310  15.070
 1012BOLB   C1B24273  13.900   8.130  14.020
 1012BOLB   C2B24274  13.980   7.780  14.140
 1012BOLB   C3B24275  14.340   7.360  14.130
 1012BOLB   C4B24276  14.670   7.060  14.030
 1012BOLB   NC224277  14.090   5.240  14.480
 1012BOLB   PO224278  13.620   5.180  14.200
 1012BOLB   GL324279  13.740   5.590  14.250
 1012BOLB   GL424280  14.010   5.600  14.100
 1012BOLB   C1C24281  13.480   6.070  14.450
 1012BOLB   C2C24282  13.300   6.220  14.850
 1012BOLB   C3C24283  13.450   6.460  15.130
 1012BOLB   C4C24284  13.460   6.900  15.140
 1012BOLB   C1D24285  13.940   6.040  14.190
 1012BOLB   C2D24286  13.820   6.360  14.190
 1012BOLB   C3D24287  13.750   6.790  14.100
 1012BOLB   C4D24288  13.870   7.160  14.080
 1013BOLB   NC124289   9.200  16.460   8.270
 1013BOLB   PO124290   8.990  16.900   8.330
 1013BOLB   GL124291   8.680  16.700   8.390
 1013BOLB   GL224292   8.750  16.340   8.220
 1013BOLB   C1A24293   8.410  16.720   8.100
 1013BOLB   C2A24294   8.180  16.670   7.840
 1013BOLB   C3A24295   7.780  16.530   7.640
 1013BOLB   C4A24296   7.370  16.490   7.500
 1013BOLB   C1B24297   8.490  16.260   7.930
 1013BOLB   C2B24298   8.240  16.240   7.620
 1013BOLB   C3B24299   7.940  16.020   7.510
 1013BOLB   C4B24300   7.550  16.050   7.310
 1013BOLB   NC224301   5.190  17.480   6.320
 1013BOLB   PO224302   5.580  17.210   6.170
 1013BOLB   GL324303   5.920  17.010   6.390
 1013BOLB   GL424304   6.130  17.240   6.110
 1013BOLB   C1C24305   6.290  16.980   6.570
 1013BOLB   C2C24306   6.720  16.870   6.690
 1013BOLB   C3C24307   7.140  16.580   6.720
 1013BOLB   C4C24308   7.260  16.390   7.140
 1013BOLB   C1D24309   6.440  17.390   6.320
 1013BOLB   C2D24310   6.810  17.500   6.610
 1013BOLB   C3D24311   7.160  17.330   6.850
 1013BOLB   C4D24312   7.540  17.450   7.000
 1014BOLB   NC124313   7.380  21.350   5.750
 1014BOLB   PO124314   7.590  20.970   5.590
 1014BOLB   GL124315   7.990  21.190   5.470
 1014BOLB   GL224316   8.220  20.980   5.410
 1014BOLB   C1A24317   8.220  21.490   5.650
 1014BOLB   C2A24318   8.520  21.650   5.990
 1014BOLB   C3A24319   8.780  21.430   6.150
 1014BOLB   C4A24320   8.870  21.050   6.320
 1014BOLB   C1B24321   8.200  20.690   5.710
 1014BOLB   C2B24322   8.250  20.250   5.970
 1014BOLB   C3B24323   8.450  19.930   5.870
 1014BOLB   C4B24324   8.740  19.740   6.070
 1014BOLB   NC224325   6.390  20.620   5.790
 1014BOLB   PO224326   6.760  20.640   6.150
 1014BOLB   GL324327   7.220  20.500   6.190
 1014BOLB   GL424328   7.460  20.250   6.330
 1014BOLB   C1C24329   7.530  20.670   6.530
 1014BOLB   C2C24330   7.900  20.440   6.640
 1014BOLB   C3C24331   8.340  20.540   6.680
 1014BOLB   C4C24332   8.670  20.750   6.590
 1014BOLB   C1D24333   7.830  20.480   6.160
 1014BOLB   C2D24334   8.310  20.680   6.190
 1014BOLB   C3D24335   8.730  20.460   6.210
 1014BOLB   C4D24336   9.050  20.130   6.130
 1015BOLB   NC124337   1.020  15.460  17.960
 1015BOLB   PO124338   1.370  15.670  17.870
 1015BOLB   GL124339   1.560  16.020  17.700
 1015BOLB   GL224340   1.570  15.760  17.390
 1015BOLB   C1A24341   1.970  16.170  17.500
 1015BOLB   C2A24342   2.440  16.210  17.250
 1015BOLB   C3A24343   2.710  16.320  16.810
 1015BOLB   C4A24344   2.790  16.730  16.560
 1015BOLB   C1B24345   1.890  15.500  17.480
 1015BOLB   C2B24346   2.100  15.150  17.280
 1015BOLB   C3B24347   2.420  15.140  17.000
 1015BOLB   C4B24348   2.660  15.400  16.840
 1015BOLB   NC224349   1.190  18.070  17.050
 1015BOLB   PO224350   1.300  18.460  16.740
 1015BOLB   GL324351   1.600  18.290  16.500
 1015BOLB   GL424352   1.630  18.410  16.210
 1015BOLB   C1C24353   2.020  18.100  16.530
 1015BOLB   C2C24354   1.960  17.680  16.700
 1015BOLB   C3C24355   2.220  17.290  16.580
 1015BOLB   C4C24356   2.520  17.020  16.380
 1015BOLB   C1D24357   1.960  18.750  16.300
 1015BOLB   C2D24358   2.350  18.550  16.300
 1015BOLB   C3D24359   2.730  18.670  16.320
 1015BOLB   C4D24360   3.140  18.750  16.110
 1016BOLB   NC124361  17.950  15.960  26.070
 1016BOLB   PO124362  17.690  15.640  26.330
 1016BOLB   GL124363  17.320  15.710  26.060
 1016BOLB   GL224364  17.450  16.040  25.910
 1016BOLB   C1A24365  17.230  15.580  25.630
 1016BOLB   C2A24366  17.110  15.400  25.280
 1016BOLB   C3A24367  17.100  15.060  24.950
 1016BOLB   C4A24368  17.010  14.690  24.730
 1016BOLB   C1B24369  17.410  16.070  25.510
 1016BOLB   C2B24370  17.340  16.480  25.150
 1016BOLB   C3B24371  17.260  16.830  25.010
 1016BOLB   C4B24372  17.370  16.910  24.560
 1016BOLB   NC224373  18.640  14.290  25.200
 1016BOLB   PO224374  18.810  14.290  25.630
 1016BOLB   GL324375  18.360  14.450  25.580
 1016BOLB   GL424376  18.150  14.480  25.770
 1016BOLB   C1C24377  17.970  14.190  25.470
 1016BOLB   C2C24378  17.660  13.830  25.330
 1016BOLB   C3C24379  17.430  13.870  24.940
 1016BOLB   C4C24380  17.290  14.220  24.630
 1016BOLB   C1D24381  17.720  14.650  25.670
 1016BOLB   C2D24382  17.350  14.680  25.490
 1016BOLB   C3D24383  17.010  14.910  25.530
 1016BOLB   C4D24384  16.700  14.860  25.210
 1017BOLB   NC124385  19.850  18.710   5.190
 1017BOLB   PO124386  19.440  18.660   5.190
 1017BOLB   GL124387  19.500  18.660   4.730
 1017BOLB   GL224388  19.250  18.770   4.460
 1017BOLB   C1A24389  19.700  18.420   4.380
 1017BOLB   C2A24390  19.930  18.460   3.960
 1017BOLB   C3A24391  20.280  18.580   3.740
 1017BOLB   C4A24392  20.330  18.660   3.350
 1017BOLB   C1B24393  19.370  18.740   4.150
 1017BOLB   C2B24394  19.500  18.600   3.810
 1017BOLB   C3B24395  19.760  18.610   3.440
 1017BOLB   C4B24396  19.930  18.430   3.020
 1017BOLB   NC224397  21.610  19.030   1.240
 1017BOLB   PO224398  21.170  18.950   1.420
 1017BOLB   GL324399  21.370  18.820   1.780
 1017BOLB   GL424400  21.740  18.950   1.790
 1017BOLB   C1C24401  21.190  18.700   2.180
 1017BOLB   C2C24402  20.760  18.960   2.310
 1017BOLB   C3C24403  20.510  18.970   2.680
 1017BOLB   C4C24404  20.410  18.630   2.910
 1017BOLB   C1D24405  21.970  18.780   2.170
 1017BOLB   C2D24406  22.020  18.810   2.550
 1017BOLB   C3D24407  21.770  18.820   2.890
 1017BOLB   C4D24408  21.380  18.930   3.120
 1018BOLB   NC124409   4.320   9.580  11.270
 1018BOLB   PO124410   4.490   9.990  11.100
 1018BOLB   GL124411   4.790  10.090  11.390
 1018BOLB   GL224412   5.020  10.240  11.340
 1018BOLB   C1A24413   4.990   9.970  11.840
 1018BOLB   C2A24414   5.100  10.230  12.220
 1018BOLB   C3A24415   5.160  10.140  12.650
 1018BOLB   C4A24416   5.040  10.170  13.050
 1018BOLB   C1B24417   4.960  10.510  11.800
 1018BOLB   C2B24418   5.320  10.780  12.060
 1018BOLB   C3B24419   5.280  10.920  12.540
 1018BOLB   C4B24420   5.050  10.970  12.980
 1018BOLB   NC224421   2.660  11.270  12.430
 1018BOLB   PO224422   2.890  10.900  12.700
 1018BOLB   GL324423   3.230  10.760  12.710
 1018BOLB   GL424424   3.320  10.560  12.720
 1018BOLB   C1C24425   3.690  10.910  12.840
 1018BOLB   C2C24426   3.960  10.530  13.070
 1018BOLB   C3C24427   4.260  10.320  13.280
 1018BOLB   C4C24428   4.700  10.300  13.260
 1018BOLB   C1D24429   3.720  10.460  12.630
 1018BOLB   C2D24430   4.040  10.190  12.520
 1018BOLB   C3D24431   4.350  10.000  12.320
 1018BOLB   C4D24432   4.760   9.870  12.410
 1019BOLB   NC124433  23.580  22.770  20.570
 1019BOLB   PO124434  23.840  22.890  20.170
 1019BOLB   GL124435  23.690  22.800  19.750
 1019BOLB   GL224436  23.780  22.760  19.420
 1019BOLB   C1A24437  23.180  22.740  19.580
 1019BOLB   C2A24438  22.960  22.680  19.240
 1019BOLB   C3A24439  22.780  22.430  19.010
 1019BOLB   C4A24440  22.850  22.160  18.650
 1019BOLB   C1B24441  23.500  22.530  19.220
 1019BOLB   C2B24442  23.270  22.250  18.900
 1019BOLB   C3B24443  23.260  21.800  18.780
 1019BOLB   C4B24444  23.570  21.550  18.490
 1019BOLB   NC224445  24.220  23.660  19.400
 1019BOLB   PO224446  24.460  23.570  18.950
 1019BOLB   GL324447  24.280  23.230  18.850
 1019BOLB   GL424448  24.360  22.930  18.770
 1019BOLB   C1C24449  23.870  22.960  18.920
 1019BOLB   C2C24450  23.560  22.750  18.670
 1019BOLB   C3C24451  23.410  22.420  18.460
 1019BOLB   C4C24452  23.150  22.110  18.410
 1019BOLB   C1D24453  24.130  22.680  18.550
 1019BOLB   C2D24454  23.950  22.440  18.280
 1019BOLB   C3D24455  24.000  22.080  18.020
 1019BOLB   C4D24456  23.960  21.850  17.630
 1020BOLB   NC124457   3.060  12.920  11.000
 1020BOLB   PO124458   3.170  12.650  10.950
 1020BOLB   GL124459   3.590  12.410  11.140
 1020BOLB   GL224460   3.700  12.050  11.340
 1020BOLB   C1A24461   4.020  12.600  11.130
 1020BOLB   C2A24462   4.400  12.520  11.490
 1020BOLB   C3A24463   4.890  12.290  11.650
 1020BOLB   C4A24464   4.910  11.850  11.860
 1020BOLB   C1B24465   3.940  12.300  11.610
 1020BOLB   C2B24466   3.970  12.780  11.600
 1020BOLB   C3B24467   3.920  13.110  11.330
 1020BOLB   C4B24468   4.110  13.060  10.890
 1020BOLB   NC224469   3.500   9.930  11.470
 1020BOLB   PO224470   3.870  10.120  11.470
 1020BOLB   GL324471   4.240  10.300  11.480
 1020BOLB   GL424472   4.320  10.480  11.260
 1020BOLB   C1C24473   4.470  10.430  11.820
 1020BOLB   C2C24474   4.630  10.720  12.140
 1020BOLB   C3C24475   4.870  11.010  12.040
 1020BOLB   C4C24476   4.860  11.420  12.020
 1020BOLB   C1D24477   4.530  10.880  11.630
 1020BOLB   C2D24478   4.210  10.890  11.820
 1020BOLB   C3D24479   4.040  11.310  12.020
 1020BOLB   C4D24480   3.730  11.500  12.120
 1021BOLB   NC124481  16.620  22.800   7.690
 1021BOLB   PO124482  16.980  22.710   7.650
 1021BOLB   GL124483  17.120  23.010   7.440
 1021BOLB   GL224484  16.810  23.200   7.400
 1021BOLB   C1A24485  17.260  23.190   7.140
 1021BOLB   C2A24486  17.120  23.560   6.790
 1021BOLB   C3A24487  17.260  23.870   6.510
 1021BOLB   C4A24488  17.560  24.170   6.360
 1021BOLB   C1B24489  16.670  23.530   7.140
 1021BOLB   C2B24490  16.670  23.770   6.730
 1021BOLB   C3B24491  16.700  24.100   6.380
 1021BOLB   C4B24492  16.580  24.140   5.890
 1021BOLB   NC224493  17.910  26.050   4.680
 1021BOLB   PO224494  17.620  25.790   4.810
 1021BOLB   GL324495  17.550  25.360   4.890
 1021BOLB   GL424496  17.230  25.210   4.730
 1021BOLB   C1C24497  17.750  25.130   5.140
 1021BOLB   C2C24498  17.680  24.990   5.460
 1021BOLB   C3C24499  17.570  24.930   5.860
 1021BOLB   C4C24500  17.640  24.600   6.140
 1021BOLB   C1D24501  17.240  25.060   5.190
 1021BOLB   C2D24502  17.020  25.100   5.600
 1021BOLB   C3D24503  16.740  24.980   5.970
 1021BOLB   C4D24504  16.580  24.600   6.190
 1022BOLB   NC124505   2.830  14.250  10.500
 1022BOLB   PO124506   3.180  14.550  10.310
 1022BOLB   GL124507   3.570  14.480  10.420
 1022BOLB   GL224508   3.700  14.140  10.320
 1022BOLB   C1A24509   3.740  14.560  10.780
 1022BOLB   C2A24510   3.940  14.710  10.980
 1022BOLB   C3A24511   4.090  15.120  11.170
 1022BOLB   C4A24512   4.030  15.480  11.530
 1022BOLB   C1B24513   4.110  14.180  10.560
 1022BOLB   C2B24514   4.590  14.130  10.810
 1022BOLB   C3B24515   5.020  13.970  10.950
 1022BOLB   C4B24516   5.470  13.840  10.990
 1022BOLB   NC224517   1.490  14.930  11.680
 1022BOLB   PO224518   1.830  14.810  11.810
 1022BOLB   GL324519   2.330  14.760  11.710
 1022BOLB   GL424520   2.500  14.510  11.580
 1022BOLB   C1C24521   2.680  14.960  11.750
 1022BOLB   C2C24522   3.020  15.210  11.840
 1022BOLB   C3C24523   3.350  15.280  11.900
 1022BOLB   C4C24524   3.700  15.450  11.830
 1022BOLB   C1D24525   2.980  14.600  11.510
 1022BOLB   C2D24526   3.410  14.650  11.660
 1022BOLB   C3D24527   3.650  14.830  11.960
 1022BOLB   C4D24528   3.850  15.120  12.210
 1023BOLB   NC124529  11.670   5.940  23.130
 1023BOLB   PO124530  11.430   6.370  23.210
 1023BOLB   GL124531  11.730   6.620  23.010
 1023BOLB   GL224532  11.530   6.920  22.810
 1023BOLB   C1A24533  12.060   6.970  22.910
 1023BOLB   C2A24534  12.380   7.250  22.710
 1023BOLB   C3A24535  12.390   7.520  22.410
 1023BOLB   C4A24536  12.570   7.380  22.040
 1023BOLB   C1B24537  11.700   7.110  23.200
 1023BOLB   C2B24538  11.970   7.150  23.400
 1023BOLB   C3B24539  12.120   7.430  23.710
 1023BOLB   C4B24540  12.130   7.810  23.640
 1023BOLB   NC224541  13.640   5.460  22.300
 1023BOLB   PO224542  13.910   5.810  22.250
 1023BOLB   GL324543  13.990   6.170  21.990
 1023BOLB   GL424544  13.920   6.240  21.620
 1023BOLB   C1C24545  14.190   6.570  21.900
 1023BOLB   C2C24546  13.960   6.970  21.700
 1023BOLB   C3C24547  13.510   7.090  21.930
 1023BOLB   C4C24548  13.050   7.150  21.910
 1023BOLB   C1D24549  14.020   6.600  21.370
 1023BOLB   C2D24550  14.350   6.550  21.070
 1023BOLB   C3D24551  14.840   6.600  21.100
 1023BOLB   C4D24552  15.160   6.930  20.910
 1024BOLB   NC124553   7.320   5.290  14.660
 1024BOLB   PO124554   7.350   5.600  14.850
 1024BOLB   GL124555   7.630   5.910  14.770
 1024BOLB   GL224556   7.510   6.110  15.100
 1024BOLB   C1A24557   7.900   6.280  14.850
 1024BOLB   C2A24558   7.830   6.800  14.820
 1024BOLB   C3A24559   7.790   7.210  14.690
 1024BOLB   C4A24560   7.660   7.510  14.270
 1024BOLB   C1B24561   7.920   5.860  15.200
 1024BOLB   C2B24562   8.240   5.870  15.720
 1024BOLB   C3B24563   8.210   5.630  16.120
 1024BOLB   C4B24564   8.290   5.780  16.460
 1024BOLB   NC224565   7.270   7.030  11.830
 1024BOLB   PO224566   7.530   6.970  12.240
 1024BOLB   GL324567   7.680   7.110  12.640
 1024BOLB   GL424568   7.710   7.380  12.450
 1024BOLB   C1C24569   7.830   7.200  13.030
 1024BOLB   C2C24570   7.670   7.290  13.340
 1024BOLB   C3C24571   7.620   7.510  13.740
 1024BOLB   C4C24572   7.580   7.750  14.060
 1024BOLB   C1D24573   7.910   7.810  12.330
 1024BOLB   C2D24574   8.310   7.840  12.480
 1024BOLB   C3D24575   8.780   7.860  12.560
 1024BOLB   C4D24576   9.150   7.980  12.870
 1025BOLB   NC124577  15.060  12.040  28.030
 1025BOLB   PO124578  14.850  12.220  27.700
 1025BOLB   GL124579  15.030  12.550  27.430
 1025BOLB   GL224580  15.140  12.930  27.420
 1025BOLB   C1A24581  14.910  12.740  27.050
 1025BOLB   C2A24582  15.100  12.970  26.730
 1025BOLB   C3A24583  15.080  13.160  26.310
 1025BOLB   C4A24584  14.760  13.110  26.010
 1025BOLB   C1B24585  15.050  13.340  27.170
 1025BOLB   C2B24586  14.950  13.480  26.760
 1025BOLB   C3B24587  14.690  13.510  26.340
 1025BOLB   C4B24588  14.220  13.580  26.110
 1025BOLB   NC224589  14.340  12.110  27.890
 1025BOLB   PO224590  13.940  11.910  27.730
 1025BOLB   GL324591  13.870  12.130  27.370
 1025BOLB   GL424592  14.220  12.190  27.310
 1025BOLB   C1C24593  13.850  12.500  27.030
 1025BOLB   C2C24594  13.960  12.610  26.660
 1025BOLB   C3C24595  14.230  12.650  26.370
 1025BOLB   C4C24596  14.370  13.000  26.180
 1025BOLB   C1D24597  14.530  12.220  27.100
 1025BOLB   C2D24598  14.860  12.030  26.760
 1025BOLB   C3D24599  14.980  12.010  26.350
 1025BOLB   C4D24600  15.090  12.090  25.870
 1026BOLB   NC124601  11.430   9.770  25.860
 1026BOLB   PO124602  11.490   9.460  25.540
 1026BOLB   GL124603  11.500   9.860  25.220
 1026BOLB   GL224604  11.590  10.230  25.300
 1026BOLB   C1A24605  11.750   9.820  24.830
 1026BOLB   C2A24606  11.720  10.010  24.410
 1026BOLB   C3A24607  11.660   9.900  24.010
 1026BOLB   C4A24608  11.900   9.580  23.770
 1026BOLB   C1B24609  11.880  10.340  24.870
 1026BOLB   C2B24610  12.110  10.460  24.450
 1026BOLB   C3B24611  12.460  10.490  24.060
 1026BOLB   C4B24612  12.410  10.890  23.780
 1026BOLB   NC224613  12.810   8.240  25.560
 1026BOLB   PO224614  12.850   8.090  25.110
 1026BOLB   GL324615  12.800   8.140  24.650
 1026BOLB   GL424616  12.980   8.020  24.400
 1026BOLB   C1C24617  12.560   8.440  24.480
 1026BOLB   C2C24618  12.750   8.660  24.150
 1026BOLB   C3C24619  12.570   8.950  23.890
 1026BOLB   C4C24620  12.200   9.180  23.650
 1026BOLB   C1D24621  13.150   8.490  24.410
 1026BOLB   C2D24622  13.170   8.960  24.700
 1026BOLB   C3D24623  13.150   9.070  25.140
 1026BOLB   C4D24624  12.970   9.470  25.290
 1027BOLB   NC124625  18.730   6.460   5.410
 1027BOLB   PO124626  18.500   6.590   4.980
 1027BOLB   GL124627  18.350   6.760   5.310
 1027BOLB   GL224628  18.160   6.620   5.580
 1027BOLB   C1A24629  18.300   7.150   5.560
 1027BOLB   C2A24630  18.390   7.400   5.840
 1027BOLB   C3A24631  18.230   7.590   6.160
 1027BOLB   C4A24632  18.240   7.840   6.560
 1027BOLB   C1B24633  18.230   6.890   5.960
 1027BOLB   C2B24634  18.210   7.090   6.320
 1027BOLB   C3B24635  18.140   7.260   6.770
 1027BOLB   C4B24636  18.020   7.160   7.180
 1027BOLB   NC224637  18.140  10.260   7.270
 1027BOLB   PO224638  18.550  10.440   7.360
 1027BOLB   GL324639  18.410   9.870   7.110
 1027BOLB   GL424640  18.310   9.780   6.850
 1027BOLB   C1C24641  18.400   9.340   7.020
 1027BOLB   C2C24642  18.360   8.990   6.760
 1027BOLB   C3C24643  18.110   8.630   6.800
 1027BOLB   C4C24644  18.210   8.300   6.580
 1027BOLB   C1D24645  18.480   9.490   6.520
 1027BOLB   C2D24646  18.830   9.550   6.340
 1027BOLB   C3D24647  19.300   9.850   6.330
 1027BOLB   C4D24648  19.600   9.860   6.650
 1028BOLB   NC124649   4.300  10.660  20.330
 1028BOLB   PO124650   4.700  10.530  20.300
 1028BOLB   GL124651   4.980  10.810  20.190
 1028BOLB   GL224652   5.250  10.840  20.410
 1028BOLB   C1A24653   5.080  11.000  19.810
 1028BOLB   C2A24654   5.490  10.910  19.600
 1028BOLB   C3A24655   5.760  11.350  19.440
 1028BOLB   C4A24656   5.610  11.770  19.580
 1028BOLB   C1B24657   5.540  10.910  20.100
 1028BOLB   C2B24658   5.860  11.020  19.950
 1028BOLB   C3B24659   6.240  11.070  19.660
 1028BOLB   C4B24660   6.310  11.320  19.270
 1028BOLB   NC224661   4.790  11.810  21.580
 1028BOLB   PO224662   4.510  12.080  21.400
 1028BOLB   GL324663   4.820  12.180  21.110
 1028BOLB   GL424664   5.080  12.030  21.200
 1028BOLB   C1C24665   5.020  12.420  20.800
 1028BOLB   C2C24666   4.990  12.540  20.360
 1028BOLB   C3C24667   5.160  12.500  19.960
 1028BOLB   C4C24668   5.530  12.270  19.810
 1028BOLB   C1D24669   5.540  12.010  21.200
 1028BOLB   C2D24670   5.890  12.120  20.970
 1028BOLB   C3D24671   6.120  12.470  20.920
 1028BOLB   C4D24672   6.180  12.820  20.980
 1029BOLB   NC124673  10.710  26.300  23.180
 1029BOLB   PO124674  10.370  26.430  22.770
 1029BOLB   GL124675  10.430  25.970  22.620
 1029BOLB   GL224676  10.070  25.870  22.670
 1029BOLB   C1A24677  10.610  25.690  22.340
 1029BOLB   C2A24678  10.660  25.540  22.030
 1029BOLB   C3A24679  10.790  25.250  21.740
 1029BOLB   C4A24680  10.820  25.000  21.250
 1029BOLB   C1B24681  10.000  25.550  22.350
 1029BOLB   C2B24682  10.050  25.620  21.950
 1029BOLB   C3B24683  10.010  25.390  21.680
 1029BOLB   C4B24684   9.790  25.130  21.490
 1029BOLB   NC224685  10.980  26.960  21.720
 1029BOLB   PO224686  10.900  26.460  21.570
 1029BOLB   GL324687  10.680  26.200  21.200
 1029BOLB   GL424688  10.420  26.040  21.360
 1029BOLB   C1C24689  10.620  25.910  20.890
 1029BOLB   C2C24690  10.290  25.540  20.710
 1029BOLB   C3C24691  10.330  25.070  20.710
 1029BOLB   C4C24692  10.590  24.900  20.930
 1029BOLB   C1D24693  10.110  25.850  21.490
 1029BOLB   C2D24694   9.920  25.500  21.180
 1029BOLB   C3D24695   9.950  25.060  20.980
 1029BOLB   C4D24696  10.100  24.600  21.010
 1030BOLB   NC124697  27.280  12.250   8.100
 1030BOLB   PO124698  27.390  12.550   8.420
 1030BOLB   GL124699  27.030  12.480   8.580
 1030BOLB   GL224700  26.840  12.310   8.340
 1030BOLB   C1A24701  26.610  12.550   8.760
 1030BOLB   C2A24702  26.270  12.760   8.920
 1030BOLB   C3A24703  26.070  13.090   8.810
 1030BOLB   C4A24704  25.800  13.320   8.570
 1030BOLB   C1B24705  26.530  12.710   8.330
 1030BOLB   C2B24706  26.450  13.080   8.520
 1030BOLB   C3B24707  26.540  13.620   8.460
 1030BOLB   C4B24708  26.580  14.080   8.350
 1030BOLB   NC224709  27.040  12.370   7.610
 1030BOLB   PO224710  26.750  12.090   7.280
 1030BOLB   GL324711  26.480  12.310   7.610
 1030BOLB   GL424712  26.420  12.220   7.950
 1030BOLB   C1C24713  26.160  12.540   7.740
 1030BOLB   C2C24714  25.870  12.730   7.690
 1030BOLB   C3C24715  25.590  13.020   7.850
 1030BOLB   C4C24716  25.580  13.150   8.210
 1030BOLB   C1D24717  26.140  12.330   8.290
 1030BOLB   C2D24718  25.880  12.490   8.590
 1030BOLB   C3D24719  25.550  12.770   8.560
 1030BOLB   C4D24720  25.280  12.890   8.850
 1031BOLB   NC124721   6.760  19.260  25.220
 1031BOLB   PO124722   6.320  19.240  25.010
 1031BOLB   GL124723   6.520  18.980  24.780
 1031BOLB   GL224724   6.820  19.140  24.580
 1031BOLB   C1A24725   6.610  18.700  24.490
 1031BOLB   C2A24726   6.940  18.360  24.460
 1031BOLB   C3A24727   6.790  17.930  24.470
 1031BOLB   C4A24728   6.520  17.660  24.180
 1031BOLB   C1B24729   7.230  19.320  24.460
 1031BOLB   C2B24730   7.420  19.120  24.350
 1031BOLB   C3B24731   7.670  18.690  24.230
 1031BOLB   C4B24732   8.080  18.610  24.290
 1031BOLB   NC224733   5.360  16.160  24.650
 1031BOLB   PO224734   5.770  16.130  24.650
 1031BOLB   GL324735   6.030  16.100  24.370
 1031BOLB   GL424736   5.870  16.170  24.110
 1031BOLB   C1C24737   6.370  16.290  24.120
 1031BOLB   C2C24738   6.590  16.710  23.850
 1031BOLB   C3C24739   6.380  17.150  23.680
 1031BOLB   C4C24740   6.380  17.430  23.860
 1031BOLB   C1D24741   6.020  16.400  23.800
 1031BOLB   C2D24742   6.180  16.660  23.410
 1031BOLB   C3D24743   6.350  16.990  23.140
 1031BOLB   C4D24744   6.440  17.120  22.700
 1032BOLB   NC124745   8.980  21.570  13.330
 1032BOLB   PO124746   9.130  21.250  13.750
 1032BOLB   GL124747   8.840  21.480  13.890
 1032BOLB   GL224748   9.000  21.720  13.770
 1032BOLB   C1A24749   8.420  21.490  14.130
 1032BOLB   C2A24750   8.050  21.480  14.290
 1032BOLB   C3A24751   7.650  21.570  14.430
 1032BOLB   C4A24752   7.240  21.660  14.400
 1032BOLB   C1B24753   8.560  21.930  13.850
 1032BOLB   C2B24754   8.390  22.120  14.200
 1032BOLB   C3B24755   8.110  21.960  14.500
 1032BOLB   C4B24756   8.060  21.620  14.850
 1032BOLB   NC224757   5.440  23.710  13.810
 1032BOLB   PO224758   5.880  23.630  14.110
 1032BOLB   GL324759   6.030  23.320  14.090
 1032BOLB   GL424760   6.140  23.410  14.460
 1032BOLB   C1C24761   6.280  23.020  14.080
 1032BOLB   C2C24762   6.500  22.640  14.190
 1032BOLB   C3C24763   6.830  22.430  14.120
 1032BOLB   C4C24764   7.020  22.040  14.270
 1032BOLB   C1D24765   6.300  22.980  14.590
 1032BOLB   C2D24766   6.500  22.930  14.870
 1032BOLB   C3D24767   6.590  22.660  15.060
 1032BOLB   C4D24768   6.560  22.270  15.360
 1033BOLB   NC124769   9.680  25.430  24.630
 1033BOLB   PO124770   9.800  25.280  24.310
 1033BOLB   GL124771  10.030  25.060  23.880
 1033BOLB   GL224772  10.370  24.910  23.940
 1033BOLB   C1A24773   9.850  24.810  23.670
 1033BOLB   C2A24774   9.690  24.830  23.260
 1033BOLB   C3A24775   9.860  24.620  22.890
 1033BOLB   C4A24776   9.570  24.480  22.560
 1033BOLB   C1B24777  10.760  24.930  23.600
 1033BOLB   C2B24778  10.870  24.960  23.160
 1033BOLB   C3B24779  10.580  25.050  22.920
 1033BOLB   C4B24780  10.330  24.790  22.850
 1033BOLB   NC224781   9.700  26.920  22.040
 1033BOLB   PO224782   9.310  26.580  21.970
 1033BOLB   GL324783   9.090  26.320  21.820
 1033BOLB   GL424784   8.810  26.250  22.000
 1033BOLB   C1C24785   9.250  25.800  21.900
 1033BOLB   C2C24786   9.540  25.480  21.900
 1033BOLB   C3C24787   9.690  25.180  22.190
 1033BOLB   C4C24788   9.560  24.720  22.200
 1033BOLB   C1D24789   8.870  25.910  22.230
 1033BOLB   C2D24790   8.830  25.490  22.390
 1033BOLB   C3D24791   9.260  25.080  22.330
 1033BOLB   C4D24792   9.550  24.950  22.670
 1034BOLB   NC124793   9.290  25.390  24.150
 1034BOLB   PO124794   8.930  25.200  23.960
 1034BOLB   GL124795   9.180  25.040  23.550
 1034BOLB   GL224796   9.170  24.740  23.670
 1034BOLB   C1A24797   9.100  24.800  23.090
 1034BOLB   C2A24798   9.160  24.680  22.670
 1034BOLB   C3A24799   9.070  24.540  22.260
 1034BOLB   C4A24800   9.150  24.580  21.860
 1034BOLB   C1B24801   9.410  24.450  23.480
 1034BOLB   C2B24802   9.490  24.370  23.060
 1034BOLB   C3B24803   9.360  24.090  22.730
 1034BOLB   C4B24804   9.230  23.710  22.620
 1034BOLB   NC224805   9.030  26.950  21.310
 1034BOLB   PO224806   8.640  26.810  21.280
 1034BOLB   GL324807   8.790  26.380  21.440
 1034BOLB   GL424808   8.520  26.190  21.590
 1034BOLB   C1C24809   8.910  25.980  21.350
 1034BOLB   C2C24810   8.840  25.510  21.290
 1034BOLB   C3C24811   8.750  25.040  21.370
 1034BOLB   C4C24812   8.900  24.590  21.510
 1034BOLB   C1D24813   8.520  25.780  21.660
 1034BOLB   C2D24814   8.810  25.470  21.780
 1034BOLB   C3D24815   8.980  25.180  21.850
 1034BOLB   C4D24816   9.400  25.020  21.810
 1035BOLB   NC124817  12.000  23.120  10.660
 1035BOLB   PO124818  12.270  23.160  10.300
 1035BOLB   GL124819  11.950  23.470  10.210
 1035BOLB   GL224820  11.760  23.670  10.350
 1035BOLB   C1A24821  11.860  23.600   9.820
 1035BOLB   C2A24822  11.710  23.770   9.470
 1035BOLB   C3A24823  11.510  23.930   9.120
 1035BOLB   C4A24824  11.470  24.250   8.890
 1035BOLB   C1B24825  11.750  24.120  10.310
 1035BOLB   C2B24826  11.870  24.520  10.360
 1035BOLB   C3B24827  11.900  24.910  10.220
 1035BOLB   C4B24828  11.690  25.200   9.990
 1035BOLB   NC224829  10.860  26.300   7.820
 1035BOLB   PO224830  10.430  26.270   7.620
 1035BOLB   GL324831  10.780  25.890   7.490
 1035BOLB   GL424832  10.950  25.770   7.320
 1035BOLB   C1C24833  11.040  25.690   7.860
 1035BOLB   C2C24834  11.290  25.400   8.270
 1035BOLB   C3C24835  11.240  25.040   8.640
 1035BOLB   C4C24836  11.400  24.670   8.820
 1035BOLB   C1D24837  11.150  25.410   7.430
 1035BOLB   C2D24838  11.210  25.230   7.810
 1035BOLB   C3D24839  11.200  24.970   8.090
 1035BOLB   C4D24840  11.410  24.790   8.320
 1036BOLB   NC124841   6.490  26.170  20.190
 1036BOLB   PO124842   6.920  26.210  20.280
 1036BOLB   GL124843   7.050  25.860  20.160
 1036BOLB   GL224844   7.000  25.540  20.350
 1036BOLB   C1A24845   7.150  25.640  19.800
 1036BOLB   C2A24846   7.440  25.350  19.890
 1036BOLB   C3A24847   7.600  24.950  19.970
 1036BOLB   C4A24848   7.410  24.540  19.880
 1036BOLB   C1B24849   7.100  25.360  20.720
 1036BOLB   C2B24850   7.490  25.090  20.830
 1036BOLB   C3B24851   7.860  24.740  20.860
 1036BOLB   C4B24852   8.130  24.610  20.660
 1036BOLB   NC224853   5.630  26.100  20.300
 1036BOLB   PO224854   6.010  26.110  20.210
 1036BOLB   GL324855   5.990  25.750  20.180
 1036BOLB   GL424856   5.870  25.490  20.200
 1036BOLB   C1C24857   6.210  25.480  19.820
 1036BOLB   C2C24858   6.470  25.120  19.770
 1036BOLB   C3C24859   6.630  24.840  19.920
 1036BOLB   C4C24860   6.990  24.540  19.970
 1036BOLB   C1D24861   6.160  25.060  20.180
 1036BOLB   C2D24862   6.250  24.620  20.240
 1036BOLB   C3D24863   6.600  24.270  20.210
 1036BOLB   C4D24864   6.920  24.270  20.580
 1037BOLB   NC124865  11.510  22.180   9.070
 1037BOLB   PO124866  11.840  22.260   8.820
 1037BOLB   GL124867  11.710  22.500   8.500
 1037BOLB   GL224868  11.430  22.410   8.370
 1037BOLB   C1A24869  11.890  22.770   8.210
 1037BOLB   C2A24870  11.980  23.180   8.030
 1037BOLB   C3A24871  11.770  23.510   7.700
 1037BOLB   C4A24872  11.510  23.770   7.530
 1037BOLB   C1B24873  11.380  22.860   8.320
 1037BOLB   C2B24874  11.110  23.150   8.280
 1037BOLB   C3B24875  10.790  23.480   8.180
 1037BOLB   C4B24876  10.380  23.610   8.030
 1037BOLB   NC224877   9.570  24.630   6.290
 1037BOLB   PO224878   9.470  24.690   6.760
 1037BOLB   GL324879   9.730  24.660   7.030
 1037BOLB   GL424880  10.000  24.580   6.870
 1037BOLB   C1C24881  10.060  24.660   7.370
 1037BOLB   C2C24882  10.450  24.610   7.520
 1037BOLB   C3C24883  10.730  24.260   7.630
 1037BOLB   C4C24884  11.160  24.070   7.640
 1037BOLB   C1D24885  10.020  24.250   7.130
 1037BOLB   C2D24886  10.210  23.830   7.240
 1037BOLB   C3D24887  10.010  23.630   7.680
 1037BOLB   C4D24888  10.200  23.260   7.770
 1038BOLB   NC124889  18.310  24.640  11.880
 1038BOLB   PO124890  18.430  24.870  11.590
 1038BOLB   GL124891  18.510  25.240  11.660
 1038BOLB   GL224892  18.280  25.440  11.520
 1038BOLB   C1A24893  18.610  25.680  11.820
 1038BOLB   C2A24894  18.880  25.840  11.950
 1038BOLB   C3A24895  18.990  26.260  12.300
 1038BOLB   C4A24896  19.100  26.690  12.280
 1038BOLB   C1B24897  18.390  25.760  11.270
 1038BOLB   C2B24898  18.660  26.000  11.110
 1038BOLB   C3B24899  19.070  26.290  11.170
 1038BOLB   C4B24900  19.370  26.310  10.920
 1038BOLB   NC224901  19.940  29.120  11.540
 1038BOLB   PO224902  20.170  28.940  11.780
 1038BOLB   GL324903  19.980  28.510  11.770
 1038BOLB   GL424904  19.820  28.410  11.570
 1038BOLB   C1C24905  20.150  28.000  11.770
 1038BOLB   C2C24906  20.130  27.610  12.040
 1038BOLB   C3C24907  19.910  27.200  12.160
 1038BOLB   C4C24908  19.430  26.970  12.310
 1038BOLB   C1D24909  19.590  27.970  11.790
 1038BOLB   C2D24910  19.750  27.510  11.740
 1038BOLB   C3D24911  20.260  27.380  11.650
 1038BOLB   C4D24912  20.390  27.320  11.260
 1039BOLB   NC124913  14.060  29.670  13.800
 1039BOLB   PO124914  14.270  29.460  13.380
 1039BOLB   GL124915  14.250  29.100  13.180
 1039BOLB   GL224916  14.170  28.840  12.930
 1039BOLB   C1A24917  14.060  28.790  13.430
 1039BOLB   C2A24918  14.200  28.380  13.700
 1039BOLB   C3A24919  14.440  28.070  13.930
 1039BOLB   C4A24920  14.340  28.030  14.420
 1039BOLB   C1B24921  14.170  28.350  12.870
 1039BOLB   C2B24922  14.170  27.850  13.010
 1039BOLB   C3B24923  14.130  27.500  12.980
 1039BOLB   C4B24924  13.890  27.080  13.050
 1039BOLB   NC224925  15.300  29.550  15.490
 1039BOLB   PO224926  15.640  29.460  15.230
 1039BOLB   GL324927  15.660  29.100  15.380
 1039BOLB   GL424928  15.570  29.150  15.710
 1039BOLB   C1C24929  15.300  28.760  15.300
 1039BOLB   C2C24930  14.940  28.540  15.450
 1039BOLB   C3C24931  14.530  28.290  15.180
 1039BOLB   C4C24932  14.650  28.140  14.800
 1039BOLB   C1D24933  15.640  28.690  15.640
 1039BOLB   C2D24934  15.500  28.250  15.500
 1039BOLB   C3D24935  15.420  27.820  15.310
 1039BOLB   C4D24936  15.240  27.480  15.480
 1040BOLB   NC124937  27.130  12.440  11.070
 1040BOLB   PO124938  26.930  12.060  11.300
 1040BOLB   GL124939  26.650  11.800  11.490
 1040BOLB   GL224940  26.380  11.830  11.250
 1040BOLB   C1A24941  26.150  11.730  11.720
 1040BOLB   C2A24942  25.760  11.920  11.680
 1040BOLB   C3A24943  25.360  12.190  11.810
 1040BOLB   C4A24944  25.240  12.540  12.150
 1040BOLB   C1B24945  26.140  12.060  11.320
 1040BOLB   C2B24946  25.700  12.330  11.320
 1040BOLB   C3B24947  25.370  12.600  11.220
 1040BOLB   C4B24948  25.090  12.950  11.250
 1040BOLB   NC224949  26.910  12.420  13.090
 1040BOLB   PO224950  27.190  12.830  13.010
 1040BOLB   GL324951  26.780  12.930  13.110
 1040BOLB   GL424952  26.680  12.840  12.800
 1040BOLB   C1C24953  26.260  13.050  12.900
 1040BOLB   C2C24954  25.960  12.810  12.710
 1040BOLB   C3C24955  25.700  12.890  12.420
 1040BOLB   C4C24956  25.300  12.790  12.420
 1040BOLB   C1D24957  26.320  12.510  12.840
 1040BOLB   C2D24958  26.070  12.130  12.930
 1040BOLB   C3D24959  25.780  11.850  12.660
 1040BOLB   C4D24960  25.390  11.720  12.750
 1041BOLB   NC124961  12.940  23.080  10.930
 1041BOLB   PO124962  12.980  23.550  10.820
 1041BOLB   GL124963  12.690  23.900  10.630
 1041BOLB   GL224964  12.740  23.900  10.340
 1041BOLB   C1A24965  12.550  24.350  10.520
 1041BOLB   C2A24966  12.260  24.640  10.700
 1041BOLB   C3A24967  11.950  24.930  10.770
 1041BOLB   C4A24968  11.710  25.290  10.570
 1041BOLB   C1B24969  12.660  24.170  10.000
 1041BOLB   C2B24970  12.600  24.290   9.610
 1041BOLB   C3B24971  12.320  24.590   9.360
 1041BOLB   C4B24972  12.090  24.980   9.190
 1041BOLB   NC224973  10.820  26.920   8.440
 1041BOLB   PO224974  10.590  26.870   8.810
 1041BOLB   GL324975  10.630  26.510   9.100
 1041BOLB   GL424976  10.670  26.250   9.010
 1041BOLB   C1C24977  10.870  26.370   9.450
 1041BOLB   C2C24978  10.920  26.090   9.850
 1041BOLB   C3C24979  11.230  25.960   9.980
 1041BOLB   C4C24980  11.520  25.590  10.220
 1041BOLB   C1D24981  10.990  25.990   9.140
 1041BOLB   C2D24982  11.170  25.760   9.550
 1041BOLB   C3D24983  11.470  25.520   9.650
 1041BOLB   C4D24984  11.870  25.240   9.570
 1042BOLB   NC124985  18.630  20.440  19.970
 1042BOLB   PO124986  18.920  20.730  19.790
 1042BOLB   GL124987  18.930  20.880  20.300
 1042BOLB   GL224988  18.650  21.070  20.460
 1042BOLB   C1A24989  19.120  21.010  20.710
 1042BOLB   C2A24990  19.300  20.850  21.120
 1042BOLB   C3A24991  19.210  20.550  21.450
 1042BOLB   C4A24992  19.370  20.270  21.760
 1042BOLB   C1B24993  18.900  21.400  20.440
 1042BOLB   C2B24994  19.120  21.660  20.720
 1042BOLB   C3B24995  18.930  21.990  20.960
 1042BOLB   C4B24996  18.890  22.010  21.430
 1042BOLB   NC224997  20.170  20.270  23.590
 1042BOLB   PO224998  20.380  19.890  23.740
 1042BOLB   GL324999  19.940  19.640  23.560
 1042BOLB   GL425000  19.900  19.920  23.400
 1042BOLB   C1C25001  19.710  19.530  23.280
 1042BOLB   C2C25002  19.390  19.480  22.920
 1042BOLB   C3C25003  19.370  19.800  22.490
 1042BOLB   C4C25004  19.500  20.140  22.190
 1042BOLB   C1D25005  19.580  20.000  23.010
 1042BOLB   C2D25006  19.360  20.330  22.840
 1042BOLB   C3D25007  19.120  20.320  22.450
 1042BOLB   C4D25008  18.700  20.470  22.320
 1043BOLB   NC125009  11.620  28.160  17.030
 1043BOLB   PO125010  11.790  28.400  16.760
 1043BOLB   GL125011  12.170  28.270  16.950
 1043BOLB   GL225012  12.040  27.970  17.260
 1043BOLB   C1A25013  12.520  28.160  17.210
 1043BOLB   C2A25014  12.870  27.970  17.360
 1043BOLB   C3A25015  13.170  27.640  17.190
 1043BOLB   C4A25016  13.510  27.370  17.160
 1043BOLB   C1B25017  12.260  27.710  16.940
 1043BOLB   C2B25018  12.300  27.470  16.610
 1043BOLB   C3B25019  12.470  27.190  16.390
 1043BOLB   C4B25020  12.600  26.780  16.160
 1043BOLB   NC225021  14.620  29.020  18.250
 1043BOLB   PO225022  14.440  28.560  18.180
 1043BOLB   GL325023  14.470  28.170  18.360
 1043BOLB   GL425024  14.700  27.970  18.170
 1043BOLB   C1C25025  14.180  27.800  18.390
 1043BOLB   C2C25026  14.070  27.450  18.080
 1043BOLB   C3C25027  13.890  27.300  17.570
 1043BOLB   C4C25028  13.510  27.100  17.440
 1043BOLB   C1D25029  14.620  27.620  18.120
 1043BOLB   C2D25030  14.840  27.270  18.050
 1043BOLB   C3D25031  15.030  26.840  18.120
 1043BOLB   C4D25032  15.150  26.470  18.310
 1044BOLB   NC125033   8.470  18.300   9.100
 1044BOLB   PO125034   8.960  18.170   9.020
 1044BOLB   GL125035   8.630  18.140   8.630
 1044BOLB   GL225036   8.650  18.240   8.230
 1044BOLB   C1A25037   8.120  18.330   8.550
 1044BOLB   C2A25038   7.640  18.490   8.400
 1044BOLB   C3A25039   7.560  18.970   8.410
 1044BOLB   C4A25040   7.220  19.150   8.680
 1044BOLB   C1B25041   8.290  18.130   8.050
 1044BOLB   C2B25042   7.890  18.110   8.100
 1044BOLB   C3B25043   7.560  18.370   7.900
 1044BOLB   C4B25044   7.260  18.540   7.680
 1044BOLB   NC225045   5.220  19.550   7.300
 1044BOLB   PO225046   5.160  19.690   7.690
 1044BOLB   GL325047   5.560  19.580   7.750
 1044BOLB   GL425048   5.590  19.250   7.820
 1044BOLB   C1C25049   5.990  19.570   7.740
 1044BOLB   C2C25050   6.160  19.600   8.130
 1044BOLB   C3C25051   6.490  19.500   8.440
 1044BOLB   C4C25052   6.790  19.280   8.720
 1044BOLB   C1D25053   6.000  19.070   7.920
 1044BOLB   C2D25054   6.480  19.090   8.110
 1044BOLB   C3D25055   6.920  18.970   8.130
 1044BOLB   C4D25056   7.160  18.670   8.330
 1045BOLB   NC125057  13.970  16.660   0.210
 1045BOLB   PO125058  14.040  16.910   0.530
 1045BOLB   GL125059  14.200  16.970   0.930
 1045BOLB   GL225060  13.970  17.210   1.030
 1045BOLB   C1A25061  14.300  17.030   1.300
 1045BOLB   C2A25062  14.700  17.180   1.610
 1045BOLB   C3A25063  15.100  17.270   1.610
 1045BOLB   C4A25064  15.410  17.440   1.840
 1045BOLB   C1B25065  13.930  17.440   1.350
 1045BOLB   C2B25066  13.940  17.640   1.780
 1045BOLB   C3B25067  13.680  17.580   2.040
 1045BOLB   C4B25068  13.910  17.290   2.280
 1045BOLB   NC225069  16.410  18.350   0.170
 1045BOLB   PO225070  16.070  18.630   0.330
 1045BOLB   GL325071  16.130  18.690   0.780
 1045BOLB   GL425072  15.990  19.000   0.750
 1045BOLB   C1C25073  16.170  18.420   1.130
 1045BOLB   C2C25074  16.050  18.250   1.520
 1045BOLB   C3C25075  15.740  18.220   1.790
 1045BOLB   C4C25076  15.480  17.910   1.940
 1045BOLB   C1D25077  15.850  18.820   1.220
 1045BOLB   C2D25078  15.730  18.670   1.610
 1045BOLB   C3D25079  16.070  18.570   1.990
 1045BOLB   C4D25080  15.920  18.590   2.260
 1046BOLB   NC125081   1.400  18.840  19.100
 1046BOLB   PO125082   1.810  19.130  18.970
 1046BOLB   GL125083   1.930  18.890  18.590
 1046BOLB   GL225084   1.760  18.720  18.380
 1046BOLB   C1A25085   2.340  18.630  18.510
 1046BOLB   C2A25086   2.650  18.510  18.740
 1046BOLB   C3A25087   2.980  18.620  19.050
 1046BOLB   C4A25088   3.220  18.880  19.180
 1046BOLB   C1B25089   2.030  18.460  18.070
 1046BOLB   C2B25090   2.170  18.070  17.770
 1046BOLB   C3B25091   2.380  18.080  17.380
 1046BOLB   C4B25092   2.670  18.050  17.030
 1046BOLB   NC225093   2.410  18.400  20.500
 1046BOLB   PO225094   2.660  18.100  20.240
 1046BOLB   GL325095   2.880  18.260  19.880
 1046BOLB   GL425096   3.070  18.130  19.680
 1046BOLB   C1C25097   3.000  18.750  20.110
 1046BOLB   C2C25098   3.250  19.030  19.930
 1046BOLB   C3C25099   3.450  19.220  19.640
 1046BOLB   C4C25100   3.550  19.120  19.240
 1046BOLB   C1D25101   3.250  18.280  19.280
 1046BOLB   C2D25102   3.440  18.200  18.830
 1046BOLB   C3D25103   3.500  17.930  18.520
 1046BOLB   C4D25104   3.570  17.880  18.060
 1047BOLB   NC125105  18.640  29.530  14.720
 1047BOLB   PO125106  18.790  29.430  14.300
 1047BOLB   GL125107  18.590  29.050  14.500
 1047BOLB   GL225108  18.260  28.970  14.400
 1047BOLB   C1A25109  18.610  28.650  14.660
 1047BOLB   C2A25110  18.680  28.290  14.700
 1047BOLB   C3A25111  18.520  28.020  14.490
 1047BOLB   C4A25112  18.430  27.830  14.050
 1047BOLB   C1B25113  18.390  28.510  14.260
 1047BOLB   C2B25114  18.240  28.280  13.850
 1047BOLB   C3B25115  18.550  28.150  13.540
 1047BOLB   C4B25116  18.730  28.060  13.030
 1047BOLB   NC225117  19.460  29.320  12.730
 1047BOLB   PO225118  19.480  29.390  13.140
 1047BOLB   GL325119  19.420  28.960  13.220
 1047BOLB   GL425120  19.100  29.010  13.420
 1047BOLB   C1C25121  19.360  28.540  13.090
 1047BOLB   C2C25122  19.170  28.130  13.190
 1047BOLB   C3C25123  18.940  27.760  13.440
 1047BOLB   C4C25124  18.570  27.690  13.670
 1047BOLB   C1D25125  19.250  28.740  13.760
 1047BOLB   C2D25126  19.230  28.340  13.690
 1047BOLB   C3D25127  19.400  27.900  13.710
 1047BOLB   C4D25128  19.390  27.440  13.780
 1048BOLB   NC125129  17.350  28.220  18.650
 1048BOLB   PO125130  17.520  27.790  18.890
 1048BOLB   GL125131  17.480  27.370  18.820
 1048BOLB   GL225132  17.250  27.450  18.600
 1048BOLB   C1A25133  17.490  26.970  18.610
 1048BOLB   C2A25134  17.720  26.420  18.560
 1048BOLB   C3A25135  17.970  26.160  18.460
 1048BOLB   C4A25136  18.300  25.890  18.360
 1048BOLB   C1B25137  16.950  27.400  18.270
 1048BOLB   C2B25138  16.710  27.500  17.920
 1048BOLB   C3B25139  16.950  27.500  17.380
 1048BOLB   C4B25140  17.290  27.760  17.290
 1048BOLB   NC225141  19.970  26.600  20.000
 1048BOLB   PO225142  19.510  26.600  20.090
 1048BOLB   GL325143  19.200  26.300  19.870
 1048BOLB   GL425144  18.900  26.430  19.760
 1048BOLB   C1C25145  18.980  26.030  19.580
 1048BOLB   C2C25146  19.070  25.730  19.190
 1048BOLB   C3C25147  18.930  25.690  18.870
 1048BOLB   C4C25148  18.590  25.710  18.570
 1048BOLB   C1D25149  18.490  26.230  19.610
 1048BOLB   C2D25150  18.120  25.930  19.580
 1048BOLB   C3D25151  17.760  25.940  19.600
 1048BOLB   C4D25152  17.340  26.010  19.690
 1049BOLB   NC125153  14.980  25.480  12.350
 1049BOLB   PO125154  14.630  25.270  12.330
 1049BOLB   GL125155  14.350  25.650  12.300
 1049BOLB   GL225156  14.590  25.860  12.400
 1049BOLB   C1A25157  14.050  25.920  12.350
 1049BOLB   C2A25158  13.930  26.190  12.040
 1049BOLB   C3A25159  13.950  26.610  11.990
 1049BOLB   C4A25160  14.120  27.070  12.060
 1049BOLB   C1B25161  14.470  26.170  12.160
 1049BOLB   C2B25162  14.410  26.610  12.230
 1049BOLB   C3B25163  14.500  26.940  12.460
 1049BOLB   C4B25164  14.420  27.320  12.570
 1049BOLB   NC225165  14.270  29.280  11.800
 1049BOLB   PO225166  14.530  29.330  12.030
 1049BOLB   GL325167  14.360  29.050  12.350
 1049BOLB   GL425168  14.640  28.800  12.440
 1049BOLB   C1C25169  14.160  28.650  12.430
 1049BOLB   C2C25170  14.340  28.260  12.400
 1049BOLB   C3C25171  14.280  27.820  12.490
 1049BOLB   C4C25172  14.180  27.550  12.200
 1049BOLB   C1D25173  14.600  28.620  12.020
 1049BOLB   C2D25174  14.580  28.450  11.670
 1049BOLB   C3D25175  14.880  28.120  11.790
 1049BOLB   C4D25176  14.990  27.760  12.010
 1050BOLB   NC125177  15.310  18.640   4.690
 1050BOLB   PO125178  14.970  18.930   4.580
 1050BOLB   GL125179  14.910  19.030   4.190
 1050BOLB   GL225180  15.260  19.110   4.160
 1050BOLB   C1A25181  14.670  19.180   3.990
 1050BOLB   C2A25182  14.440  19.420   3.790
 1050BOLB   C3A25183  14.160  19.630   3.370
 1050BOLB   C4A25184  14.170  19.880   2.960
 1050BOLB   C1B25185  15.200  19.360   3.720
 1050BOLB   C2B25186  15.310  19.690   3.380
 1050BOLB   C3B25187  15.060  20.100   3.340
 1050BOLB   C4B25188  14.790  20.360   3.360
 1050BOLB   NC225189  12.870  20.760   1.160
 1050BOLB   PO225190  12.510  20.490   1.210
 1050BOLB   GL325191  12.770  20.320   1.450
 1050BOLB   GL425192  12.840  20.020   1.420
 1050BOLB   C1C25193  13.090  20.240   1.840
 1050BOLB   C2C25194  13.420  20.020   1.960
 1050BOLB   C3C25195  13.740  19.840   2.250
 1050BOLB   C4C25196  13.960  19.850   2.630
 1050BOLB   C1D25197  12.620  19.900   1.730
 1050BOLB   C2D25198  12.180  19.710   1.720
 1050BOLB   C3D25199  11.820  19.650   1.970
 1050BOLB   C4D25200  11.840  19.630   2.410
 1051BOLB   NC125201  21.340   7.020  15.230
 1051BOLB   PO125202  21.060   6.730  14.850
 1051BOLB   GL125203  20.830   6.920  14.540
 1051BOLB   GL225204  20.650   6.990  14.300
 1051BOLB   C1A25205  20.920   7.390  14.460
 1051BOLB   C2A25206  21.060   7.740  14.540
 1051BOLB   C3A25207  21.230   8.150  14.460
 1051BOLB   C4A25208  21.620   8.440  14.520
 1051BOLB   C1B25209  20.500   7.380  14.200
 1051BOLB   C2B25210  20.540   7.720  14.420
 1051BOLB   C3B25211  20.430   7.860  14.770
 1051BOLB   C4B25212  20.030   7.880  15.060
 1051BOLB   NC225213  22.370   7.630  16.790
 1051BOLB   PO225214  22.540   7.600  16.330
 1051BOLB   GL325215  22.360   7.970  16.300
 1051BOLB   GL425216  22.130   7.970  16.510
 1051BOLB   C1C25217  22.230   8.270  15.960
 1051BOLB   C2C25218  22.170   8.210  15.520
 1051BOLB   C3C25219  22.300   8.230  15.130
 1051BOLB   C4C25220  21.980   8.300  14.800
 1051BOLB   C1D25221  21.870   8.210  16.350
 1051BOLB   C2D25222  21.600   8.370  16.120
 1051BOLB   C3D25223  21.490   8.730  15.770
 1051BOLB   C4D25224  21.380   8.840  15.370
 1052BOLB   NC125225  27.410  13.410   8.990
 1052BOLB   PO125226  27.690  13.490   9.390
 1052BOLB   GL125227  27.290  13.470   9.450
 1052BOLB   GL225228  27.230  13.690   9.590
 1052BOLB   C1A25229  26.870  13.360   9.470
 1052BOLB   C2A25230  26.420  13.370   9.490
 1052BOLB   C3A25231  26.010  13.160   9.290
 1052BOLB   C4A25232  25.620  13.150   9.060
 1052BOLB   C1B25233  26.940  13.870   9.550
 1052BOLB   C2B25234  26.520  13.820   9.720
 1052BOLB   C3B25235  26.150  13.610   9.840
 1052BOLB   C4B25236  25.690  13.480   9.530
 1052BOLB   NC225237  26.760  14.160   6.940
 1052BOLB   PO225238  26.700  13.650   7.030
 1052BOLB   GL325239  26.430  13.880   7.320
 1052BOLB   GL425240  26.370  14.200   7.240
 1052BOLB   C1C25241  26.000  13.790   7.490
 1052BOLB   C2C25242  25.820  13.720   7.970
 1052BOLB   C3C25243  25.410  13.600   8.290
 1052BOLB   C4C25244  25.310  13.320   8.610
 1052BOLB   C1D25245  25.980  14.530   7.070
 1052BOLB   C2D25246  25.690  14.800   7.180
 1052BOLB   C3D25247  25.290  14.870   7.250
 1052BOLB   C4D25248  24.820  14.930   7.390
 1053BOLB   NC125249   1.490  21.220  14.980
 1053BOLB   PO125250   1.290  21.150  14.530
 1053BOLB   GL125251   1.640  20.910  14.540
 1053BOLB   GL225252   1.830  20.930  14.850
 1053BOLB   C1A25253   1.990  20.540  14.410
 1053BOLB   C2A25254   2.220  20.090  14.380
 1053BOLB   C3A25255   2.490  19.840  14.590
 1053BOLB   C4A25256   2.690  19.890  14.980
 1053BOLB   C1B25257   1.920  20.600  15.160
 1053BOLB   C2B25258   1.940  20.230  15.320
 1053BOLB   C3B25259   1.780  19.720  15.590
 1053BOLB   C4B25260   1.640  19.280  15.520
 1053BOLB   NC225261   1.060  19.540  15.620
 1053BOLB   PO225262   1.140  19.660  16.110
 1053BOLB   GL325263   1.500  19.330  16.120
 1053BOLB   GL425264   1.740  19.610  16.210
 1053BOLB   C1C25265   1.970  19.270  15.930
 1053BOLB   C2C25266   2.340  19.520  15.900
 1053BOLB   C3C25267   2.660  19.750  15.670
 1053BOLB   C4C25268   2.740  19.690  15.310
 1053BOLB   C1D25269   2.050  19.900  16.020
 1053BOLB   C2D25270   2.400  20.080  15.960
 1053BOLB   C3D25271   2.730  20.250  15.750
 1053BOLB   C4D25272   2.890  20.640  15.660
 1054BOLB   NC125273   7.800   5.690  17.880
 1054BOLB   PO125274   7.870   5.950  18.180
 1054BOLB   GL125275   7.790   6.210  17.780
 1054BOLB   GL225276   7.460   6.170  17.500
 1054BOLB   C1A25277   7.880   6.590  17.530
 1054BOLB   C2A25278   8.040   6.950  17.770
 1054BOLB   C3A25279   7.840   7.110  18.120
 1054BOLB   C4A25280   7.590   7.290  18.180
 1054BOLB   C1B25281   7.280   6.480  17.350
 1054BOLB   C2B25282   7.500   6.750  17.150
 1054BOLB   C3B25283   7.650   7.070  17.020
 1054BOLB   C4B25284   8.030   7.050  17.220
 1054BOLB   NC225285   5.830   7.450  18.750
 1054BOLB   PO225286   5.820   7.940  18.820
 1054BOLB   GL325287   5.830   8.090  18.410
 1054BOLB   GL425288   5.770   8.430  18.400
 1054BOLB   C1C25289   6.060   7.880  18.040
 1054BOLB   C2C25290   6.490   7.770  17.970
 1054BOLB   C3C25291   7.010   7.680  18.030
 1054BOLB   C4C25292   7.300   7.420  17.980
 1054BOLB   C1D25293   6.090   8.400  18.180
 1054BOLB   C2D25294   6.510   8.350  17.980
 1054BOLB   C3D25295   6.800   8.190  17.900
 1054BOLB   C4D25296   7.280   8.190  17.710
 1055BOLB   NC125297  18.710  17.130  20.080
 1055BOLB   PO125298  18.980  17.390  19.820
 1055BOLB   GL125299  19.170  17.290  20.180
 1055BOLB   GL225300  19.210  16.920  20.200
 1055BOLB   C1A25301  19.700  17.180  20.120
 1055BOLB   C2A25302  20.000  17.200  20.470
 1055BOLB   C3A25303  20.320  16.860  20.540
 1055BOLB   C4A25304  20.620  16.700  20.870
 1055BOLB   C1B25305  19.410  16.910  20.650
 1055BOLB   C2B25306  19.670  17.080  20.850
 1055BOLB   C3B25307  19.950  17.280  21.100
 1055BOLB   C4B25308  20.190  17.550  21.310
 1055BOLB   NC225309  21.950  15.810  23.120
 1055BOLB   PO225310  21.570  15.600  23.010
 1055BOLB   GL325311  21.480  15.810  22.730
 1055BOLB   GL425312  21.470  15.620  22.550
 1055BOLB   C1C25313  21.200  16.000  22.310
 1055BOLB   C2C25314  21.230  16.260  21.850
 1055BOLB   C3C25315  21.060  16.530  21.560
 1055BOLB   C4C25316  20.810  16.720  21.190
 1055BOLB   C1D25317  21.160  15.470  22.340
 1055BOLB   C2D25318  21.060  15.590  21.970
 1055BOLB   C3D25319  20.840  15.800  21.730
 1055BOLB   C4D25320  20.710  16.150  21.710
 1056BOLB   NC125321   5.270   6.720  15.650
 1056BOLB   PO125322   5.660   6.770  15.770
 1056BOLB   GL125323   6.030   6.760  15.980
 1056BOLB   GL225324   6.060   6.500  16.140
 1056BOLB   C1A25325   6.500   6.900  15.970
 1056BOLB   C2A25326   6.820   7.150  15.960
 1056BOLB   C3A25327   7.310   7.320  16.020
 1056BOLB   C4A25328   7.710   7.090  15.920
 1056BOLB   C1B25329   6.380   6.550  16.300
 1056BOLB   C2B25330   6.620   6.560  16.730
 1056BOLB   C3B25331   7.010   6.740  16.960
 1056BOLB   C4B25332   7.110   7.060  17.240
 1056BOLB   NC225333   7.610   4.740  17.490
 1056BOLB   PO225334   7.920   4.890  17.330
 1056BOLB   GL325335   8.050   5.300  17.300
 1056BOLB   GL425336   8.320   5.250  17.110
 1056BOLB   C1C25337   8.070   5.630  16.980
 1056BOLB   C2C25338   7.830   5.900  16.520
 1056BOLB   C3C25339   7.810   6.370  16.420
 1056BOLB   C4C25340   7.820   6.640  16.050
 1056BOLB   C1D25341   8.540   5.690  17.280
 1056BOLB   C2D25342   8.840   5.930  17.450
 1056BOLB   C3D25343   8.900   6.330  17.630
 1056BOLB   C4D25344   9.020   6.610  17.940
 1057BOLB   NC125345  26.730  21.140  16.770
 1057BOLB   PO125346  26.350  21.200  17.060
 1057BOLB   GL125347  26.000  20.910  16.940
 1057BOLB   GL225348  25.980  20.670  16.910
 1057BOLB   C1A25349  25.510  20.840  16.870
 1057BOLB   C2A25350  25.280  20.690  16.510
 1057BOLB   C3A25351  25.240  20.810  16.030
 1057BOLB   C4A25352  25.520  20.920  15.620
 1057BOLB   C1B25353  25.820  20.500  16.540
 1057BOLB   C2B25354  25.520  20.450  16.180
 1057BOLB   C3B25355  25.420  20.380  15.710
 1057BOLB   C4B25356  24.950  20.400  15.690
 1057BOLB   NC225357  28.190  20.790  15.390
 1057BOLB   PO225358  27.720  20.650  15.390
 1057BOLB   GL325359  27.460  20.420  15.140
 1057BOLB   GL425360  27.340  20.620  14.890
 1057BOLB   C1C25361  26.970  20.470  15.150
 1057BOLB   C2C25362  26.610  20.650  15.100
 1057BOLB   C3C25363  26.160  20.710  15.060
 1057BOLB   C4C25364  25.770  20.660  15.290
 1057BOLB   C1D25365  26.860  20.460  14.690
 1057BOLB   C2D25366  26.490  20.240  14.780
 1057BOLB   C3D25367  26.000  20.300  14.830
 1057BOLB   C4D25368  25.710  20.660  14.800
 1058BOLB   NC125369  16.700  25.010  11.790
 1058BOLB   PO125370  16.850  25.270  11.480
 1058BOLB   GL125371  16.780  25.710  11.350
 1058BOLB   GL225372  16.890  25.980  11.570
 1058BOLB   C1A25373  16.470  26.050  11.270
 1058BOLB   C2A25374  16.480  26.510  11.210
 1058BOLB   C3A25375  16.380  26.890  11.200
 1058BOLB   C4A25376  15.990  27.140  11.090
 1058BOLB   C1B25377  16.900  26.320  11.330
 1058BOLB   C2B25378  16.950  26.780  11.470
 1058BOLB   C3B25379  17.270  26.930  11.210
 1058BOLB   C4B25380  17.660  27.090  10.940
 1058BOLB   NC225381  16.690  28.910  10.020
 1058BOLB   PO225382  16.490  29.080  10.320
 1058BOLB   GL325383  16.280  28.860  10.680
 1058BOLB   GL425384  16.430  28.890  10.970
 1058BOLB   C1C25385  16.080  28.510  10.920
 1058BOLB   C2C25386  15.760  28.210  10.850
 1058BOLB   C3C25387  15.740  27.790  10.740
 1058BOLB   C4C25388  15.810  27.480  10.900
 1058BOLB   C1D25389  16.630  28.550  10.950
 1058BOLB   C2D25390  16.600  28.090  10.960
 1058BOLB   C3D25391  16.600  27.710  11.060
 1058BOLB   C4D25392  16.440  27.390  11.370
 1059BOLB   NC125393  15.650  15.780  28.170
 1059BOLB   PO125394  15.550  16.100  27.840
 1059BOLB   GL125395  15.360  16.200  27.560
 1059BOLB   GL225396  14.920  16.080  27.550
 1059BOLB   C1A25397  15.250  15.970  27.240
 1059BOLB   C2A25398  14.970  15.720  27.030
 1059BOLB   C3A25399  14.610  15.420  26.780
 1059BOLB   C4A25400  14.160  15.270  26.870
 1059BOLB   C1B25401  14.600  16.100  27.270
 1059BOLB   C2B25402  14.290  15.760  27.090
 1059BOLB   C3B25403  14.110  15.810  26.760
 1059BOLB   C4B25404  14.210  16.020  26.380
 1059BOLB   NC225405  12.130  14.440  28.020
 1059BOLB   PO225406  12.240  14.080  27.840
 1059BOLB   GL325407  12.470  14.220  27.510
 1059BOLB   GL425408  12.500  14.000  27.200
 1059BOLB   C1C25409  12.630  14.640  27.260
 1059BOLB   C2C25410  12.880  14.840  27.000
 1059BOLB   C3C25411  13.280  15.130  26.710
 1059BOLB   C4C25412  13.670  15.290  26.720
 1059BOLB   C1D25413  12.690  13.900  26.850
 1059BOLB   C2D25414  12.910  13.700  26.580
 1059BOLB   C3D25415  13.330  13.440  26.740
 1059BOLB   C4D25416  13.520  13.230  27.140
 1060BOLB   NC125417  23.180  12.690  11.100
 1060BOLB   PO125418  23.400  13.010  11.220
 1060BOLB   GL125419  23.660  12.980  10.960
 1060BOLB   GL225420  23.660  12.710  10.790
 1060BOLB   C1A25421  24.130  13.060  10.810
 1060BOLB   C2A25422  24.420  12.830  10.570
 1060BOLB   C3A25423  24.610  12.590  10.260
 1060BOLB   C4A25424  24.830  12.200  10.040
 1060BOLB   C1B25425  24.120  12.460  10.570
 1060BOLB   C2B25426  24.250  12.240  10.240
 1060BOLB   C3B25427  24.210  11.960   9.900
 1060BOLB   C4B25428  24.050  11.690   9.530
 1060BOLB   NC225429  26.150  10.960   9.020
 1060BOLB   PO225430  26.610  11.040   9.060
 1060BOLB   GL325431  26.330  11.390   8.740
 1060BOLB   GL425432  26.350  11.690   8.900
 1060BOLB   C1C25433  25.860  11.640   8.850
 1060BOLB   C2C25434  25.460  11.710   9.090
 1060BOLB   C3C25435  25.260  12.040   9.320
 1060BOLB   C4C25436  25.010  12.130   9.790
 1060BOLB   C1D25437  26.100  12.080   8.840
 1060BOLB   C2D25438  25.600  12.160   8.950
 1060BOLB   C3D25439  25.290  12.420   8.790
 1060BOLB   C4D25440  24.910  12.380   8.550
 1061BOLB   NC125441  12.740  12.940  27.990
 1061BOLB   PO125442  12.640  13.290  27.680
 1061BOLB   GL125443  12.600  13.310  27.350
 1061BOLB   GL225444  12.840  13.460  27.050
 1061BOLB   C1A25445  12.550  13.070  26.910
 1061BOLB   C2A25446  12.330  13.080  26.600
 1061BOLB   C3A25447  12.030  13.250  26.270
 1061BOLB   C4A25448  11.850  13.400  26.000
 1061BOLB   C1B25449  13.150  13.770  27.030
 1061BOLB   C2B25450  13.370  13.980  26.730
 1061BOLB   C3B25451  13.180  14.110  26.400
 1061BOLB   C4B25452  12.910  14.090  26.100
 1061BOLB   NC225453  10.200  14.060  27.200
 1061BOLB   PO225454  10.180  14.220  26.880
 1061BOLB   GL325455  10.570  14.290  26.590
 1061BOLB   GL425456  10.550  14.310  26.200
 1061BOLB   C1C25457  11.070  14.370  26.400
 1061BOLB   C2C25458  11.460  14.440  26.220
 1061BOLB   C3C25459  11.750  14.110  26.020
 1061BOLB   C4C25460  11.760  13.790  25.760
 1061BOLB   C1D25461  10.190  14.560  25.880
 1061BOLB   C2D25462   9.820  14.770  25.680
 1061BOLB   C3D25463   9.560  15.080  25.600
 1061BOLB   C4D25464   9.150  15.130  25.300
 1062BOLB   NC125465   7.650  11.990  24.790
 1062BOLB   PO125466   7.920  12.440  25.030
 1062BOLB   GL125467   8.040  12.730  24.800
 1062BOLB   GL225468   8.210  12.890  25.150
 1062BOLB   C1A25469   8.220  12.800  24.380
 1062BOLB   C2A25470   8.380  12.690  23.930
 1062BOLB   C3A25471   8.530  12.900  23.590
 1062BOLB   C4A25472   8.810  12.790  23.300
 1062BOLB   C1B25473   8.440  13.030  24.830
 1062BOLB   C2B25474   8.710  12.960  24.350
 1062BOLB   C3B25475   8.920  13.030  23.960
 1062BOLB   C4B25476   9.180  12.910  23.630
 1062BOLB   NC225477   7.900  11.290  24.600
 1062BOLB   PO225478   7.810  10.920  24.210
 1062BOLB   GL325479   7.920  11.080  23.890
 1062BOLB   GL425480   8.050  10.880  23.520
 1062BOLB   C1C25481   8.170  11.470  23.740
 1062BOLB   C2C25482   8.180  11.770  23.430
 1062BOLB   C3C25483   8.560  12.000  23.280
 1062BOLB   C4C25484   8.910  12.290  23.240
 1062BOLB   C1D25485   8.450  10.940  23.690
 1062BOLB   C2D25486   8.800  11.050  23.430
 1062BOLB   C3D25487   9.220  10.980  23.250
 1062BOLB   C4D25488   9.470  10.770  22.980
 1063BOLB   NC125489  18.890  23.910  10.600
 1063BOLB   PO125490  18.680  24.250  10.360
 1063BOLB   GL125491  18.980  24.530  10.110
 1063BOLB   GL225492  18.710  24.670  10.100
 1063BOLB   C1A25493  19.200  24.840   9.780
 1063BOLB   C2A25494  19.470  25.020   9.570
 1063BOLB   C3A25495  19.720  25.270   9.530
 1063BOLB   C4A25496  19.850  25.400   9.080
 1063BOLB   C1B25497  18.800  25.070   9.970
 1063BOLB   C2B25498  18.880  25.470   9.770
 1063BOLB   C3B25499  18.860  25.700   9.380
 1063BOLB   C4B25500  18.970  25.910   9.070
 1063BOLB   NC225501  20.600  27.930   8.080
 1063BOLB   PO225502  20.580  27.540   7.930
 1063BOLB   GL325503  20.510  27.380   8.250
 1063BOLB   GL425504  20.170  27.340   8.360
 1063BOLB   C1C25505  20.460  26.910   8.380
 1063BOLB   C2C25506  20.190  26.510   8.480
 1063BOLB   C3C25507  19.890  26.150   8.510
 1063BOLB   C4C25508  19.850  25.800   8.800
 1063BOLB   C1D25509  19.940  26.990   8.410
 1063BOLB   C2D25510  19.700  26.630   8.430
 1063BOLB   C3D25511  19.340  26.560   8.490
 1063BOLB   C4D25512  18.970  26.310   8.760
 1064BOLB   NC125513   1.360  16.060  16.020
 1064BOLB   PO125514   1.250  16.450  16.250
 1064BOLB   GL125515   1.570  16.550  16.410
 1064BOLB   GL225516   1.570  16.860  16.380
 1064BOLB   C1A25517   1.990  16.590  16.460
 1064BOLB   C2A25518   2.410  16.460  16.420
 1064BOLB   C3A25519   2.620  16.090  16.400
 1064BOLB   C4A25520   2.900  15.650  16.500
 1064BOLB   C1B25521   1.830  16.920  16.750
 1064BOLB   C2B25522   2.320  16.820  16.820
 1064BOLB   C3B25523   2.710  16.880  17.030
 1064BOLB   C4B25524   2.910  16.530  17.210
 1064BOLB   NC225525   1.590  14.400  18.320
 1064BOLB   PO225526   1.640  14.460  17.870
 1064BOLB   GL325527   2.210  14.470  17.820
 1064BOLB   GL425528   2.460  14.690  17.960
 1064BOLB   C1C25529   2.380  14.760  17.460
 1064BOLB   C2C25530   2.730  14.900  17.360
 1064BOLB   C3C25531   2.930  15.000  17.000
 1064BOLB   C4C25532   3.130  15.280  16.820
 1064BOLB   C1D25533   2.820  14.780  17.820
 1064BOLB   C2D25534   3.010  15.210  17.780
 1064BOLB   C3D25535   3.030  15.620  17.810
 1064BOLB   C4D25536   2.700  15.840  17.910
 1065BOLB   NC125537  20.230  28.030  17.390
 1065BOLB   PO125538  20.570  27.860  17.130
 1065BOLB   GL125539  20.670  27.470  17.140
 1065BOLB   GL225540  21.010  27.380  17.290
 1065BOLB   C1A25541  20.580  27.340  16.710
 1065BOLB   C2A25542  20.270  26.990  16.480
 1065BOLB   C3A25543  20.110  26.620  16.150
 1065BOLB   C4A25544  20.030  26.530  15.670
 1065BOLB   C1B25545  20.820  27.030  17.300
 1065BOLB   C2B25546  20.290  27.000  17.190
 1065BOLB   C3B25547  20.130  26.590  17.060
 1065BOLB   C4B25548  19.970  26.220  17.060
 1065BOLB   NC225549  19.340  28.700  15.550
 1065BOLB   PO225550  18.890  28.560  15.730
 1065BOLB   GL325551  18.980  28.160  15.550
 1065BOLB   GL425552  18.610  27.990  15.300
 1065BOLB   C1C25553  19.400  28.000  15.500
 1065BOLB   C2C25554  19.630  27.690  15.430
 1065BOLB   C3C25555  19.590  27.200  15.420
 1065BOLB   C4C25556  19.770  26.780  15.380
 1065BOLB   C1D25557  18.280  27.680  15.240
 1065BOLB   C2D25558  17.930  27.510  15.150
 1065BOLB   C3D25559  17.740  27.090  15.100
 1065BOLB   C4D25560  17.340  26.760  15.000
 1066BOLB   NC125561  10.790  17.580   6.970
 1066BOLB   PO125562  10.380  17.450   7.260
 1066BOLB   GL125563   9.960  17.390   7.030
 1066BOLB   GL225564   9.660  17.460   7.230
 1066BOLB   C1A25565   9.560  17.370   6.720
 1066BOLB   C2A25566   9.200  17.460   6.480
 1066BOLB   C3A25567   8.770  17.280   6.310
 1066BOLB   C4A25568   8.570  17.240   5.940
 1066BOLB   C1B25569   9.290  17.460   7.170
 1066BOLB   C2B25570   9.030  17.730   7.030
 1066BOLB   C3B25571   8.850  17.910   6.730
 1066BOLB   C4B25572   8.740  18.290   6.500
 1066BOLB   NC225573   7.080  15.930   4.420
 1066BOLB   PO225574   6.930  16.260   4.670
 1066BOLB   GL325575   7.270  16.300   4.630
 1066BOLB   GL425576   7.490  16.020   4.790
 1066BOLB   C1C25577   7.690  16.460   4.760
 1066BOLB   C2C25578   8.010  16.850   4.910
 1066BOLB   C3C25579   8.220  16.990   5.090
 1066BOLB   C4C25580   8.320  17.020   5.510
 1066BOLB   C1D25581   7.970  16.000   4.790
 1066BOLB   C2D25582   8.410  16.010   4.970
 1066BOLB   C3D25583   8.930  16.010   5.100
 1066BOLB   C4D25584   9.140  15.970   5.540
 1067BOLB   NC125585   5.200  14.620  22.980
 1067BOLB   PO125586   5.230  14.360  23.260
 1067BOLB   GL125587   5.670  14.340  23.060
 1067BOLB   GL225588   5.730  14.540  22.950
 1067BOLB   C1A25589   5.830  14.070  22.700
 1067BOLB   C2A25590   6.020  13.640  22.510
 1067BOLB   C3A25591   6.230  13.340  22.290
 1067BOLB   C4A25592   6.320  13.110  21.850
 1067BOLB   C1B25593   5.950  14.500  22.600
 1067BOLB   C2B25594   6.120  14.150  22.230
 1067BOLB   C3B25595   6.180  14.200  21.790
 1067BOLB   C4B25596   6.280  14.050  21.460
 1067BOLB   NC225597   5.460  10.680  21.870
 1067BOLB   PO225598   5.920  10.660  21.800
 1067BOLB   GL325599   6.070  11.060  21.730
 1067BOLB   GL425600   6.240  10.970  21.430
 1067BOLB   C1C25601   6.400  11.530  21.710
 1067BOLB   C2C25602   6.420  11.960  21.640
 1067BOLB   C3C25603   6.570  12.330  21.580
 1067BOLB   C4C25604   6.520  12.730  21.790
 1067BOLB   C1D25605   6.110  11.100  21.120
 1067BOLB   C2D25606   6.370  11.300  20.720
 1067BOLB   C3D25607   6.490  11.180  20.360
 1067BOLB   C4D25608   6.650  11.220  19.910
 1068BOLB   NC125609  17.220  14.860   4.340
 1068BOLB   PO125610  16.960  14.560   4.520
 1068BOLB   GL125611  16.910  14.400   4.150
 1068BOLB   GL225612  17.050  14.600   3.980
 1068BOLB   C1A25613  17.010  14.260   3.660
 1068BOLB   C2A25614  17.350  14.040   3.460
 1068BOLB   C3A25615  17.640  13.760   3.210
 1068BOLB   C4A25616  17.920  13.540   2.980
 1068BOLB   C1B25617  17.480  14.380   3.750
 1068BOLB   C2B25618  17.730  14.320   3.430
 1068BOLB   C3B25619  17.600  14.230   2.980
 1068BOLB   C4B25620  17.450  13.900   2.700
 1068BOLB   NC225621  17.690  11.270   1.270
 1068BOLB   PO225622  17.730  11.700   1.200
 1068BOLB   GL325623  17.740  11.830   1.570
 1068BOLB   GL425624  18.080  11.950   1.740
 1068BOLB   C1C25625  17.680  12.180   1.900
 1068BOLB   C2C25626  17.750  12.550   2.220
 1068BOLB   C3C25627  17.840  12.940   2.330
 1068BOLB   C4C25628  17.840  13.170   2.690
 1068BOLB   C1D25629  18.180  12.130   2.070
 1068BOLB   C2D25630  18.310  12.150   2.570
 1068BOLB   C3D25631  18.400  12.480   2.860
 1068BOLB   C4D25632  18.560  12.630   3.160
 1069BOLB   NC125633   9.180   6.010  13.380
 1069BOLB   PO125634   8.840   5.910  13.720
 1069BOLB   GL125635   8.950   6.410  13.750
 1069BOLB   GL225636   9.390   6.430  13.670
 1069BOLB   C1A25637   8.910   6.890  13.870
 1069BOLB   C2A25638   8.970   7.320  14.000
 1069BOLB   C3A25639   9.270   7.550  13.830
 1069BOLB   C4A25640   9.660   7.380  13.880
 1069BOLB   C1B25641   9.150   6.750  13.490
 1069BOLB   C2B25642   9.230   7.230  13.470
 1069BOLB   C3B25643   9.430   7.400  13.060
 1069BOLB   C4B25644   9.530   7.700  12.680
 1069BOLB   NC225645   9.790   5.200  14.360
 1069BOLB   PO225646  10.190   5.300  14.670
 1069BOLB   GL325647  10.280   5.760  14.650
 1069BOLB   GL425648  10.490   5.990  14.800
 1069BOLB   C1C25649  10.270   5.990  14.320
 1069BOLB   C2C25650  10.370   6.460  14.280
 1069BOLB   C3C25651  10.140   6.790  14.410
 1069BOLB   C4C25652   9.940   7.130  14.240
 1069BOLB   C1D25653  10.600   6.210  15.140
 1069BOLB   C2D25654  10.670   6.510  15.240
 1069BOLB   C3D25655  10.650   6.830  15.570
 1069BOLB   C4D25656  10.660   6.700  15.950
 1070BOLB   NC125657  13.750   9.660  26.660
 1070BOLB   PO125658  14.220   9.560  26.550
 1070BOLB   GL125659  14.590   9.500  26.430
 1070BOLB   GL225660  14.880   9.500  26.580
 1070BOLB   C1A25661  14.820   9.790  26.090
 1070BOLB   C2A25662  14.670  10.160  25.850
 1070BOLB   C3A25663  14.510  10.330  25.590
 1070BOLB   C4A25664  14.310  10.430  25.290
 1070BOLB   C1B25665  14.880   9.970  26.560
 1070BOLB   C2B25666  15.050  10.280  26.170
 1070BOLB   C3B25667  15.050  10.590  25.940
 1070BOLB   C4B25668  14.770  10.780  25.660
 1070BOLB   NC225669  12.780   9.450  25.900
 1070BOLB   PO225670  13.050   9.360  26.210
 1070BOLB   GL325671  13.290   9.680  26.010
 1070BOLB   GL425672  13.370   9.930  26.140
 1070BOLB   C1C25673  13.230   9.900  25.610
 1070BOLB   C2C25674  13.130  10.100  25.200
 1070BOLB   C3C25675  13.440  10.180  24.870
 1070BOLB   C4C25676  13.850  10.180  24.970
 1070BOLB   C1D25677  13.710  10.190  25.830
 1070BOLB   C2D25678  13.910  10.520  25.620
 1070BOLB   C3D25679  13.920  10.790  25.190
 1070BOLB   C4D25680  13.690  11.140  24.950
 1071BOLB   NC125681  23.680  22.450  21.440
 1071BOLB   PO125682  23.330  22.710  21.260
 1071BOLB   GL125683  23.060  22.560  20.850
 1071BOLB   GL225684  23.130  22.520  20.580
 1071BOLB   C1A25685  22.570  22.610  20.770
 1071BOLB   C2A25686  22.170  22.540  20.730
 1071BOLB   C3A25687  22.080  22.230  20.980
 1071BOLB   C4A25688  22.020  21.790  21.020
 1071BOLB   C1B25689  22.790  22.320  20.500
 1071BOLB   C2B25690  22.420  22.390  20.320
 1071BOLB   C3B25691  22.280  21.990  20.000
 1071BOLB   C4B25692  21.990  21.740  19.720
 1071BOLB   NC225693  24.120  22.440  20.150
 1071BOLB   PO225694  23.860  22.260  20.550
 1071BOLB   GL325695  23.490  22.320  20.250
 1071BOLB   GL425696  23.650  22.410  20.040
 1071BOLB   C1C25697  23.190  22.020  20.230
 1071BOLB   C2C25698  22.840  21.790  20.430
 1071BOLB   C3C25699  22.530  21.460  20.500
 1071BOLB   C4C25700  22.160  21.420  20.800
 1071BOLB   C1D25701  23.310  22.260  19.760
 1071BOLB   C2D25702  23.100  22.250  19.440
 1071BOLB   C3D25703  22.780  21.970  19.120
 1071BOLB   C4D25704  22.440  21.940  18.880
 1072BOLB   NC125705   8.920  16.720  26.870
 1072BOLB   PO125706   9.300  16.670  26.700
 1072BOLB   GL125707   9.290  16.350  26.410
 1072BOLB   GL225708   8.960  16.340  26.300
 1072BOLB   C1A25709   9.640  16.230  26.270
 1072BOLB   C2A25710  10.000  16.150  26.130
 1072BOLB   C3A25711  10.150  16.280  25.790
 1072BOLB   C4A25712  10.120  16.600  25.390
 1072BOLB   C1B25713   8.660  16.520  25.950
 1072BOLB   C2B25714   8.400  16.640  25.600
 1072BOLB   C3B25715   8.560  16.770  25.180
 1072BOLB   C4B25716   8.780  16.930  24.910
 1072BOLB   NC225717   8.060  17.160  26.970
 1072BOLB   PO225718   8.330  17.150  26.520
 1072BOLB   GL325719   8.550  17.210  26.040
 1072BOLB   GL425720   8.160  17.360  25.940
 1072BOLB   C1C25721   8.810  16.990  25.760
 1072BOLB   C2C25722   9.080  16.970  25.400
 1072BOLB   C3C25723   9.510  17.010  25.170
 1072BOLB   C4C25724   9.930  16.940  25.280
 1072BOLB   C1D25725   8.150  17.820  25.870
 1072BOLB   C2D25726   8.380  18.160  25.650
 1072BOLB   C3D25727   8.800  18.060  25.500
 1072BOLB   C4D25728   9.240  17.910  25.460
 1073BOLB   NC125729   8.200  16.090   9.350
 1073BOLB   PO125730   8.290  15.640   9.470
 1073BOLB   GL125731   7.870  15.730   9.310
 1073BOLB   GL225732   7.600  15.610   9.430
 1073BOLB   C1A25733   7.590  15.700   8.930
 1073BOLB   C2A25734   7.330  15.440   8.730
 1073BOLB   C3A25735   6.840  15.370   8.800
 1073BOLB   C4A25736   6.450  15.570   8.860
 1073BOLB   C1B25737   7.180  15.570   9.190
 1073BOLB   C2B25738   6.870  15.420   9.340
 1073BOLB   C3B25739   6.640  15.340   9.630
 1073BOLB   C4B25740   6.720  15.030   9.870
 1073BOLB   NC225741   3.800  15.250   8.820
 1073BOLB   PO225742   4.240  15.410   8.830
 1073BOLB   GL325743   4.580  15.380   9.070
 1073BOLB   GL425744   4.580  15.160   9.290
 1073BOLB   C1C25745   4.990  15.570   9.110
 1073BOLB   C2C25746   5.340  15.730   9.250
 1073BOLB   C3C25747   5.690  15.770   9.290
 1073BOLB   C4C25748   6.050  15.480   9.180
 1073BOLB   C1D25749   4.870  15.370   9.560
 1073BOLB   C2D25750   5.300  15.340   9.520
 1073BOLB   C3D25751   5.600  15.380   9.660
 1073BOLB   C4D25752   6.130  15.490   9.690
 1074BOLB   NC125753   2.100  13.700  12.010
 1074BOLB   PO125754   2.420  14.020  11.710
 1074BOLB   GL125755   2.770  14.040  11.990
 1074BOLB   GL225756   2.550  13.770  12.350
 1074BOLB   C1A25757   3.100  14.150  12.210
 1074BOLB   C2A25758   3.540  14.360  12.420
 1074BOLB   C3A25759   3.960  14.650  12.320
 1074BOLB   C4A25760   4.160  14.800  11.980
 1074BOLB   C1B25761   2.910  13.820  12.540
 1074BOLB   C2B25762   3.330  13.700  12.380
 1074BOLB   C3B25763   3.510  13.660  11.900
 1074BOLB   C4B25764   3.900  13.610  11.740
 1074BOLB   NC225765   3.010  15.800  10.630
 1074BOLB   PO225766   3.200  16.220  10.640
 1074BOLB   GL325767   3.410  15.930  10.900
 1074BOLB   GL425768   3.440  16.220  11.140
 1074BOLB   C1C25769   3.910  15.920  11.050
 1074BOLB   C2C25770   4.230  15.690  11.120
 1074BOLB   C3C25771   4.510  15.440  11.390
 1074BOLB   C4C25772   4.360  14.990  11.600
 1074BOLB   C1D25773   3.680  15.940  11.510
 1074BOLB   C2D25774   4.110  16.010  11.490
 1074BOLB   C3D25775   4.370  16.370  11.260
 1074BOLB   C4D25776   4.260  16.790  11.530
 1075BOLB   NC125777  11.180  23.660  13.570
 1075BOLB   PO125778  11.070  23.170  13.660
 1075BOLB   GL125779  10.750  23.510  13.840
 1075BOLB   GL225780  10.460  23.440  14.000
 1075BOLB   C1A25781  10.560  24.060  13.680
 1075BOLB   C2A25782  10.260  24.330  13.440
 1075BOLB   C3A25783  10.080  24.800  13.400
 1075BOLB   C4A25784   9.700  24.880  13.590
 1075BOLB   C1B25785  10.190  23.750  13.780
 1075BOLB   C2B25786  10.070  24.240  13.950
 1075BOLB   C3B25787  10.020  24.640  13.850
 1075BOLB   C4B25788  10.110  25.030  13.890
 1075BOLB   NC225789   7.930  26.420  11.920
 1075BOLB   PO225790   7.970  26.020  12.010
 1075BOLB   GL325791   8.170  25.690  12.340
 1075BOLB   GL425792   8.230  25.420  12.050
 1075BOLB   C1C25793   8.380  25.530  12.690
 1075BOLB   C2C25794   8.650  25.370  12.990
 1075BOLB   C3C25795   9.100  25.310  13.150
 1075BOLB   C4C25796   9.520  25.160  13.400
 1075BOLB   C1D25797   8.660  25.420  12.260
 1075BOLB   C2D25798   8.980  25.170  12.250
 1075BOLB   C3D25799   8.910  24.730  12.300
 1075BOLB   C4D25800   8.940  24.250  12.160
 1076BOLB   NC125801   8.610  17.040   9.470
 1076BOLB   PO125802   8.800  17.250   9.100
 1076BOLB   GL125803   8.430  17.330   9.020
 1076BOLB   GL225804   8.140  17.120   9.230
 1076BOLB   C1A25805   8.050  17.300   8.750
 1076BOLB   C2A25806   7.760  17.140   8.490
 1076BOLB   C3A25807   7.290  16.970   8.340
 1076BOLB   C4A25808   6.990  16.870   8.130
 1076BOLB   C1B25809   7.720  17.100   9.050
 1076BOLB   C2B25810   7.380  16.990   8.820
 1076BOLB   C3B25811   6.900  17.010   8.830
 1076BOLB   C4B25812   6.770  17.370   8.980
 1076BOLB   NC225813   4.720  17.010   6.710
 1076BOLB   PO225814   4.960  17.420   6.750
 1076BOLB   GL325815   5.320  17.230   6.830
 1076BOLB   GL425816   5.570  17.490   6.640
 1076BOLB   C1C25817   5.590  17.110   7.210
 1076BOLB   C2C25818   5.950  16.820   7.480
 1076BOLB   C3C25819   6.390  16.680   7.640
 1076BOLB   C4C25820   6.630  16.690   7.990
 1076BOLB   C1D25821   6.020  17.440   6.720
 1076BOLB   C2D25822   6.410  17.340   6.880
 1076BOLB   C3D25823   6.680  17.490   7.170
 1076BOLB   C4D25824   6.720  17.520   7.600
 1077BOLB   NC125825  18.820  21.070   6.380
 1077BOLB   PO125826  18.420  21.280   6.580
 1077BOLB   GL125827  18.620  21.440   6.140
 1077BOLB   GL225828  18.450  21.720   6.190
 1077BOLB   C1A25829  18.740  21.850   5.760
 1077BOLB   C2A25830  18.700  22.270   5.640
 1077BOLB   C3A25831  18.840  22.670   5.550
 1077BOLB   C4A25832  18.930  23.070   5.250
 1077BOLB   C1B25833  18.370  22.110   6.040
 1077BOLB   C2B25834  18.140  22.280   5.750
 1077BOLB   C3B25835  18.040  22.480   5.310
 1077BOLB   C4B25836  17.850  22.620   4.990
 1077BOLB   NC225837  18.670  24.950   3.760
 1077BOLB   PO225838  18.560  25.050   4.200
 1077BOLB   GL325839  18.410  24.740   4.440
 1077BOLB   GL425840  18.520  24.810   4.740
 1077BOLB   C1C25841  18.440  24.280   4.620
 1077BOLB   C2C25842  18.400  23.900   4.580
 1077BOLB   C3C25843  18.560  23.600   4.680
 1077BOLB   C4C25844  18.910  23.380   4.920
 1077BOLB   C1D25845  18.800  24.540   4.930
 1077BOLB   C2D25846  18.680  24.130   5.040
 1077BOLB   C3D25847  18.510  23.860   5.220
 1077BOLB   C4D25848  18.390  24.190   5.530
 1078BOLB   NC125849  27.860  20.930   9.370
 1078BOLB   PO125850  27.660  20.710   9.670
 1078BOLB   GL125851  27.430  20.630   9.980
 1078BOLB   GL225852  27.400  20.960  10.110
 1078BOLB   C1A25853  27.080  20.570  10.180
 1078BOLB   C2A25854  26.640  20.340  10.060
 1078BOLB   C3A25855  26.470  20.640   9.830
 1078BOLB   C4A25856  26.490  20.570   9.380
 1078BOLB   C1B25857  27.200  21.170  10.400
 1078BOLB   C2B25858  26.780  21.340  10.490
 1078BOLB   C3B25859  26.320  21.360  10.400
 1078BOLB   C4B25860  25.850  21.350  10.260
 1078BOLB   NC225861  28.030  19.790   9.180
 1078BOLB   PO225862  27.740  19.610   8.820
 1078BOLB   GL325863  27.420  19.340   9.050
 1078BOLB   GL425864  27.530  19.190   9.430
 1078BOLB   C1C25865  27.050  19.160   9.090
 1078BOLB   C2C25866  26.610  19.500   9.130
 1078BOLB   C3C25867  26.630  19.930   9.090
 1078BOLB   C4C25868  26.700  20.310   9.110
 1078BOLB   C1D25869  27.480  18.680   9.550
 1078BOLB   C2D25870  27.250  18.330   9.790
 1078BOLB   C3D25871  26.910  18.200  10.080
 1078BOLB   C4D25872  26.530  18.320  10.230
 1079BOLB   NC125873   3.430  11.310  11.280
 1079BOLB   PO125874   3.110  11.200  11.570
 1079BOLB   GL125875   3.410  11.170  11.880
 1079BOLB   GL225876   3.130  11.130  12.210
 1079BOLB   C1A25877   3.700  10.890  12.010
 1079BOLB   C2A25878   4.000  10.800  12.380
 1079BOLB   C3A25879   4.260  10.620  12.600
 1079BOLB   C4A25880   4.570  10.680  13.020
 1079BOLB   C1B25881   3.500  11.100  12.410
 1079BOLB   C2B25882   3.980  11.320  12.510
 1079BOLB   C3B25883   4.360  11.400  12.670
 1079BOLB   C4B25884   4.710  11.670  12.540
 1079BOLB   NC225885   2.730   9.840  14.290
 1079BOLB   PO225886   2.500  10.100  14.140
 1079BOLB   GL325887   3.000  10.250  14.110
 1079BOLB   GL425888   3.290  10.300  14.340
 1079BOLB   C1C25889   3.340  10.320  13.860
 1079BOLB   C2C25890   3.710  10.280  13.630
 1079BOLB   C3C25891   4.040  10.630  13.670
 1079BOLB   C4C25892   4.480  10.740  13.400
 1079BOLB   C1D25893   3.680  10.510  14.170
 1079BOLB   C2D25894   4.010  10.750  14.120
 1079BOLB   C3D25895   4.070  11.170  14.190
 1079BOLB   C4D25896   3.740  11.450  14.130
 1080BOLB   NC125897  26.320  21.980  16.430
 1080BOLB   PO125898  26.630  21.720  16.260
 1080BOLB   GL125899  26.280  21.520  16.150
 1080BOLB   GL225900  26.010  21.730  16.150
 1080BOLB   C1A25901  26.030  21.170  15.910
 1080BOLB   C2A25902  25.600  21.190  16.040
 1080BOLB   C3A25903  25.210  21.250  15.910
 1080BOLB   C4A25904  24.790  21.220  15.840
 1080BOLB   C1B25905  25.630  21.800  16.460
 1080BOLB   C2B25906  25.230  21.800  16.530
 1080BOLB   C3B25907  24.920  22.050  16.620
 1080BOLB   C4B25908  24.550  22.470  16.720
 1080BOLB   NC225909  22.430  21.040  14.710
 1080BOLB   PO225910  22.820  20.930  14.730
 1080BOLB   GL325911  23.060  21.100  15.110
 1080BOLB   GL425912  23.300  21.140  15.110
 1080BOLB   C1C25913  23.240  20.890  15.490
 1080BOLB   C2C25914  23.610  20.950  15.740
 1080BOLB   C3C25915  24.060  20.990  15.720
 1080BOLB   C4C25916  24.470  20.990  15.840
 1080BOLB   C1D25917  23.730  21.170  15.310
 1080BOLB   C2D25918  24.030  21.430  15.490
 1080BOLB   C3D25919  24.260  21.460  15.860
 1080BOLB   C4D25920  23.940  21.230  16.140
 1081BOLB   NC125921  13.050  24.730  13.750
 1081BOLB   PO125922  13.130  24.450  13.360
 1081BOLB   GL125923  12.910  24.890  13.290
 1081BOLB   GL225924  12.890  24.890  13.000
 1081BOLB   C1A25925  12.760  25.280  13.360
 1081BOLB   C2A25926  12.950  25.640  13.260
 1081BOLB   C3A25927  12.810  26.060  13.100
 1081BOLB   C4A25928  12.630  26.250  12.830
 1081BOLB   C1B25929  12.400  25.060  12.980
 1081BOLB   C2B25930  12.060  25.310  13.080
 1081BOLB   C3B25931  11.950  25.810  13.080
 1081BOLB   C4B25932  12.140  26.000  12.970
 1081BOLB   NC225933  10.630  27.730  11.580
 1081BOLB   PO225934  11.010  27.890  11.340
 1081BOLB   GL325935  11.280  27.500  11.580
 1081BOLB   GL425936  11.080  27.290  11.780
 1081BOLB   C1C25937  11.630  27.210  11.760
 1081BOLB   C2C25938  11.910  27.100  12.040
 1081BOLB   C3C25939  12.170  26.710  12.100
 1081BOLB   C4C25940  12.380  26.310  12.420
 1081BOLB   C1D25941  11.280  26.940  11.990
 1081BOLB   C2D25942  11.630  26.660  11.960
 1081BOLB   C3D25943  11.890  26.340  12.030
 1081BOLB   C4D25944  12.260  26.070  11.970
 1082BOLB   NC125945   1.890  20.210  19.450
 1082BOLB   PO125946   2.310  20.310  19.510
 1082BOLB   GL125947   2.560  20.280  19.090
 1082BOLB   GL225948   2.770  20.510  19.280
 1082BOLB   C1A25949   2.650  20.270  18.720
 1082BOLB   C2A25950   2.740  20.280  18.340
 1082BOLB   C3A25951   3.020  20.250  18.030
 1082BOLB   C4A25952   3.180  20.290  17.590
 1082BOLB   C1B25953   3.070  20.370  19.080
 1082BOLB   C2B25954   3.420  19.980  19.210
 1082BOLB   C3B25955   3.750  19.970  19.400
 1082BOLB   C4B25956   4.150  19.880  19.610
 1082BOLB   NC225957   1.280  20.970  16.290
 1082BOLB   PO225958   1.240  20.680  16.570
 1082BOLB   GL325959   1.700  20.560  16.690
 1082BOLB   GL425960   1.750  20.680  16.320
 1082BOLB   C1C25961   1.950  20.170  16.900
 1082BOLB   C2C25962   2.310  19.990  16.920
 1082BOLB   C3C25963   2.610  19.840  17.170
 1082BOLB   C4C25964   3.010  19.980  17.230
 1082BOLB   C1D25965   2.140  20.830  16.480
 1082BOLB   C2D25966   2.530  21.080  16.490
 1082BOLB   C3D25967   2.800  21.340  16.660
 1082BOLB   C4D25968   2.750  21.740  16.660
 1083BOLB   NC125969  17.270   5.700  16.470
 1083BOLB   PO125970  17.680   5.760  16.490
 1083BOLB   GL125971  17.450   6.160  16.430
 1083BOLB   GL225972  17.480   5.930  16.050
 1083BOLB   C1A25973  17.320   6.520  16.440
 1083BOLB   C2A25974  17.220   6.930  16.170
 1083BOLB   C3A25975  17.410   7.160  15.940
 1083BOLB   C4A25976  17.630   7.470  15.680
 1083BOLB   C1B25977  17.300   6.380  15.890
 1083BOLB   C2B25978  17.340   6.690  15.550
 1083BOLB   C3B25979  17.260   7.190  15.470
 1083BOLB   C4B25980  16.830   7.310  15.450
 1083BOLB   NC225981  17.450   9.530  14.820
 1083BOLB   PO225982  17.600   9.480  14.410
 1083BOLB   GL325983  17.800   9.170  14.700
 1083BOLB   GL425984  17.600   8.950  14.710
 1083BOLB   C1C25985  18.120   8.900  14.910
 1083BOLB   C2C25986  18.200   8.470  14.950
 1083BOLB   C3C25987  17.950   8.090  15.110
 1083BOLB   C4C25988  17.670   7.850  15.400
 1083BOLB   C1D25989  17.610   8.470  14.840
 1083BOLB   C2D25990  17.390   8.140  14.870
 1083BOLB   C3D25991  16.910   8.070  14.840
 1083BOLB   C4D25992  16.600   8.200  14.770
 1084BOLB   NC125993   7.130  12.160  24.170
 1084BOLB   PO125994   7.400  11.930  24.340
 1084BOLB   GL125995   7.720  11.990  24.080
 1084BOLB   GL225996   8.050  11.970  23.930
 1084BOLB   C1A25997   7.730  12.150  23.640
 1084BOLB   C2A25998   7.990  12.270  23.190
 1084BOLB   C3A25999   8.100  11.940  22.870
 1084BOLB   C4A26000   8.270  11.520  22.690
 1084BOLB   C1B26001   8.380  12.250  23.710
 1084BOLB   C2B26002   8.410  12.500  23.340
 1084BOLB   C3B26003   8.410  12.470  22.840
 1084BOLB   C4B26004   8.430  12.090  22.490
 1084BOLB   NC226005   8.370   9.730  24.260
 1084BOLB   PO226006   8.130  10.050  24.080
 1084BOLB   GL326007   8.460  10.070  23.720
 1084BOLB   GL426008   8.720  10.410  23.740
 1084BOLB   C1C26009   8.600  10.160  23.300
 1084BOLB   C2C26010   8.490  10.260  22.890
 1084BOLB   C3C26011   8.320  10.640  22.750
 1084BOLB   C4C26012   8.310  11.110  22.590
 1084BOLB   C1D26013   9.010  10.630  23.550
 1084BOLB   C2D26014   9.000  10.510  23.130
 1084BOLB   C3D26015   8.820  10.600  22.730
 1084BOLB   C4D26016   8.830  10.910  22.380
 1085BOLB   NC126017  10.940  12.470   7.180
 1085BOLB   PO126018  10.930  11.980   7.380
 1085BOLB   GL126019  10.980  11.970   6.950
 1085BOLB   GL226020  10.680  12.100   6.970
 1085BOLB   C1A26021  10.910  11.940   6.520
 1085BOLB   C2A26022  10.560  11.870   6.290
 1085BOLB   C3A26023  10.240  11.770   5.960
 1085BOLB   C4A26024   9.810  11.860   5.820
 1085BOLB   C1B26025  10.380  11.820   7.050
 1085BOLB   C2B26026   9.950  11.750   6.900
 1085BOLB   C3B26027   9.600  11.850   6.680
 1085BOLB   C4B26028   9.500  11.750   6.210
 1085BOLB   NC226029   7.530  10.840   5.050
 1085BOLB   PO226030   7.600  11.240   5.250
 1085BOLB   GL326031   7.820  11.490   5.370
 1085BOLB   GL426032   7.880  11.830   5.110
 1085BOLB   C1C26033   8.220  11.240   5.560
 1085BOLB   C2C26034   8.640  11.460   5.730
 1085BOLB   C3C26035   9.050  11.490   5.620
 1085BOLB   C4C26036   9.390  11.610   5.710
 1085BOLB   C1D26037   7.840  11.970   5.580
 1085BOLB   C2D26038   8.060  12.110   5.750
 1085BOLB   C3D26039   8.330  12.430   5.910
 1085BOLB   C4D26040   8.630  12.590   6.160
 1086BOLB   NC126041  12.740  24.450  14.980
 1086BOLB   PO126042  12.540  24.360  14.600
 1086BOLB   GL126043  12.320  24.710  14.660
 1086BOLB   GL226044  12.410  24.910  14.800
 1086BOLB   C1A26045  12.030  24.870  14.450
 1086BOLB   C2A26046  11.680  25.110  14.680
 1086BOLB   C3A26047  11.500  25.300  14.990
 1086BOLB   C4A26048  11.310  25.590  15.260
 1086BOLB   C1B26049  12.160  25.310  14.810
 1086BOLB   C2B26050  11.860  25.590  14.760
 1086BOLB   C3B26051  11.500  25.880  14.850
 1086BOLB   C4B26052  11.140  26.130  15.000
 1086BOLB   NC226053  10.150  27.650  15.430
 1086BOLB   PO226054  10.450  27.880  15.440
 1086BOLB   GL326055  10.590  27.450  15.600
 1086BOLB   GL426056  10.590  27.270  15.280
 1086BOLB   C1C26057  10.820  27.050  15.670
 1086BOLB   C2C26058  10.850  26.560  15.770
 1086BOLB   C3C26059  10.850  26.070  15.780
 1086BOLB   C4C26060  11.060  25.870  15.530
 1086BOLB   C1D26061  10.700  26.980  15.100
 1086BOLB   C2D26062  10.760  26.570  15.130
 1086BOLB   C3D26063  11.110  26.420  15.360
 1086BOLB   C4D26064  11.490  26.480  15.650
 1087BOLB   NC126065   7.120  23.270  24.430
 1087BOLB   PO126066   6.760  23.190  24.250
 1087BOLB   GL126067   7.060  23.160  23.890
 1087BOLB   GL226068   7.240  23.430  23.880
 1087BOLB   C1A26069   7.550  22.990  23.730
 1087BOLB   C2A26070   7.720  22.960  23.440
 1087BOLB   C3A26071   8.060  22.980  23.190
 1087BOLB   C4A26072   8.430  22.730  23.290
 1087BOLB   C1B26073   7.660  23.450  23.730
 1087BOLB   C2B26074   7.900  23.440  23.350
 1087BOLB   C3B26075   7.810  23.520  22.900
 1087BOLB   C4B26076   7.890  23.830  22.580
 1087BOLB   NC226077   8.700  23.640  26.100
 1087BOLB   PO226078   8.790  23.450  25.740
 1087BOLB   GL326079   8.680  23.240  25.380
 1087BOLB   GL426080   8.920  23.330  25.160
 1087BOLB   C1C26081   8.610  23.200  24.800
 1087BOLB   C2C26082   8.470  23.020  24.330
 1087BOLB   C3C26083   8.670  22.980  23.990
 1087BOLB   C4C26084   8.740  22.870  23.600
 1087BOLB   C1D26085   8.860  22.890  25.070
 1087BOLB   C2D26086   8.650  22.640  24.790
 1087BOLB   C3D26087   8.550  22.480  24.320
 1087BOLB   C4D26088   8.190  22.520  24.160
 1088BOLB   NC126089  19.120  21.100   0.870
 1088BOLB   PO126090  19.010  20.710   1.110
 1088BOLB   GL126091  18.950  20.460   1.500
 1088BOLB   GL226092  18.700  20.570   1.730
 1088BOLB   C1A26093  19.210  20.350   1.920
 1088BOLB   C2A26094  19.250  20.080   2.230
 1088BOLB   C3A26095  19.330  19.990   2.630
 1088BOLB   C4A26096  19.710  20.080   2.970
 1088BOLB   C1B26097  18.610  20.700   2.080
 1088BOLB   C2B26098  18.810  20.670   2.430
 1088BOLB   C3B26099  18.740  20.600   2.870
 1088BOLB   C4B26100  18.920  20.550   3.290
 1088BOLB   NC226101  20.920  21.260   1.800
 1088BOLB   PO226102  20.560  21.050   1.800
 1088BOLB   GL326103  20.400  20.880   2.130
 1088BOLB   GL426104  20.070  20.750   2.060
 1088BOLB   C1C26105  20.250  20.910   2.570
 1088BOLB   C2C26106  20.390  20.830   2.970
 1088BOLB   C3C26107  20.210  20.510   3.330
 1088BOLB   C4C26108  20.010  20.110   3.290
 1088BOLB   C1D26109  19.820  20.720   2.340
 1088BOLB   C2D26110  19.700  20.730   2.740
 1088BOLB   C3D26111  20.030  20.490   2.820
 1088BOLB   C4D26112  20.260  19.990   2.820
 1089BOLB   NC126113  15.000  25.150  14.100
 1089BOLB   PO126114  14.670  25.060  14.460
 1089BOLB   GL126115  14.670  25.510  14.370
 1089BOLB   GL226116  14.850  25.640  14.110
 1089BOLB   C1A26117  14.410  25.920  14.250
 1089BOLB   C2A26118  14.090  26.010  14.230
 1089BOLB   C3A26119  13.960  26.430  14.270
 1089BOLB   C4A26120  13.950  26.760  14.670
 1089BOLB   C1B26121  14.830  26.090  14.110
 1089BOLB   C2B26122  14.930  26.500  14.230
 1089BOLB   C3B26123  14.940  26.890  14.230
 1089BOLB   C4B26124  14.780  27.300  14.320
 1089BOLB   NC226125  12.390  29.060  14.260
 1089BOLB   PO226126  12.830  29.010  14.400
 1089BOLB   GL326127  13.210  28.580  14.450
 1089BOLB   GL426128  13.090  28.400  14.220
 1089BOLB   C1C26129  13.630  28.360  14.490
 1089BOLB   C2C26130  13.780  28.000  14.580
 1089BOLB   C3C26131  13.720  27.670  14.470
 1089BOLB   C4C26132  13.720  27.230  14.730
 1089BOLB   C1D26133  13.200  28.010  13.980
 1089BOLB   C2D26134  13.480  27.600  13.990
 1089BOLB   C3D26135  13.520  27.190  14.110
 1089BOLB   C4D26136  13.660  26.830  14.130
 1090BOLB   NC126137   2.590  15.830  20.100
 1090BOLB   PO126138   2.790  15.840  20.560
 1090BOLB   GL126139   2.910  16.130  20.380
 1090BOLB   GL226140   2.780  16.400  20.190
 1090BOLB   C1A26141   3.210  16.220  20.030
 1090BOLB   C2A26142   3.490  16.360  19.890
 1090BOLB   C3A26143   3.710  16.370  19.530
 1090BOLB   C4A26144   3.620  16.230  19.110
 1090BOLB   C1B26145   3.050  16.690  19.910
 1090BOLB   C2B26146   3.390  16.830  19.700
 1090BOLB   C3B26147   3.820  16.840  19.660
 1090BOLB   C4B26148   4.230  17.000  19.540
 1090BOLB   NC226149   2.180  15.000  19.230
 1090BOLB   PO226150   1.920  14.770  18.910
 1090BOLB   GL326151   2.230  14.940  18.640
 1090BOLB   GL426152   2.400  14.740  18.480
 1090BOLB   C1C26153   2.610  15.150  18.780
 1090BOLB   C2C26154   2.810  15.480  18.880
 1090BOLB   C3C26155   3.130  15.800  18.840
 1090BOLB   C4C26156   3.320  16.120  18.810
 1090BOLB   C1D26157   2.870  14.950  18.420
 1090BOLB   C2D26158   3.270  14.990  18.190
 1090BOLB   C3D26159   3.700  14.810  18.280
 1090BOLB   C4D26160   3.760  14.410  18.150
 1091BOLB   NC126161  22.880  25.820  19.620
 1091BOLB   PO126162  22.590  25.480  19.370
 1091BOLB   GL126163  22.530  25.400  19.000
 1091BOLB   GL226164  22.350  25.640  18.740
 1091BOLB   C1A26165  22.510  24.960  18.670
 1091BOLB   C2A26166  22.290  24.640  18.650
 1091BOLB   C3A26167  21.920  24.230  18.570
 1091BOLB   C4A26168  21.500  24.000  18.460
 1091BOLB   C1B26169  22.230  25.330  18.500
 1091BOLB   C2B26170  21.950  25.030  18.590
 1091BOLB   C3B26171  21.600  24.770  18.510
 1091BOLB   C4B26172  21.180  24.680  18.450
 1091BOLB   NC226173  20.350  23.160  17.100
 1091BOLB   PO226174  20.310  23.410  16.750
 1091BOLB   GL326175  20.540  23.660  17.030
 1091BOLB   GL426176  20.410  23.950  16.920
 1091BOLB   C1C26177  20.780  23.490  17.400
 1091BOLB   C2C26178  21.160  23.340  17.630
 1091BOLB   C3C26179  21.570  23.540  17.830
 1091BOLB   C4C26180  21.510  23.900  18.090
 1091BOLB   C1D26181  20.600  24.060  17.270
 1091BOLB   C2D26182  20.850  24.410  17.250
 1091BOLB   C3D26183  21.140  24.240  17.480
 1091BOLB   C4D26184  21.110  23.840  17.460
 1092BOLB   NC126185   6.530   6.400  14.770
 1092BOLB   PO126186   6.390   6.290  14.270
 1092BOLB   GL126187   6.660   6.670  14.340
 1092BOLB   GL226188   6.590   6.980  14.580
 1092BOLB   C1A26189   7.030   6.880  14.680
 1092BOLB   C2A26190   7.390   6.550  14.900
 1092BOLB   C3A26191   7.720   6.570  15.190
 1092BOLB   C4A26192   7.850   6.840  15.550
 1092BOLB   C1B26193   6.550   7.450  14.520
 1092BOLB   C2B26194   6.460   7.900  14.540
 1092BOLB   C3B26195   6.490   8.280  14.280
 1092BOLB   C4B26196   6.430   8.660  14.140
 1092BOLB   NC226197   8.140   5.750  14.470
 1092BOLB   PO226198   8.610   5.630  14.550
 1092BOLB   GL326199   8.760   6.050  14.530
 1092BOLB   GL426200   8.770   6.180  14.190
 1092BOLB   C1C26201   8.830   6.240  14.970
 1092BOLB   C2C26202   8.700   6.480  15.290
 1092BOLB   C3C26203   8.530   6.820  15.540
 1092BOLB   C4C26204   8.210   6.930  15.700
 1092BOLB   C1D26205   8.610   6.610  14.260
 1092BOLB   C2D26206   8.470   7.080  14.110
 1092BOLB   C3D26207   8.430   7.480  13.930
 1092BOLB   C4D26208   8.090   7.670  13.900
 1093BOLB   NC126209  24.730  10.540  17.780
 1093BOLB   PO126210  25.100  10.770  17.700
 1093BOLB   GL126211  24.750  11.070  17.670
 1093BOLB   GL226212  24.520  10.930  17.500
 1093BOLB   C1A26213  24.470  11.430  17.560
 1093BOLB   C2A26214  24.440  11.850  17.700
 1093BOLB   C3A26215  24.060  12.100  17.650
 1093BOLB   C4A26216  23.630  12.180  17.750
 1093BOLB   C1B26217  24.560  11.050  16.960
 1093BOLB   C2B26218  24.230  11.280  16.800
 1093BOLB   C3B26219  23.850  11.480  16.860
 1093BOLB   C4B26220  23.560  11.580  16.520
 1093BOLB   NC226221  23.610  10.170  18.720
 1093BOLB   PO226222  23.860  10.190  18.410
 1093BOLB   GL326223  23.710  10.600  18.230
 1093BOLB   GL426224  23.770  10.800  18.510
 1093BOLB   C1C26225  23.570  10.840  17.820
 1093BOLB   C2C26226  23.170  11.140  17.790
 1093BOLB   C3C26227  23.230  11.560  18.080
 1093BOLB   C4C26228  23.240  11.950  18.010
 1093BOLB   C1D26229  23.770  11.200  18.460
 1093BOLB   C2D26230  23.910  11.520  18.590
 1093BOLB   C3D26231  23.830  12.020  18.730
 1093BOLB   C4D26232  23.410  12.080  18.840
 1094BOLB   NC126233  18.030   9.570  24.270
 1094BOLB   PO126234  18.060   9.850  24.620
 1094BOLB   GL126235  17.670  10.140  24.440
 1094BOLB   GL226236  17.740   9.980  24.210
 1094BOLB   C1A26237  17.290  10.240  24.370
 1094BOLB   C2A26238  16.990  10.540  24.190
 1094BOLB   C3A26239  16.710  10.610  23.860
 1094BOLB   C4A26240  16.620  11.000  23.710
 1094BOLB   C1B26241  17.590  10.260  23.970
 1094BOLB   C2B26242  17.280  10.590  23.750
 1094BOLB   C3B26243  16.980  10.470  23.370
 1094BOLB   C4B26244  16.820  10.300  22.980
 1094BOLB   NC226245  18.100  11.620  25.690
 1094BOLB   PO226246  18.140  11.190  25.490
 1094BOLB   GL326247  17.930  11.120  25.080
 1094BOLB   GL426248  17.730  10.960  25.140
 1094BOLB   C1C26249  17.770  11.170  24.620
 1094BOLB   C2C26250  17.580  11.380  24.300
 1094BOLB   C3C26251  17.170  11.520  24.050
 1094BOLB   C4C26252  16.780  11.390  23.840
 1094BOLB   C1D26253  17.360  11.020  24.870
 1094BOLB   C2D26254  17.060  11.190  24.530
 1094BOLB   C3D26255  16.670  11.490  24.440
 1094BOLB   C4D26256  16.550  11.720  24.110
 1095BOLB   NC126257  14.800   6.260  23.380
 1095BOLB   PO126258  14.930   6.550  23.740
 1095BOLB   GL126259  14.860   6.940  23.510
 1095BOLB   GL226260  14.710   7.190  23.710
 1095BOLB   C1A26261  14.900   7.040  23.100
 1095BOLB   C2A26262  14.650   7.070  22.770
 1095BOLB   C3A26263  14.520   7.330  22.520
 1095BOLB   C4A26264  14.370   7.780  22.560
 1095BOLB   C1B26265  14.540   7.310  23.230
 1095BOLB   C2B26266  14.290   7.430  22.900
 1095BOLB   C3B26267  13.990   7.320  22.580
 1095BOLB   C4B26268  13.910   7.190  22.180
 1095BOLB   NC226269  14.400   6.790  24.170
 1095BOLB   PO226270  14.100   7.030  24.150
 1095BOLB   GL326271  13.930   7.390  23.820
 1095BOLB   GL426272  14.140   7.220  23.660
 1095BOLB   C1C26273  13.620   7.680  23.590
 1095BOLB   C2C26274  13.770   8.110  23.370
 1095BOLB   C3C26275  13.840   8.170  22.960
 1095BOLB   C4C26276  13.990   7.870  22.710
 1095BOLB   C1D26277  13.870   7.260  23.290
 1095BOLB   C2D26278  13.740   7.460  22.970
 1095BOLB   C3D26279  13.560   7.740  23.060
 1095BOLB   C4D26280  13.250   8.000  23.140
 1096BOLB   NC126281  22.210  18.450   6.690
 1096BOLB   PO126282  22.100  18.860   6.790
 1096BOLB   GL126283  22.460  18.870   6.540
 1096BOLB   GL226284  22.730  18.970   6.760
 1096BOLB   C1A26285  22.610  18.860   6.180
 1096BOLB   C2A26286  22.830  19.100   5.970
 1096BOLB   C3A26287  22.870  19.230   5.460
 1096BOLB   C4A26288  23.120  19.170   5.130
 1096BOLB   C1B26289  23.030  19.310   6.720
 1096BOLB   C2B26290  23.440  19.580   6.530
 1096BOLB   C3B26291  23.700  19.630   6.290
 1096BOLB   C4B26292  23.830  19.870   5.950
 1096BOLB   NC226293  24.030  19.620   2.910
 1096BOLB   PO226294  24.360  19.370   3.190
 1096BOLB   GL326295  23.890  19.250   3.290
 1096BOLB   GL426296  23.590  19.510   3.240
 1096BOLB   C1C26297  23.760  19.090   3.680
 1096BOLB   C2C26298  23.570  19.210   4.080
 1096BOLB   C3C26299  23.380  19.360   4.450
 1096BOLB   C4C26300  23.300  19.260   4.850
 1096BOLB   C1D26301  23.240  19.420   3.500
 1096BOLB   C2D26302  23.130  19.230   3.950
 1096BOLB   C3D26303  22.830  18.960   4.180
 1096BOLB   C4D26304  22.650  18.630   4.370
 1097BOLB   NC126305   1.280  17.760  12.830
 1097BOLB   PO126306   1.220  17.810  13.290
 1097BOLB   GL126307   1.500  17.770  13.570
 1097BOLB   GL226308   1.340  17.970  13.890
 1097BOLB   C1A26309   1.720  17.440  13.650
 1097BOLB   C2A26310   1.850  17.180  13.900
 1097BOLB   C3A26311   2.240  17.190  14.040
 1097BOLB   C4A26312   2.610  17.050  14.280
 1097BOLB   C1B26313   1.440  17.520  14.070
 1097BOLB   C2B26314   1.570  17.200  14.330
 1097BOLB   C3B26315   1.870  16.910  14.330
 1097BOLB   C4B26316   2.020  16.570  14.100
 1097BOLB   NC226317   0.780  18.190  14.170
 1097BOLB   PO226318   0.990  18.020  14.440
 1097BOLB   GL326319   1.410  18.100  14.390
 1097BOLB   GL426320   1.380  18.410  14.480
 1097BOLB   C1C26321   1.830  18.060  14.370
 1097BOLB   C2C26322   2.240  18.140  14.290
 1097BOLB   C3C26323   2.510  17.820  14.200
 1097BOLB   C4C26324   2.810  17.450  14.370
 1097BOLB   C1D26325   1.630  18.320  14.790
 1097BOLB   C2D26326   2.040  17.990  14.930
 1097BOLB   C3D26327   2.250  17.760  14.650
 1097BOLB   C4D26328   2.330  17.380  14.530
 1098BOLB   NC126329   7.740  16.210  10.180
 1098BOLB   PO126330   7.750  16.670  10.410
 1098BOLB   GL126331   7.420  16.420  10.530
 1098BOLB   GL226332   7.540  16.110  10.620
 1098BOLB   C1A26333   7.010  16.510  10.430
 1098BOLB   C2A26334   6.650  16.710  10.530
 1098BOLB   C3A26335   6.260  16.860  10.750
 1098BOLB   C4A26336   5.910  16.740  10.670
 1098BOLB   C1B26337   7.170  16.000  10.520
 1098BOLB   C2B26338   6.770  16.030  10.250
 1098BOLB   C3B26339   6.450  16.330  10.190
 1098BOLB   C4B26340   6.020  16.380  10.220
 1098BOLB   NC226341   4.060  17.200   9.520
 1098BOLB   PO226342   4.050  16.960   9.930
 1098BOLB   GL326343   4.310  16.900  10.260
 1098BOLB   GL426344   4.610  16.930  10.240
 1098BOLB   C1C26345   4.410  16.760  10.740
 1098BOLB   C2C26346   4.730  16.580  10.920
 1098BOLB   C3C26347   5.160  16.610  11.020
 1098BOLB   C4C26348   5.630  16.640  10.930
 1098BOLB   C1D26349   4.710  16.530  10.320
 1098BOLB   C2D26350   5.060  16.250  10.620
 1098BOLB   C3D26351   5.000  16.000  10.910
 1098BOLB   C4D26352   4.900  15.590  10.980
 1099BOLB   NC126353   6.100  19.680  24.840
 1099BOLB   PO126354   6.630  19.540  24.750
 1099BOLB   GL126355   6.700  19.820  24.340
 1099BOLB   GL226356   6.990  19.960  24.460
 1099BOLB   C1A26357   6.820  20.160  24.010
 1099BOLB   C2A26358   7.100  20.080  23.620
 1099BOLB   C3A26359   7.200  19.790  23.460
 1099BOLB   C4A26360   7.050  19.340  23.210
 1099BOLB   C1B26361   7.150  19.770  24.070
 1099BOLB   C2B26362   7.240  19.450  23.800
 1099BOLB   C3B26363   7.260  19.030  23.820
 1099BOLB   C4B26364   7.690  18.980  23.710
 1099BOLB   NC226365   4.970  19.420  23.490
 1099BOLB   PO226366   5.100  19.070  23.490
 1099BOLB   GL326367   5.330  19.060  23.100
 1099BOLB   GL426368   5.430  18.800  23.260
 1099BOLB   C1C26369   5.640  18.820  22.810
 1099BOLB   C2C26370   6.160  18.820  22.880
 1099BOLB   C3C26371   6.560  18.770  22.740
 1099BOLB   C4C26372   6.940  19.100  22.920
 1099BOLB   C1D26373   5.840  19.030  23.240
 1099BOLB   C2D26374   6.130  19.280  23.170
 1099BOLB   C3D26375   6.480  19.210  23.080
 1099BOLB   C4D26376   6.660  19.500  22.820
 1100BOLB   NC126377   5.050   7.500  12.650
 1100BOLB   PO126378   4.830   7.480  12.980
 1100BOLB   GL126379   5.120   7.770  13.030
 1100BOLB   GL226380   5.160   8.050  13.110
 1100BOLB   C1A26381   5.640   7.890  13.070
 1100BOLB   C2A26382   6.030   8.120  13.020
 1100BOLB   C3A26383   6.290   8.210  13.340
 1100BOLB   C4A26384   6.480   8.170  13.690
 1100BOLB   C1B26385   5.380   8.400  12.950
 1100BOLB   C2B26386   5.690   8.650  13.100
 1100BOLB   C3B26387   6.010   8.640  13.320
 1100BOLB   C4B26388   6.380   8.630  13.530
 1100BOLB   NC226389   6.850   6.120  13.040
 1100BOLB   PO226390   6.950   6.270  13.490
 1100BOLB   GL326391   7.230   6.450  13.750
 1100BOLB   GL426392   7.370   6.410  14.010
 1100BOLB   C1C26393   7.070   6.740  14.080
 1100BOLB   C2C26394   6.920   7.130  14.150
 1100BOLB   C3C26395   6.680   7.480  14.020
 1100BOLB   C4C26396   6.690   7.910  13.960
 1100BOLB   C1D26397   7.600   6.780  13.900
 1100BOLB   C2D26398   7.920   7.130  14.020
 1100BOLB   C3D26399   8.110   7.320  14.280
 1100BOLB   C4D26400   8.050   7.700  14.510
 1101BOLB   NC126401   3.120  23.700  16.410
 1101BOLB   PO126402   3.210  23.410  16.660
 1101BOLB   GL126403   3.050  23.030  16.610
 1101BOLB   GL226404   3.060  22.990  16.260
 1101BOLB   C1A26405   3.080  22.580  16.570
 1101BOLB   C2A26406   2.960  22.500  16.210
 1101BOLB   C3A26407   2.990  22.520  15.760
 1101BOLB   C4A26408   3.200  22.540  15.400
 1101BOLB   C1B26409   3.470  22.750  16.380
 1101BOLB   C2B26410   3.820  22.580  16.170
 1101BOLB   C3B26411   4.140  22.610  15.780
 1101BOLB   C4B26412   4.300  22.290  15.530
 1101BOLB   NC226413   1.480  20.940  14.110
 1101BOLB   PO226414   1.880  21.190  14.260
 1101BOLB   GL326415   2.350  21.160  14.430
 1101BOLB   GL426416   2.440  21.210  14.830
 1101BOLB   C1C26417   2.700  21.440  14.340
 1101BOLB   C2C26418   3.010  21.790  14.360
 1101BOLB   C3C26419   3.230  21.920  14.750
 1101BOLB   C4C26420   3.330  22.330  15.070
 1101BOLB   C1D26421   2.910  21.180  14.800
 1101BOLB   C2D26422   3.340  20.990  14.720
 1101BOLB   C3D26423   3.680  21.190  14.860
 1101BOLB   C4D26424   4.010  21.410  14.770
 1102BOLB   NC126425   8.150  26.290  12.370
 1102BOLB   PO126426   8.340  26.170  12.810
 1102BOLB   GL126427   8.570  25.990  12.510
 1102BOLB   GL226428   8.680  25.950  12.220
 1102BOLB   C1A26429   8.840  25.790  12.690
 1102BOLB   C2A26430   9.160  25.480  12.650
 1102BOLB   C3A26431   9.340  25.090  12.670
 1102BOLB   C4A26432   9.230  24.760  12.750
 1102BOLB   C1B26433   9.070  25.810  12.110
 1102BOLB   C2B26434   9.480  25.500  12.280
 1102BOLB   C3B26435   9.590  25.150  12.220
 1102BOLB   C4B26436   9.810  24.990  12.500
 1102BOLB   NC226437   6.870  25.740  12.770
 1102BOLB   PO226438   7.040  25.370  12.610
 1102BOLB   GL326439   7.410  25.040  12.490
 1102BOLB   GL426440   7.620  25.220  12.470
 1102BOLB   C1C26441   7.660  24.630  12.540
 1102BOLB   C2C26442   8.120  24.540  12.580
 1102BOLB   C3C26443   8.570  24.460  12.690
 1102BOLB   C4C26444   8.980  24.440  12.770
 1102BOLB   C1D26445   7.960  25.200  12.560
 1102BOLB   C2D26446   8.370  25.010  12.500
 1102BOLB   C3D26447   8.480  24.670  12.180
 1102BOLB   C4D26448   8.410  24.240  12.040
 1103BOLB   NC126449   7.510  26.130  17.800
 1103BOLB   PO126450   7.850  26.200  18.130
 1103BOLB   GL126451   7.720  25.740  18.130
 1103BOLB   GL226452   7.360  25.640  17.960
 1103BOLB   C1A26453   7.750  25.390  18.340
 1103BOLB   C2A26454   7.750  24.960  18.450
 1103BOLB   C3A26455   8.170  24.730  18.480
 1103BOLB   C4A26456   8.610  24.620  18.560
 1103BOLB   C1B26457   7.650  25.390  17.710
 1103BOLB   C2B26458   7.820  24.970  17.750
 1103BOLB   C3B26459   7.980  24.600  18.040
 1103BOLB   C4B26460   7.720  24.450  18.350
 1103BOLB   NC226461   9.960  27.050  19.720
 1103BOLB   PO226462   9.720  26.700  19.480
 1103BOLB   GL326463   9.520  26.240  19.420
 1103BOLB   GL426464   9.300  26.210  19.630
 1103BOLB   C1C26465   9.400  25.830  19.260
 1103BOLB   C2C26466   9.080  25.500  19.150
 1103BOLB   C3C26467   9.080  25.140  18.860
 1103BOLB   C4C26468   9.000  24.810  18.450
 1103BOLB   C1D26469   9.050  25.800  19.580
 1103BOLB   C2D26470   8.690  25.520  19.470
 1103BOLB   C3D26471   8.270  25.440  19.150
 1103BOLB   C4D26472   7.910  25.600  19.170
 1104BOLB   NC126473   4.130  13.580  21.920
 1104BOLB   PO126474   3.930  13.790  21.690
 1104BOLB   GL126475   4.100  14.060  21.400
 1104BOLB   GL226476   3.960  14.240  21.600
 1104BOLB   C1A26477   4.530  14.060  21.200
 1104BOLB   C2A26478   4.850  14.410  21.200
 1104BOLB   C3A26479   5.200  14.650  21.100
 1104BOLB   C4A26480   5.140  15.100  20.890
 1104BOLB   C1B26481   4.390  14.460  21.520
 1104BOLB   C2B26482   4.650  14.810  21.580
 1104BOLB   C3B26483   4.880  15.170  21.380
 1104BOLB   C4B26484   5.310  15.420  21.330
 1104BOLB   NC226485   3.320  16.760  21.450
 1104BOLB   PO226486   3.070  16.390  21.210
 1104BOLB   GL326487   3.540  16.320  21.150
 1104BOLB   GL426488   3.770  16.460  21.300
 1104BOLB   C1C26489   3.950  16.000  20.860
 1104BOLB   C2C26490   4.310  16.000  20.700
 1104BOLB   C3C26491   4.760  15.790  20.790
 1104BOLB   C4C26492   5.100  15.470  20.870
 1104BOLB   C1D26493   4.210  16.420  21.140
 1104BOLB   C2D26494   4.550  16.190  21.070
 1104BOLB   C3D26495   4.970  15.950  21.240
 1104BOLB   C4D26496   5.470  15.940  21.140
 1105BOLB   NC126497   8.740  20.400  12.520
 1105BOLB   PO126498   8.720  20.250  12.080
 1105BOLB   GL126499   8.320  20.380  12.160
 1105BOLB   GL226500   8.260  20.420  12.490
 1105BOLB   C1A26501   7.870  20.340  12.200
 1105BOLB   C2A26502   7.480  20.330  11.960
 1105BOLB   C3A26503   7.390  20.020  11.670
 1105BOLB   C4A26504   6.980  20.090  11.670
 1105BOLB   C1B26505   8.030  20.630  12.800
 1105BOLB   C2B26506   7.700  20.950  12.810
 1105BOLB   C3B26507   7.430  21.290  13.040
 1105BOLB   C4B26508   7.010  21.280  13.220
 1105BOLB   NC226509   4.600  21.470  11.490
 1105BOLB   PO226510   4.680  21.790  11.720
 1105BOLB   GL326511   5.080  21.530  11.780
 1105BOLB   GL426512   4.970  21.620  12.040
 1105BOLB   C1C26513   5.460  21.210  11.950
 1105BOLB   C2C26514   5.830  20.950  11.960
 1105BOLB   C3C26515   6.250  20.690  11.900
 1105BOLB   C4C26516   6.510  20.220  11.800
 1105BOLB   C1D26517   5.320  21.540  12.340
 1105BOLB   C2D26518   5.370  21.130  12.420
 1105BOLB   C3D26519   5.590  20.710  12.350
 1105BOLB   C4D26520   5.990  20.330  12.300
 1106BOLB   NC126521  19.590  29.700  13.510
 1106BOLB   PO126522  19.740  29.540  13.920
 1106BOLB   GL126523  19.730  29.080  14.030
 1106BOLB   GL226524  19.510  28.950  14.250
 1106BOLB   C1A26525  19.790  28.660  13.880
 1106BOLB   C2A26526  19.830  28.160  13.650
 1106BOLB   C3A26527  19.770  27.750  13.440
 1106BOLB   C4A26528  19.490  27.500  13.270
 1106BOLB   C1B26529  19.030  28.850  14.160
 1106BOLB   C2B26530  18.920  28.540  14.220
 1106BOLB   C3B26531  18.910  28.220  14.100
 1106BOLB   C4B26532  18.980  27.790  13.970
 1106BOLB   NC226533  20.160  28.690  12.210
 1106BOLB   PO226534  19.880  28.930  12.300
 1106BOLB   GL326535  19.690  28.500  12.200
 1106BOLB   GL426536  19.450  28.530  12.010
 1106BOLB   C1C26537  19.900  28.140  12.210
 1106BOLB   C2C26538  19.660  27.780  12.230
 1106BOLB   C3C26539  19.630  27.430  12.510
 1106BOLB   C4C26540  19.480  27.320  12.860
 1106BOLB   C1D26541  19.290  28.120  12.210
 1106BOLB   C2D26542  19.330  27.820  12.550
 1106BOLB   C3D26543  19.130  27.700  12.980
 1106BOLB   C4D26544  18.880  27.390  13.070
 1107BOLB   NC126545  16.020  19.840  26.790
 1107BOLB   PO126546  15.930  20.220  26.570
 1107BOLB   GL126547  15.780  20.040  26.190
 1107BOLB   GL226548  15.460  20.090  26.140
 1107BOLB   C1A26549  15.740  19.560  25.970
 1107BOLB   C2A26550  15.610  19.230  25.790
 1107BOLB   C3A26551  15.270  18.980  25.690
 1107BOLB   C4A26552  14.790  18.820  25.810
 1107BOLB   C1B26553  15.220  20.430  26.110
 1107BOLB   C2B26554  14.760  20.430  26.290
 1107BOLB   C3B26555  14.320  20.410  26.450
 1107BOLB   C4B26556  13.940  20.690  26.710
 1107BOLB   NC226557  15.410  18.890  28.220
 1107BOLB   PO226558  15.140  18.650  27.940
 1107BOLB   GL326559  14.900  18.440  27.650
 1107BOLB   GL426560  14.970  18.200  27.410
 1107BOLB   C1C26561  14.570  18.480  27.410
 1107BOLB   C2C26562  14.620  18.650  27.010
 1107BOLB   C3C26563  14.800  18.870  26.560
 1107BOLB   C4C26564  14.740  18.800  26.150
 1107BOLB   C1D26565  14.690  18.170  26.980
 1107BOLB   C2D26566  14.460  17.910  26.590
 1107BOLB   C3D26567  14.070  18.090  26.460
 1107BOLB   C4D26568  13.650  18.040  26.400
 1108BOLB   NC126569  16.670  24.800  15.970
 1108BOLB   PO126570  16.700  25.180  15.620
 1108BOLB   GL126571  16.810  25.370  15.910
 1108BOLB   GL226572  16.730  25.300  16.210
 1108BOLB   C1A26573  17.000  25.730  15.930
 1108BOLB   C2A26574  17.150  26.150  16.070
 1108BOLB   C3A26575  17.560  26.450  16.080
 1108BOLB   C4A26576  17.660  26.710  16.450
 1108BOLB   C1B26577  16.490  25.630  16.300
 1108BOLB   C2B26578  16.520  26.050  16.160
 1108BOLB   C3B26579  16.730  26.390  16.480
 1108BOLB   C4B26580  17.020  26.230  16.810
 1108BOLB   NC226581  17.510  28.670  17.850
 1108BOLB   PO226582  17.490  28.280  18.190
 1108BOLB   GL326583  17.480  28.030  17.880
 1108BOLB   GL426584  17.490  28.270  17.540
 1108BOLB   C1C26585  17.440  27.640  17.850
 1108BOLB   C2C26586  17.390  27.280  17.540
 1108BOLB   C3C26587  17.730  27.230  17.150
 1108BOLB   C4C26588  17.800  26.950  16.760
 1108BOLB   C1D26589  17.820  27.880  17.510
 1108BOLB   C2D26590  18.000  27.560  17.670
 1108BOLB   C3D26591  17.880  27.160  17.670
 1108BOLB   C4D26592  17.610  26.890  17.720
 1109BOLB   NC126593   8.310  14.480   9.730
 1109BOLB   PO126594   8.270  14.030   9.800
 1109BOLB   GL126595   8.090  13.630   9.690
 1109BOLB   GL226596   7.890  13.450   9.460
 1109BOLB   C1A26597   7.690  13.750   9.860
 1109BOLB   C2A26598   7.230  13.710   9.930
 1109BOLB   C3A26599   6.860  13.890   9.740
 1109BOLB   C4A26600   6.700  14.020   9.360
 1109BOLB   C1B26601   8.080  13.220   9.160
 1109BOLB   C2B26602   7.910  13.170   8.740
 1109BOLB   C3B26603   7.790  13.280   8.410
 1109BOLB   C4B26604   7.480  13.120   8.070
 1109BOLB   NC226605   4.670  13.080   7.990
 1109BOLB   PO226606   5.030  13.170   8.270
 1109BOLB   GL326607   5.410  13.350   8.110
 1109BOLB   GL426608   5.470  13.190   7.840
 1109BOLB   C1C26609   5.790  13.600   8.140
 1109BOLB   C2C26610   6.210  13.490   8.320
 1109BOLB   C3C26611   6.470  13.590   8.740
 1109BOLB   C4C26612   6.640  13.840   8.960
 1109BOLB   C1D26613   6.010  13.140   8.030
 1109BOLB   C2D26614   6.000  13.020   8.430
 1109BOLB   C3D26615   5.910  12.750   8.800
 1109BOLB   C4D26616   6.070  12.570   9.200
 1110BOLB   NC126617  12.570  21.210  27.120
 1110BOLB   PO126618  12.130  21.200  27.090
 1110BOLB   GL126619  11.980  21.050  26.730
 1110BOLB   GL226620  11.630  20.980  26.610
 1110BOLB   C1A26621  12.260  21.300  26.350
 1110BOLB   C2A26622  12.270  21.360  25.870
 1110BOLB   C3A26623  12.670  21.460  25.670
 1110BOLB   C4A26624  12.980  21.340  25.490
 1110BOLB   C1B26625  11.550  20.740  26.190
 1110BOLB   C2B26626  11.710  20.290  26.130
 1110BOLB   C3B26627  11.730  19.880  25.990
 1110BOLB   C4B26628  11.480  19.490  25.840
 1110BOLB   NC226629  15.420  22.580  25.360
 1110BOLB   PO226630  14.960  22.850  25.440
 1110BOLB   GL326631  14.770  22.500  25.350
 1110BOLB   GL426632  15.020  22.220  25.330
 1110BOLB   C1C26633  14.520  22.140  25.390
 1110BOLB   C2C26634  14.150  21.870  25.540
 1110BOLB   C3C26635  13.730  21.740  25.670
 1110BOLB   C4C26636  13.270  21.580  25.480
 1110BOLB   C1D26637  15.040  22.310  24.910
 1110BOLB   C2D26638  15.190  22.050  24.640
 1110BOLB   C3D26639  15.520  21.900  24.300
 1110BOLB   C4D26640  15.930  21.580  24.280
 1111BOLB   NC126641  18.070  17.250   4.300
 1111BOLB   PO126642  18.290  17.020   4.620
 1111BOLB   GL126643  18.520  17.010   4.240
 1111BOLB   GL226644  18.800  17.180   4.190
 1111BOLB   C1A26645  18.530  16.930   3.840
 1111BOLB   C2A26646  18.490  17.030   3.430
 1111BOLB   C3A26647  18.300  17.040   2.960
 1111BOLB   C4A26648  18.450  16.910   2.520
 1111BOLB   C1B26649  19.030  17.140   3.830
 1111BOLB   C2B26650  18.980  16.980   3.500
 1111BOLB   C3B26651  19.020  17.120   3.070
 1111BOLB   C4B26652  19.230  17.190   2.750
 1111BOLB   NC226653  18.970  15.440   0.230
 1111BOLB   PO226654  18.800  15.970   0.240
 1111BOLB   GL326655  18.860  16.180   0.550
 1111BOLB   GL426656  18.950  16.510   0.540
 1111BOLB   C1C26657  18.650  16.250   0.890
 1111BOLB   C2C26658  18.430  16.500   1.240
 1111BOLB   C3C26659  18.400  16.590   1.680
 1111BOLB   C4C26660  18.430  16.710   2.210
 1111BOLB   C1D26661  18.900  16.650   0.980
 1111BOLB   C2D26662  18.750  16.950   1.140
 1111BOLB   C3D26663  18.540  17.290   1.500
 1111BOLB   C4D26664  18.680  17.610   1.810
 1112BOLB   NC126665  18.040  19.360   5.480
 1112BOLB   PO126666  18.290  19.730   5.310
 1112BOLB   GL126667  18.320  20.040   5.070
 1112BOLB   GL226668  18.020  20.200   4.880
 1112BOLB   C1A26669  18.490  20.100   4.690
 1112BOLB   C2A26670  18.440  20.260   4.340
 1112BOLB   C3A26671  18.430  20.470   3.980
 1112BOLB   C4A26672  18.460  20.530   3.580
 1112BOLB   C1B26673  17.940  20.410   4.450
 1112BOLB   C2B26674  17.870  20.810   4.120
 1112BOLB   C3B26675  17.950  21.120   4.050
 1112BOLB   C4B26676  17.770  21.500   4.120
 1112BOLB   NC226677  19.050  22.330   2.230
 1112BOLB   PO226678  18.980  22.230   1.710
 1112BOLB   GL326679  18.720  21.980   2.070
 1112BOLB   GL426680  18.780  21.660   1.950
 1112BOLB   C1C26681  18.510  21.800   2.490
 1112BOLB   C2C26682  18.670  21.540   2.840
 1112BOLB   C3C26683  18.730  21.110   2.860
 1112BOLB   C4C26684  18.450  20.820   3.180
 1112BOLB   C1D26685  18.810  21.450   2.320
 1112BOLB   C2D26686  19.100  21.490   2.670
 1112BOLB   C3D26687  19.510  21.320   2.860
 1112BOLB   C4D26688  19.890  21.320   2.560
 1113BOLB   NC126689  14.250  12.380   4.820
 1113BOLB   PO126690  14.510  12.190   5.010
 1113BOLB   GL126691  14.250  11.920   4.690
 1113BOLB   GL226692  14.130  12.010   4.470
 1113BOLB   C1A26693  14.300  11.560   4.470
 1113BOLB   C2A26694  14.470  11.290   4.160
 1113BOLB   C3A26695  14.490  11.020   3.810
 1113BOLB   C4A26696  14.300  10.800   3.530
 1113BOLB   C1B26697  13.740  11.900   4.230
 1113BOLB   C2B26698  13.450  11.680   3.950
 1113BOLB   C3B26699  12.950  11.550   3.810
 1113BOLB   C4B26700  12.580  11.410   3.770
 1113BOLB   NC226701  14.700   8.680   2.480
 1113BOLB   PO226702  14.360   8.820   2.720
 1113BOLB   GL326703  14.390   9.300   2.760
 1113BOLB   GL426704  14.390   9.260   3.020
 1113BOLB   C1C26705  14.620   9.680   2.880
 1113BOLB   C2C26706  14.850  10.030   3.180
 1113BOLB   C3C26707  14.810  10.230   3.520
 1113BOLB   C4C26708  14.410  10.380   3.620
 1113BOLB   C1D26709  14.510   9.430   3.340
 1113BOLB   C2D26710  14.520   9.800   3.650
 1113BOLB   C3D26711  14.900   9.910   3.910
 1113BOLB   C4D26712  15.320  10.020   4.190
 1114BOLB   NC126713  22.960  19.260   8.650
 1114BOLB   PO126714  22.960  19.040   8.210
 1114BOLB   GL126715  23.370  19.060   7.790
 1114BOLB   GL226716  23.510  19.320   7.710
 1114BOLB   C1A26717  23.730  18.970   7.400
 1114BOLB   C2A26718  23.960  19.000   7.070
 1114BOLB   C3A26719  24.240  18.810   6.810
 1114BOLB   C4A26720  24.660  18.600   6.750
 1114BOLB   C1B26721  23.820  19.520   7.450
 1114BOLB   C2B26722  24.140  19.420   7.250
 1114BOLB   C3B26723  24.520  19.240   7.060
 1114BOLB   C4B26724  24.810  19.150   6.880
 1114BOLB   NC226725  26.030  18.060   5.090
 1114BOLB   PO226726  26.410  18.000   5.340
 1114BOLB   GL326727  26.210  18.010   5.750
 1114BOLB   GL426728  25.920  18.210   5.560
 1114BOLB   C1C26729  26.120  18.160   6.170
 1114BOLB   C2C26730  25.890  18.260   6.510
 1114BOLB   C3C26731  25.610  18.560   6.810
 1114BOLB   C4C26732  25.120  18.750   6.970
 1114BOLB   C1D26733  25.690  18.040   5.910
 1114BOLB   C2D26734  25.650  17.960   6.270
 1114BOLB   C3D26735  25.520  17.850   6.650
 1114BOLB   C4D26736  25.170  17.890   6.780
 1115BOLB   NC126737  11.730  19.280   6.940
 1115BOLB   PO126738  11.270  19.190   6.700
 1115BOLB   GL126739  10.880  19.140   6.660
 1115BOLB   GL226740  10.770  19.120   6.340
 1115BOLB   C1A26741  10.460  19.150   6.800
 1115BOLB   C2A26742  10.150  19.450   6.600
 1115BOLB   C3A26743   9.900  19.730   6.420
 1115BOLB   C4A26744   9.820  20.100   6.250
 1115BOLB   C1B26745  10.580  19.460   6.260
 1115BOLB   C2B26746  10.220  19.600   5.930
 1115BOLB   C3B26747   9.640  19.650   5.920
 1115BOLB   C4B26748   9.310  19.690   6.220
 1115BOLB   NC226749   8.500  20.030   4.030
 1115BOLB   PO226750   8.350  20.180   4.370
 1115BOLB   GL326751   8.640  20.500   4.530
 1115BOLB   GL426752   8.540  20.630   4.820
 1115BOLB   C1C26753   9.070  20.420   4.820
 1115BOLB   C2C26754   9.200  20.370   5.210
 1115BOLB   C3C26755   9.430  20.410   5.590
 1115BOLB   C4C26756   9.470  20.310   6.010
 1115BOLB   C1D26757   8.670  20.760   5.170
 1115BOLB   C2D26758   8.620  20.510   5.520
 1115BOLB   C3D26759   8.970  20.340   5.720
 1115BOLB   C4D26760   9.280  19.950   5.720
 1116BOLB   NC126761  22.760  17.160  16.580
 1116BOLB   PO126762  22.860  17.130  16.170
 1116BOLB   GL126763  23.190  17.200  16.310
 1116BOLB   GL226764  23.250  17.230  16.710
 1116BOLB   C1A26765  23.580  17.060  16.410
 1116BOLB   C2A26766  23.850  16.830  16.680
 1116BOLB   C3A26767  24.170  16.590  16.960
 1116BOLB   C4A26768  24.450  16.380  16.970
 1116BOLB   C1B26769  23.180  17.260  17.100
 1116BOLB   C2B26770  23.200  17.350  17.510
 1116BOLB   C3B26771  23.220  17.360  17.920
 1116BOLB   C4B26772  23.510  17.600  18.250
 1116BOLB   NC226773  26.710  15.940  18.120
 1116BOLB   PO226774  26.300  15.690  18.140
 1116BOLB   GL326775  26.170  15.590  17.750
 1116BOLB   GL426776  25.820  15.770  17.850
 1116BOLB   C1C26777  26.020  15.660  17.370
 1116BOLB   C2C26778  25.540  15.840  17.340
 1116BOLB   C3C26779  25.220  16.150  17.120
 1116BOLB   C4C26780  24.840  16.290  17.040
 1116BOLB   C1D26781  25.380  15.940  17.790
 1116BOLB   C2D26782  25.160  16.220  17.760
 1116BOLB   C3D26783  24.730  16.270  17.580
 1116BOLB   C4D26784  24.370  16.570  17.470
 1117BOLB   NC126785   2.380  14.220  20.330
 1117BOLB   PO126786   2.720  14.580  20.080
 1117BOLB   GL126787   3.150  14.380  19.960
 1117BOLB   GL226788   3.480  14.330  20.140
 1117BOLB   C1A26789   3.600  14.150  19.710
 1117BOLB   C2A26790   3.970  14.180  19.430
 1117BOLB   C3A26791   4.510  14.230  19.640
 1117BOLB   C4A26792   4.890  14.150  19.940
 1117BOLB   C1B26793   3.670  14.760  20.070
 1117BOLB   C2B26794   4.160  14.900  19.990
 1117BOLB   C3B26795   4.530  14.690  19.790
 1117BOLB   C4B26796   4.970  14.510  19.610
 1117BOLB   NC226797   3.520  15.130  22.130
 1117BOLB   PO226798   3.700  15.270  21.740
 1117BOLB   GL326799   4.130  15.380  21.660
 1117BOLB   GL426800   4.210  15.670  21.780
 1117BOLB   C1C26801   4.360  15.070  21.300
 1117BOLB   C2C26802   4.660  14.820  21.070
 1117BOLB   C3C26803   4.830  14.500  20.700
 1117BOLB   C4C26804   4.930  14.180  20.370
 1117BOLB   C1D26805   4.560  15.590  21.500
 1117BOLB   C2D26806   4.630  15.370  21.060
 1117BOLB   C3D26807   4.630  15.330  20.630
 1117BOLB   C4D26808   4.620  14.920  20.470
 1118BOLB   NC126809  22.320  12.410   2.870
 1118BOLB   PO126810  22.110  12.170   2.690
 1118BOLB   GL126811  21.870  12.260   2.960
 1118BOLB   GL226812  21.930  12.500   3.130
 1118BOLB   C1A26813  21.500  12.140   3.130
 1118BOLB   C2A26814  21.180  12.110   3.300
 1118BOLB   C3A26815  21.080  12.240   3.690
 1118BOLB   C4A26816  21.070  12.040   4.110
 1118BOLB   C1B26817  21.570  12.490   3.470
 1118BOLB   C2B26818  21.230  12.760   3.620
 1118BOLB   C3B26819  20.820  12.880   3.860
 1118BOLB   C4B26820  20.420  13.000   3.770
 1118BOLB   NC226821  22.700  10.470   3.720
 1118BOLB   PO226822  22.280  10.560   3.510
 1118BOLB   GL326823  22.360  10.790   3.900
 1118BOLB   GL426824  22.540  10.690   4.170
 1118BOLB   C1C26825  22.180  11.160   4.110
 1118BOLB   C2C26826  21.980  11.400   4.490
 1118BOLB   C3C26827  21.720  11.610   4.580
 1118BOLB   C4C26828  21.270  11.740   4.410
 1118BOLB   C1D26829  22.490  10.920   4.520
 1118BOLB   C2D26830  22.300  11.140   4.860
 1118BOLB   C3D26831  22.040  11.510   5.050
 1118BOLB   C4D26832  21.880  11.590   5.430
 1119BOLB   NC126833  10.820  12.060   7.880
 1119BOLB   PO126834  10.380  12.210   7.970
 1119BOLB   GL126835  10.110  12.230   7.590
 1119BOLB   GL226836   9.980  11.930   7.450
 1119BOLB   C1A26837   9.920  12.420   7.220
 1119BOLB   C2A26838   9.580  12.680   7.030
 1119BOLB   C3A26839   9.170  12.640   7.020
 1119BOLB   C4A26840   8.860  12.410   7.020
 1119BOLB   C1B26841   9.700  11.670   7.300
 1119BOLB   C2B26842   9.610  11.340   7.080
 1119BOLB   C3B26843   9.860  10.930   7.090
 1119BOLB   C4B26844  10.080  10.960   7.430
 1119BOLB   NC226845   6.700  10.730   6.400
 1119BOLB   PO226846   6.860  11.050   6.700
 1119BOLB   GL326847   7.140  11.350   6.680
 1119BOLB   GL426848   7.390  11.160   6.810
 1119BOLB   C1C26849   7.380  11.810   6.860
 1119BOLB   C2C26850   7.740  11.900   7.000
 1119BOLB   C3C26851   8.140  12.050   6.940
 1119BOLB   C4C26852   8.610  12.130   6.990
 1119BOLB   C1D26853   7.620  11.420   7.170
 1119BOLB   C2D26854   7.700  11.500   7.540
 1119BOLB   C3D26855   8.000  11.710   7.440
 1119BOLB   C4D26856   8.080  12.140   7.480
 1120BOLB   NC126857  24.180  16.810   9.340
 1120BOLB   PO126858  24.230  16.340   9.260
 1120BOLB   GL126859  24.510  16.190   9.020
 1120BOLB   GL226860  24.410  15.950   8.890
 1120BOLB   C1A26861  24.900  16.040   8.840
 1120BOLB   C2A26862  25.110  16.070   8.490
 1120BOLB   C3A26863  25.300  15.860   8.220
 1120BOLB   C4A26864  25.650  15.870   8.000
 1120BOLB   C1B26865  24.620  15.560   8.690
 1120BOLB   C2B26866  24.810  15.310   8.450
 1120BOLB   C3B26867  25.190  15.320   8.150
 1120BOLB   C4B26868  25.250  15.200   7.710
 1120BOLB   NC226869  27.030  17.100   6.300
 1120BOLB   PO226870  27.080  17.320   6.660
 1120BOLB   GL326871  26.930  16.940   6.900
 1120BOLB   GL426872  26.760  17.140   7.140
 1120BOLB   C1C26873  26.760  16.590   7.100
 1120BOLB   C2C26874  26.300  16.530   7.390
 1120BOLB   C3C26875  25.990  16.220   7.630
 1120BOLB   C4C26876  25.780  16.020   7.750
 1120BOLB   C1D26877  26.310  17.000   7.350
 1120BOLB   C2D26878  25.850  16.740   7.460
 1120BOLB   C3D26879  25.590  16.530   7.740
 1120BOLB   C4D26880  25.230  16.690   7.740
 1121BOLB   NC126881   5.650  18.470  24.970
 1121BOLB   PO126882   5.790  18.340  24.470
 1121BOLB   GL126883   6.120  18.440  24.220
 1121BOLB   GL226884   6.120  18.760  24.290
 1121BOLB   C1A26885   6.470  18.170  24.070
 1121BOLB   C2A26886   6.960  18.080  24.040
 1121BOLB   C3A26887   7.370  18.210  24.260
 1121BOLB   C4A26888   7.840  18.030  24.360
 1121BOLB   C1B26889   6.490  19.110  24.210
 1121BOLB   C2B26890   6.810  19.370  24.120
 1121BOLB   C3B26891   6.760  19.660  23.760
 1121BOLB   C4B26892   6.670  19.730  23.330
 1121BOLB   NC226893   7.090  17.680  25.980
 1121BOLB   PO226894   7.330  17.300  25.900
 1121BOLB   GL326895   7.510  17.610  25.730
 1121BOLB   GL426896   7.740  17.370  25.480
 1121BOLB   C1C26897   7.770  17.880  25.540
 1121BOLB   C2C26898   8.240  17.730  25.380
 1121BOLB   C3C26899   8.380  17.930  25.040
 1121BOLB   C4C26900   8.160  18.140  24.730
 1121BOLB   C1D26901   7.950  17.260  25.170
 1121BOLB   C2D26902   7.760  17.160  24.890
 1121BOLB   C3D26903   7.790  16.950  24.490
 1121BOLB   C4D26904   7.580  16.740  24.210
 1122BOLB   NC126905  10.520   8.730   4.300
 1122BOLB   PO126906  10.830   8.600   4.660
 1122BOLB   GL126907  10.990   8.940   4.760
 1122BOLB   GL226908  11.240   8.810   4.900
 1122BOLB   C1A26909  10.950   9.460   4.840
 1122BOLB   C2A26910  11.010   9.740   5.190
 1122BOLB   C3A26911  10.850  10.100   5.430
 1122BOLB   C4A26912  10.970  10.590   5.440
 1122BOLB   C1B26913  11.180   9.130   5.250
 1122BOLB   C2B26914  11.350   9.400   5.390
 1122BOLB   C3B26915  11.740   9.640   5.490
 1122BOLB   C4B26916  12.100   9.710   5.210
 1122BOLB   NC226917   9.340  10.500   3.830
 1122BOLB   PO226918   9.310  10.820   4.060
 1122BOLB   GL326919   9.730  10.800   3.970
 1122BOLB   GL426920  10.000  11.100   3.790
 1122BOLB   C1C26921  10.020  10.970   4.310
 1122BOLB   C2C26922  10.350  11.040   4.500
 1122BOLB   C3C26923  10.710  10.760   4.690
 1122BOLB   C4C26924  11.040  10.690   5.000
 1122BOLB   C1D26925   9.740  11.310   4.090
 1122BOLB   C2D26926   9.700  11.520   4.550
 1122BOLB   C3D26927   9.460  11.330   5.000
 1122BOLB   C4D26928   9.250  11.190   5.260
 1123BOLB   NC126929   9.580  23.280   4.620
 1123BOLB   PO126930   9.600  22.790   4.490
 1123BOLB   GL126931   9.690  22.540   4.870
 1123BOLB   GL226932   9.610  22.180   4.780
 1123BOLB   C1A26933   9.520  22.210   5.250
 1123BOLB   C2A26934   9.300  22.120   5.610
 1123BOLB   C3A26935   9.450  22.140   6.140
 1123BOLB   C4A26936   9.500  21.770   6.400
 1123BOLB   C1B26937  10.000  21.980   5.070
 1123BOLB   C2B26938  10.300  21.590   5.250
 1123BOLB   C3B26939  10.230  21.420   5.590
 1123BOLB   C4B26940  10.310  21.380   6.010
 1123BOLB   NC226941   6.700  21.880   6.290
 1123BOLB   PO226942   7.050  21.540   6.410
 1123BOLB   GL326943   7.450  21.520   6.240
 1123BOLB   GL426944   7.550  21.790   6.310
 1123BOLB   C1C26945   7.900  21.420   6.430
 1123BOLB   C2C26946   8.320  21.420   6.440
 1123BOLB   C3C26947   8.770  21.280   6.760
 1123BOLB   C4C26948   9.160  21.440   6.510
 1123BOLB   C1D26949   7.650  21.740   6.680
 1123BOLB   C2D26950   7.860  21.820   7.000
 1123BOLB   C3D26951   8.210  21.760   7.360
 1123BOLB   C4D26952   8.230  21.560   7.660
 1124BOLB   NC126953  17.190  19.260   4.890
 1124BOLB   PO126954  17.700  19.210   5.120
 1124BOLB   GL126955  17.820  19.310   4.610
 1124BOLB   GL226956  17.530  19.140   4.500
 1124BOLB   C1A26957  17.970  19.410   4.220
 1124BOLB   C2A26958  17.830  19.550   3.850
 1124BOLB   C3A26959  17.740  19.940   3.660
 1124BOLB   C4A26960  17.580  20.280   3.480
 1124BOLB   C1B26961  17.510  19.210   4.210
 1124BOLB   C2B26962  17.810  19.060   3.860
 1124BOLB   C3B26963  18.190  19.230   3.840
 1124BOLB   C4B26964  18.360  19.550   3.640
 1124BOLB   NC226965  18.500  20.950   1.370
 1124BOLB   PO226966  18.150  21.080   1.210
 1124BOLB   GL326967  18.040  21.070   1.660
 1124BOLB   GL426968  18.080  21.400   1.720
 1124BOLB   C1C26969  18.020  20.990   2.170
 1124BOLB   C2C26970  17.850  21.020   2.500
 1124BOLB   C3C26971  17.620  20.830   2.800
 1124BOLB   C4C26972  17.470  20.540   3.220
 1124BOLB   C1D26973  17.780  21.430   2.010
 1124BOLB   C2D26974  17.600  21.400   2.440
 1124BOLB   C3D26975  17.600  21.290   2.910
 1124BOLB   C4D26976  17.850  21.000   3.220
 1125BOLB   NC126977  11.370  22.920  10.390
 1125BOLB   PO126978  11.110  22.540  10.200
 1125BOLB   GL126979  10.790  22.700  10.030
 1125BOLB   GL226980  10.880  23.160  10.100
 1125BOLB   C1A26981  10.580  22.830   9.650
 1125BOLB   C2A26982  10.240  22.990   9.440
 1125BOLB   C3A26983   9.850  23.280   9.470
 1125BOLB   C4A26984   9.590  23.550   9.610
 1125BOLB   C1B26985  10.490  23.260  10.020
 1125BOLB   C2B26986  10.240  23.450   9.760
 1125BOLB   C3B26987  10.280  23.720   9.370
 1125BOLB   C4B26988   9.850  23.840   9.280
 1125BOLB   NC226989   9.480  26.020   8.940
 1125BOLB   PO226990   9.320  25.960   8.480
 1125BOLB   GL326991   9.290  25.590   8.770
 1125BOLB   GL426992   9.310  25.500   9.080
 1125BOLB   C1C26993   9.300  25.050   8.790
 1125BOLB   C2C26994   9.220  24.710   9.110
 1125BOLB   C3C26995   9.480  24.330   9.380
 1125BOLB   C4C26996   9.390  24.000   9.580
 1125BOLB   C1D26997   9.700  25.320   9.180
 1125BOLB   C2D26998  10.160  25.500   9.270
 1125BOLB   C3D26999  10.450  25.720   8.950
 1125BOLB   C4D27000  10.730  25.700   8.500
 1126BOLB   NC127001  14.960  12.370   5.060
 1126BOLB   PO127002  14.640  12.730   4.910
 1126BOLB   GL127003  14.660  12.430   4.580
 1126BOLB   GL227004  14.720  12.090   4.510
 1126BOLB   C1A27005  14.830  12.490   4.200
 1126BOLB   C2A27006  15.020  12.450   3.810
 1126BOLB   C3A27007  15.260  12.360   3.500
 1126BOLB   C4A27008  15.280  11.930   3.120
 1126BOLB   C1B27009  14.550  11.840   4.170
 1126BOLB   C2B27010  14.220  11.840   4.010
 1126BOLB   C3B27011  14.030  11.470   3.970
 1126BOLB   C4B27012  13.960  11.060   3.860
 1126BOLB   NC227013  15.470  10.450   1.490
 1126BOLB   PO227014  15.240  10.120   1.560
 1126BOLB   GL327015  15.080  10.530   1.830
 1126BOLB   GL427016  15.310  10.660   1.990
 1126BOLB   C1C27017  14.920  10.440   2.260
 1126BOLB   C2C27018  15.130  10.650   2.580
 1126BOLB   C3C27019  15.020  11.020   2.950
 1126BOLB   C4C27020  15.210  11.430   3.110
 1126BOLB   C1D27021  15.300  10.980   2.050
 1126BOLB   C2D27022  15.110  11.130   2.470
 1126BOLB   C3D27023  14.930  11.510   2.610
 1126BOLB   C4D27024  14.970  11.920   2.740
 1127BOLB   NC127025   3.990   8.560  15.610
 1127BOLB   PO127026   3.880   8.480  16.030
 1127BOLB   GL127027   4.400   8.500  16.040
 1127BOLB   GL227028   4.460   8.450  15.760
 1127BOLB   C1A27029   4.790   8.690  16.250
 1127BOLB   C2A27030   5.110   9.070  16.400
 1127BOLB   C3A27031   5.540   9.070  16.200
 1127BOLB   C4A27032   5.580   8.830  15.810
 1127BOLB   C1B27033   4.570   8.850  15.670
 1127BOLB   C2B27034   4.820   9.320  15.530
 1127BOLB   C3B27035   4.850   9.490  15.250
 1127BOLB   C4B27036   5.300   9.620  15.240
 1127BOLB   NC227037   5.620   7.050  16.780
 1127BOLB   PO227038   5.340   7.120  16.490
 1127BOLB   GL327039   5.590   7.480  16.520
 1127BOLB   GL427040   5.790   7.480  16.730
 1127BOLB   C1C27041   5.730   7.670  16.110
 1127BOLB   C2C27042   5.410   7.790  15.860
 1127BOLB   C3C27043   5.280   8.210  15.670
 1127BOLB   C4C27044   5.560   8.460  15.670
 1127BOLB   C1D27045   6.130   7.700  16.520
 1127BOLB   C2D27046   6.130   8.050  16.300
 1127BOLB   C3D27047   6.140   8.230  16.010
 1127BOLB   C4D27048   6.210   8.530  15.730
 1128BOLB   NC127049  12.930  24.020  11.970
 1128BOLB   PO127050  12.820  24.150  11.630
 1128BOLB   GL127051  12.660  24.570  11.590
 1128BOLB   GL227052  12.290  24.420  11.500
 1128BOLB   C1A27053  12.410  24.890  11.540
 1128BOLB   C2A27054  12.370  25.340  11.440
 1128BOLB   C3A27055  12.140  25.550  11.210
 1128BOLB   C4A27056  12.060  25.680  10.890
 1128BOLB   C1B27057  12.060  24.660  11.270
 1128BOLB   C2B27058  11.910  25.100  11.250
 1128BOLB   C3B27059  11.550  25.380  10.990
 1128BOLB   C4B27060  11.590  25.790  10.650
 1128BOLB   NC227061  11.300  27.250   9.500
 1128BOLB   PO227062  10.900  27.350   9.560
 1128BOLB   GL327063  10.870  27.100   9.910
 1128BOLB   GL427064  10.590  27.120  10.240
 1128BOLB   C1C27065  11.060  26.940  10.300
 1128BOLB   C2C27066  11.370  26.680  10.470
 1128BOLB   C3C27067  11.740  26.430  10.530
 1128BOLB   C4C27068  11.940  26.080  10.730
 1128BOLB   C1D27069  10.400  26.830  10.070
 1128BOLB   C2D27070  10.780  26.580   9.900
 1128BOLB   C3D27071  11.080  26.450  10.160
 1128BOLB   C4D27072  11.340  26.140  10.500
 1129BOLB   NC127073  22.760  19.520  15.470
 1129BOLB   PO127074  22.990  19.700  15.140
 1129BOLB   GL127075  23.330  19.900  15.360
 1129BOLB   GL227076  23.430  20.210  15.220
 1129BOLB   C1A27077  23.540  19.990  15.710
 1129BOLB   C2A27078  23.880  20.050  15.860
 1129BOLB   C3A27079  24.230  20.110  16.090
 1129BOLB   C4A27080  24.400  20.280  16.530
 1129BOLB   C1B27081  23.820  20.230  15.350
 1129BOLB   C2B27082  24.300  20.210  15.570
 1129BOLB   C3B27083  24.590  20.070  15.770
 1129BOLB   C4B27084  24.790  19.800  16.130
 1129BOLB   NC227085  26.500  20.730  16.900
 1129BOLB   PO227086  26.640  20.410  17.130
 1129BOLB   GL327087  26.240  20.380  17.190
 1129BOLB   GL427088  26.080  20.080  16.960
 1129BOLB   C1C27089  25.850  20.400  17.330
 1129BOLB   C2C27090  25.520  20.560  17.240
 1129BOLB   C3C27091  25.050  20.620  17.030
 1129BOLB   C4C27092  24.690  20.390  16.830
 1129BOLB   C1D27093  25.720  20.140  16.910
 1129BOLB   C2D27094  25.350  20.270  16.870
 1129BOLB   C3D27095  25.060  20.210  16.590
 1129BOLB   C4D27096  24.910  20.300  16.180
 1130BOLB   NC127097  20.500  23.530   9.250
 1130BOLB   PO127098  20.580  23.240   9.010
 1130BOLB   GL127099  20.660  23.760   8.770
 1130BOLB   GL227100  20.940  23.830   8.450
 1130BOLB   C1A27101  20.530  24.170   8.630
 1130BOLB   C2A27102  20.680  24.410   8.300
 1130BOLB   C3A27103  20.820  24.790   8.240
 1130BOLB   C4A27104  20.750  25.190   8.320
 1130BOLB   C1B27105  21.310  23.790   8.710
 1130BOLB   C2B27106  21.580  24.240   8.600
 1130BOLB   C3B27107  21.770  24.650   8.470
 1130BOLB   C4B27108  21.810  25.000   8.700
 1130BOLB   NC227109  20.500  26.710   7.100
 1130BOLB   PO227110  20.460  26.600   6.660
 1130BOLB   GL327111  20.490  26.220   6.800
 1130BOLB   GL427112  20.770  25.980   6.960
 1130BOLB   C1C27113  20.320  26.160   7.240
 1130BOLB   C2C27114  20.560  25.740   7.380
 1130BOLB   C3C27115  20.730  25.810   7.830
 1130BOLB   C4C27116  20.720  25.580   8.200
 1130BOLB   C1D27117  20.990  25.620   7.350
 1130BOLB   C2D27118  21.210  25.650   7.700
 1130BOLB   C3D27119  21.380  25.520   8.210
 1130BOLB   C4D27120  21.750  25.330   8.350
 1131BOLB   NC127121  12.440   8.990  12.700
 1131BOLB   PO127122  12.390   9.210  12.310
 1131BOLB   GL127123  12.300   8.840  12.170
 1131BOLB   GL227124  12.450   8.670  12.380
 1131BOLB   C1A27125  12.030   8.550  11.970
 1131BOLB   C2A27126  11.890   8.170  12.030
 1131BOLB   C3A27127  11.790   7.680  11.970
 1131BOLB   C4A27128  11.780   7.320  11.720
 1131BOLB   C1B27129  12.110   8.430  12.460
 1131BOLB   C2B27130  11.800   8.170  12.610
 1131BOLB   C3B27131  11.380   7.990  12.820
 1131BOLB   C4B27132  11.260   7.710  13.140
 1131BOLB   NC227133  12.360   5.210  11.920
 1131BOLB   PO227134  12.340   5.350  12.390
 1131BOLB   GL327135  12.600   5.600  12.440
 1131BOLB   GL427136  12.820   5.640  12.730
 1131BOLB   C1C27137  12.630   5.920  12.160
 1131BOLB   C2C27138  12.260   6.160  11.870
 1131BOLB   C3C27139  12.180   6.630  11.800
 1131BOLB   C4C27140  11.870   6.900  11.880
 1131BOLB   C1D27141  12.800   6.050  12.780
 1131BOLB   C2D27142  12.960   6.400  12.980
 1131BOLB   C3D27143  13.230   6.860  12.940
 1131BOLB   C4D27144  13.320   7.340  13.010
 1132BOLB   NC127145  16.170  20.090  20.630
 1132BOLB   PO127146  16.120  20.480  20.720
 1132BOLB   GL127147  15.990  20.550  20.990
 1132BOLB   GL227148  15.740  20.790  20.920
 1132BOLB   C1A27149  16.160  20.730  21.310
 1132BOLB   C2A27150  16.270  20.620  21.700
 1132BOLB   C3A27151  16.480  20.900  21.960
 1132BOLB   C4A27152  16.720  21.210  22.250
 1132BOLB   C1B27153  15.730  21.060  21.300
 1132BOLB   C2B27154  15.870  21.310  21.510
 1132BOLB   C3B27155  16.010  21.640  21.860
 1132BOLB   C4B27156  16.030  22.110  22.090
 1132BOLB   NC227157  18.050  22.570  23.680
 1132BOLB   PO227158  17.590  22.860  23.760
 1132BOLB   GL327159  17.590  22.440  23.610
 1132BOLB   GL427160  17.790  22.260  23.390
 1132BOLB   C1C27161  17.280  22.150  23.430
 1132BOLB   C2C27162  17.040  21.900  23.220
 1132BOLB   C3C27163  16.670  21.820  22.980
 1132BOLB   C4C27164  16.610  21.480  22.610
 1132BOLB   C1D27165  17.630  22.200  23.020
 1132BOLB   C2D27166  17.220  22.170  22.860
 1132BOLB   C3D27167  16.940  22.110  22.590
 1132BOLB   C4D27168  16.810  21.910  22.190
 1133BOLB   NC127169  21.370  12.430   6.930
 1133BOLB   PO127170  21.480  12.430   7.260
 1133BOLB   GL127171  21.790  12.190   7.190
 1133BOLB   GL227172  21.610  11.910   7.110
 1133BOLB   C1A27173  22.110  12.250   6.940
 1133BOLB   C2A27174  22.280  11.990   6.630
 1133BOLB   C3A27175  22.740  11.810   6.490
 1133BOLB   C4A27176  22.890  11.910   6.070
 1133BOLB   C1B27177  21.970  11.730   6.970
 1133BOLB   C2B27178  22.150  11.490   6.520
 1133BOLB   C3B27179  22.120  10.960   6.430
 1133BOLB   C4B27180  22.270  10.710   6.140
 1133BOLB   NC227181  24.650  10.640   5.000
 1133BOLB   PO227182  24.560  10.870   5.410
 1133BOLB   GL327183  24.190  10.870   5.550
 1133BOLB   GL427184  23.910  10.730   5.520
 1133BOLB   C1C27185  24.050  11.280   5.350
 1133BOLB   C2C27186  23.970  11.660   5.490
 1133BOLB   C3C27187  23.710  11.710   5.740
 1133BOLB   C4C27188  23.270  11.680   5.870
 1133BOLB   C1D27189  23.760  11.090   5.720
 1133BOLB   C2D27190  24.040  11.360   5.910
 1133BOLB   C3D27191  24.300  11.710   5.920
 1133BOLB   C4D27192  24.710  11.980   5.840
 1134BOLB   NC127193  11.200  12.810   7.900
 1134BOLB   PO127194  11.010  12.910   7.430
 1134BOLB   GL127195  10.770  12.910   6.970
 1134BOLB   GL227196  10.770  13.130   6.760
 1134BOLB   C1A27197  10.400  12.760   6.590
 1134BOLB   C2A27198  10.010  12.780   6.310
 1134BOLB   C3A27199   9.800  12.760   5.950
 1134BOLB   C4A27200   9.620  12.910   5.590
 1134BOLB   C1B27201  10.580  13.260   6.380
 1134BOLB   C2B27202  10.250  13.180   6.110
 1134BOLB   C3B27203   9.950  13.260   5.790
 1134BOLB   C4B27204   9.780  13.300   5.400
 1134BOLB   NC227205   8.540  11.250   3.790
 1134BOLB   PO227206   8.580  11.490   4.130
 1134BOLB   GL327207   9.010  11.730   4.280
 1134BOLB   GL427208   9.230  11.480   4.420
 1134BOLB   C1C27209   9.240  12.070   4.530
 1134BOLB   C2C27210   9.410  12.430   4.550
 1134BOLB   C3C27211   9.490  12.550   4.940
 1134BOLB   C4C27212   9.760  12.800   5.130
 1134BOLB   C1D27213   9.070  11.620   4.840
 1134BOLB   C2D27214   9.270  11.710   5.240
 1134BOLB   C3D27215   9.580  12.010   5.430
 1134BOLB   C4D27216   9.770  12.410   5.510
 1135BOLB   NC127217  18.570   9.530  11.760
 1135BOLB   PO127218  18.900   9.180  11.950
 1135BOLB   GL127219  19.140   8.830  11.840
 1135BOLB   GL227220  19.130   8.710  11.480
 1135BOLB   C1A27221  19.590   8.650  11.980
 1135BOLB   C2A27222  19.910   8.430  11.980
 1135BOLB   C3A27223  20.040   8.020  12.160
 1135BOLB   C4A27224  20.150   7.620  12.200
 1135BOLB   C1B27225  19.240   8.310  11.720
 1135BOLB   C2B27226  19.590   8.030  11.920
 1135BOLB   C3B27227  19.590   7.840  12.360
 1135BOLB   C4B27228  19.450   7.890  12.780
 1135BOLB   NC227229  21.230   5.840  13.130
 1135BOLB   PO227230  21.280   6.200  13.360
 1135BOLB   GL327231  21.060   6.590  13.460
 1135BOLB   GL427232  21.160   6.950  13.610
 1135BOLB   C1C27233  20.840   6.890  13.210
 1135BOLB   C2C27234  20.710   7.210  12.910
 1135BOLB   C3C27235  20.730   7.080  12.420
 1135BOLB   C4C27236  20.490   7.350  12.120
 1135BOLB   C1D27237  20.970   7.230  13.920
 1135BOLB   C2D27238  20.770   7.640  13.850
 1135BOLB   C3D27239  20.760   8.030  14.020
 1135BOLB   C4D27240  20.810   8.380  13.800
 1136BOLB   NC127241  20.060  18.900  19.220
 1136BOLB   PO127242  19.550  18.660  19.080
 1136BOLB   GL127243  19.870  18.450  19.410
 1136BOLB   GL227244  19.830  18.500  19.750
 1136BOLB   C1A27245  20.300  18.460  19.680
 1136BOLB   C2A27246  20.580  18.560  19.930
 1136BOLB   C3A27247  20.840  18.590  20.210
 1136BOLB   C4A27248  21.040  18.500  20.590
 1136BOLB   C1B27249  19.990  18.310  20.010
 1136BOLB   C2B27250  20.140  18.360  20.340
 1136BOLB   C3B27251  20.380  18.680  20.520
 1136BOLB   C4B27252  20.670  18.740  20.970
 1136BOLB   NC227253  22.790  18.350  22.690
 1136BOLB   PO227254  22.500  18.210  22.660
 1136BOLB   GL327255  22.290  18.360  22.410
 1136BOLB   GL427256  22.010  18.200  22.430
 1136BOLB   C1C27257  22.030  18.490  22.000
 1136BOLB   C2C27258  21.620  18.340  21.710
 1136BOLB   C3C27259  21.500  18.490  21.340
 1136BOLB   C4C27260  21.260  18.680  20.970
 1136BOLB   C1D27261  22.010  18.040  22.090
 1136BOLB   C2D27262  22.110  18.150  21.640
 1136BOLB   C3D27263  22.070  18.160  21.170
 1136BOLB   C4D27264  21.920  18.270  20.750
 1137BOLB   NC127265  11.050  23.280  12.110
 1137BOLB   PO127266  11.210  23.350  12.540
 1137BOLB   GL127267  11.000  23.670  12.350
 1137BOLB   GL227268  11.250  23.810  12.140
 1137BOLB   C1A27269  10.580  23.830  12.240
 1137BOLB   C2A27270  10.420  24.190  12.140
 1137BOLB   C3A27271  10.120  24.300  12.430
 1137BOLB   C4A27272   9.780  24.480  12.480
 1137BOLB   C1B27273  10.890  24.080  11.960
 1137BOLB   C2B27274  10.660  24.370  11.690
 1137BOLB   C3B27275  10.650  24.700  11.440
 1137BOLB   C4B27276  10.630  25.020  11.030
 1137BOLB   NC227277   8.190  26.080  10.950
 1137BOLB   PO227278   8.030  25.780  11.210
 1137BOLB   GL327279   8.450  25.920  11.450
 1137BOLB   GL427280   8.590  26.180  11.320
 1137BOLB   C1C27281   8.700  25.630  11.820
 1137BOLB   C2C27282   9.140  25.390  11.850
 1137BOLB   C3C27283   9.270  25.050  11.840
 1137BOLB   C4C27284   9.440  24.680  12.130
 1137BOLB   C1D27285   9.040  25.910  11.570
 1137BOLB   C2D27286   9.270  25.500  11.400
 1137BOLB   C3D27287   9.580  25.120  11.440
 1137BOLB   C4D27288   9.700  24.720  11.660
 1138BOLB   NC127289   6.510  16.960  25.710
 1138BOLB   PO127290   6.680  17.020  25.300
 1138BOLB   GL127291   6.850  17.050  24.890
 1138BOLB   GL227292   7.230  17.220  24.810
 1138BOLB   C1A27293   6.980  16.930  24.480
 1138BOLB   C2A27294   7.060  16.630  24.140
 1138BOLB   C3A27295   7.000  16.460  23.740
 1138BOLB   C4A27296   6.690  16.260  23.750
 1138BOLB   C1B27297   7.400  17.230  24.400
 1138BOLB   C2B27298   7.230  17.130  24.070
 1138BOLB   C3B27299   7.320  16.890  23.770
 1138BOLB   C4B27300   7.390  16.620  23.410
 1138BOLB   NC227301   5.560  17.110  24.160
 1138BOLB   PO227302   5.830  17.560  24.190
 1138BOLB   GL327303   5.840  17.240  23.770
 1138BOLB   GL427304   5.770  17.430  23.470
 1138BOLB   C1C27305   5.730  16.850  23.460
 1138BOLB   C2C27306   5.830  16.450  23.150
 1138BOLB   C3C27307   6.040  16.080  23.280
 1138BOLB   C4C27308   6.390  16.090  23.570
 1138BOLB   C1D27309   6.160  17.480  23.370
 1138BOLB   C2D27310   6.390  17.490  22.980
 1138BOLB   C3D27311   6.720  17.670  22.790
 1138BOLB   C4D27312   6.770  18.110  22.800
 1139BOLB   NC127313  12.890   7.940   3.650
 1139BOLB   PO127314  12.650   8.250   3.720
 1139BOLB   GL127315  12.820   8.530   3.960
 1139BOLB   GL227316  12.590   8.810   3.980
 1139BOLB   C1A27317  13.310   8.490   4.120
 1139BOLB   C2A27318  13.610   8.690   4.390
 1139BOLB   C3A27319  13.990   8.830   4.720
 1139BOLB   C4A27320  14.340   9.130   4.770
 1139BOLB   C1B27321  12.660   9.100   4.380
 1139BOLB   C2B27322  13.030   9.200   4.620
 1139BOLB   C3B27323  13.120   9.710   4.880
 1139BOLB   C4B27324  13.140   9.780   5.230
 1139BOLB   NC227325  15.400  11.330   5.710
 1139BOLB   PO227326  15.580  11.030   6.060
 1139BOLB   GL327327  15.550  10.730   5.710
 1139BOLB   GL427328  15.750  10.610   5.540
 1139BOLB   C1C27329  15.260  10.320   5.500
 1139BOLB   C2C27330  15.190  10.000   5.370
 1139BOLB   C3C27331  14.810   9.810   5.110
 1139BOLB   C4C27332  14.610   9.600   4.810
 1139BOLB   C1D27333  15.650  10.370   5.190
 1139BOLB   C2D27334  15.480   9.990   4.950
 1139BOLB   C3D27335  15.230   9.810   4.710
 1139BOLB   C4D27336  14.950   9.640   4.420
 1140BOLB   NC127337  16.280  25.310  13.450
 1140BOLB   PO127338  16.060  25.540  13.720
 1140BOLB   GL127339  15.850  25.830  13.830
 1140BOLB   GL227340  15.620  25.770  13.620
 1140BOLB   C1A27341  15.860  26.270  13.850
 1140BOLB   C2A27342  15.930  26.810  13.940
 1140BOLB   C3A27343  15.950  27.290  14.160
 1140BOLB   C4A27344  16.200  27.450  14.400
 1140BOLB   C1B27345  15.570  26.150  13.480
 1140BOLB   C2B27346  15.530  26.560  13.450
 1140BOLB   C3B27347  15.540  27.050  13.650
 1140BOLB   C4B27348  15.560  27.320  13.360
 1140BOLB   NC227349  16.850  29.640  14.440
 1140BOLB   PO227350  16.450  29.670  14.170
 1140BOLB   GL327351  16.550  29.250  14.130
 1140BOLB   GL427352  16.580  29.110  13.880
 1140BOLB   C1C27353  16.670  28.900  14.390
 1140BOLB   C2C27354  16.910  28.560  14.460
 1140BOLB   C3C27355  16.960  28.130  14.280
 1140BOLB   C4C27356  16.550  27.760  14.340
 1140BOLB   C1D27357  16.480  28.610  13.920
 1140BOLB   C2D27358  16.500  28.340  14.160
 1140BOLB   C3D27359  16.140  28.080  14.220
 1140BOLB   C4D27360  15.820  27.730  14.310
 1141BOLB   NC127361  23.570  14.660  11.140
 1141BOLB   PO127362  23.840  14.660  10.800
 1141BOLB   GL127363  24.250  14.570  10.880
 1141BOLB   GL227364  24.250  14.210  10.870
 1141BOLB   C1A27365  24.630  14.640  10.780
 1141BOLB   C2A27366  25.120  14.720  10.810
 1141BOLB   C3A27367  25.520  14.830  10.630
 1141BOLB   C4A27368  25.820  14.630  10.440
 1141BOLB   C1B27369  24.620  14.140  10.820
 1141BOLB   C2B27370  25.100  14.140  10.880
 1141BOLB   C3B27371  25.470  14.380  10.840
 1141BOLB   C4B27372  25.870  14.540  10.990
 1141BOLB   NC227373  27.600  12.890   9.690
 1141BOLB   PO227374  27.550  13.020  10.070
 1141BOLB   GL327375  27.230  13.270  10.210
 1141BOLB   GL427376  27.170  13.230  10.610
 1141BOLB   C1C27377  26.990  13.620  10.030
 1141BOLB   C2C27378  26.970  14.030  10.020
 1141BOLB   C3C27379  26.590  14.280   9.940
 1141BOLB   C4C27380  26.110  14.430  10.070
 1141BOLB   C1D27381  26.770  13.270  10.860
 1141BOLB   C2D27382  26.470  13.040  11.030
 1141BOLB   C3D27383  26.200  13.130  11.420
 1141BOLB   C4D27384  26.070  13.460  11.720
 1142BOLB   NC127385  11.810  11.470   8.350
 1142BOLB   PO127386  11.510  11.060   8.300
 1142BOLB   GL127387  11.310  10.800   7.990
 1142BOLB   GL227388  10.980  10.860   7.890
 1142BOLB   C1A27389  11.310  10.390   7.930
 1142BOLB   C2A27390  11.320   9.920   7.950
 1142BOLB   C3A27391  11.000   9.640   7.770
 1142BOLB   C4A27392  10.590   9.620   7.750
 1142BOLB   C1B27393  11.030  10.580   7.500
 1142BOLB   C2B27394  11.140  10.160   7.560
 1142BOLB   C3B27395  10.950   9.760   7.320
 1142BOLB   C4B27396  10.930   9.270   7.040
 1142BOLB   NC227397   9.330   7.010   7.520
 1142BOLB   PO227398   9.750   7.270   7.650
 1142BOLB   GL327399   9.750   7.790   7.540
 1142BOLB   GL427400  10.040   7.850   7.660
 1142BOLB   C1C27401   9.800   8.250   7.520
 1142BOLB   C2C27402   9.830   8.660   7.710
 1142BOLB   C3C27403   9.990   9.100   7.610
 1142BOLB   C4C27404  10.280   9.250   7.880
 1142BOLB   C1D27405  10.290   8.240   7.700
 1142BOLB   C2D27406  10.590   8.360   7.960
 1142BOLB   C3D27407  11.020   8.340   8.080
 1142BOLB   C4D27408  11.240   8.620   7.850
 1143BOLB   NC127409  15.220  18.140   4.310
 1143BOLB   PO127410  15.260  18.640   4.190
 1143BOLB   GL127411  15.500  18.640   3.880
 1143BOLB   GL227412  15.270  18.750   3.660
 1143BOLB   C1A27413  15.690  18.740   3.450
 1143BOLB   C2A27414  15.870  18.850   3.120
 1143BOLB   C3A27415  15.840  18.940   2.680
 1143BOLB   C4A27416  15.930  19.120   2.280
 1143BOLB   C1B27417  14.950  18.990   3.530
 1143BOLB   C2B27418  14.960  19.220   3.230
 1143BOLB   C3B27419  15.130  19.540   2.910
 1143BOLB   C4B27420  15.240  19.840   2.600
 1143BOLB   NC227421  16.670  20.010  31.390
 1143BOLB   PO227422  17.060  20.100   0.290
 1143BOLB   GL327423  16.920  20.060   0.660
 1143BOLB   GL427424  16.920  19.790   0.650
 1143BOLB   C1C27425  16.730  20.050   1.040
 1143BOLB   C2C27426  16.370  19.950   1.290
 1143BOLB   C3C27427  16.090  19.770   1.640
 1143BOLB   C4C27428  15.960  19.570   2.050
 1143BOLB   C1D27429  17.000  19.660   1.070
 1143BOLB   C2D27430  17.190  19.460   1.350
 1143BOLB   C3D27431  17.060  19.460   1.740
 1143BOLB   C4D27432  17.300  19.500   2.070
 1144BOLB   NC127433  10.380  21.450   9.390
 1144BOLB   PO127434  10.290  21.710   9.720
 1144BOLB   GL127435  10.170  21.910   9.370
 1144BOLB   GL227436   9.840  22.080   9.550
 1144BOLB   C1A27437   9.980  22.290   9.080
 1144BOLB   C2A27438  10.210  22.650   9.040
 1144BOLB   C3A27439  10.160  23.150   8.910
 1144BOLB   C4A27440  10.140  23.660   8.950
 1144BOLB   C1B27441   9.710  22.480   9.900
 1144BOLB   C2B27442   9.420  22.620  10.090
 1144BOLB   C3B27443   9.180  22.860  10.260
 1144BOLB   C4B27444   8.880  23.160  10.380
 1144BOLB   NC227445   8.700  25.220   7.950
 1144BOLB   PO227446   9.130  25.390   8.170
 1144BOLB   GL327447   9.260  24.850   8.180
 1144BOLB   GL427448   9.220  24.630   8.480
 1144BOLB   C1C27449   9.710  24.840   8.360
 1144BOLB   C2C27450   9.990  24.530   8.430
 1144BOLB   C3C27451  10.300  24.210   8.520
 1144BOLB   C4C27452  10.200  23.910   8.590
 1144BOLB   C1D27453   9.460  24.330   8.400
 1144BOLB   C2D27454   9.790  24.030   8.460
 1144BOLB   C3D27455   9.710  23.660   8.670
 1144BOLB   C4D27456   9.650  23.400   9.070
 1145BOLB   NC127457   8.630  20.260  13.560
 1145BOLB   PO127458   8.570  20.650  13.450
 1145BOLB   GL127459   8.190  20.750  13.430
 1145BOLB   GL227460   8.110  20.920  13.200
 1145BOLB   C1A27461   7.810  20.610  13.400
 1145BOLB   C2A27462   7.340  20.770  13.350
 1145BOLB   C3A27463   6.960  20.760  13.280
 1145BOLB   C4A27464   6.620  20.850  13.330
 1145BOLB   C1B27465   7.790  21.120  13.410
 1145BOLB   C2B27466   7.340  21.230  13.580
 1145BOLB   C3B27467   6.990  21.000  13.730
 1145BOLB   C4B27468   6.550  21.210  13.760
 1145BOLB   NC227469   4.580  22.590  12.810
 1145BOLB   PO227470   4.940  22.620  12.530
 1145BOLB   GL327471   5.230  22.500  12.740
 1145BOLB   GL427472   5.460  22.630  13.060
 1145BOLB   C1C27473   5.650  22.290  12.820
 1145BOLB   C2C27474   5.890  22.090  13.000
 1145BOLB   C3C27475   6.100  21.670  13.100
 1145BOLB   C4C27476   6.470  21.180  13.110
 1145BOLB   C1D27477   5.760  22.450  13.320
 1145BOLB   C2D27478   6.160  22.220  13.420
 1145BOLB   C3D27479   6.460  21.860  13.470
 1145BOLB   C4D27480   6.630  21.600  13.280
 1146BOLB   NC127481  15.420   9.040  11.630
 1146BOLB   PO127482  15.610   8.870  12.070
 1146BOLB   GL127483  15.400   8.560  11.970
 1146BOLB   GL227484  15.210   8.590  11.730
 1146BOLB   C1A27485  15.250   8.150  11.930
 1146BOLB   C2A27486  15.110   7.730  11.690
 1146BOLB   C3A27487  14.900   7.460  11.450
 1146BOLB   C4A27488  14.660   7.130  11.420
 1146BOLB   C1B27489  14.870   8.280  11.410
 1146BOLB   C2B27490  14.700   8.120  11.060
 1146BOLB   C3B27491  14.540   7.850  10.800
 1146BOLB   C4B27492  14.430   7.510  10.600
 1146BOLB   NC227493  14.660   4.630  11.010
 1146BOLB   PO227494  14.340   5.020  11.070
 1146BOLB   GL327495  14.060   5.210  11.350
 1146BOLB   GL427496  14.070   5.020  11.560
 1146BOLB   C1C27497  14.020   5.590  11.290
 1146BOLB   C2C27498  14.050   6.000  11.440
 1146BOLB   C3C27499  14.220   6.450  11.380
 1146BOLB   C4C27500  14.660   6.700  11.310
 1146BOLB   C1D27501  14.140   5.390  11.770
 1146BOLB   C2D27502  14.100   5.700  11.940
 1146BOLB   C3D27503  14.060   6.150  12.140
 1146BOLB   C4D27504  14.120   6.620  12.130
 1147BOLB   NC127505  12.610  23.960  12.460
 1147BOLB   PO127506  12.310  23.780  12.690
 1147BOLB   GL127507  12.420  24.190  12.830
 1147BOLB   GL227508  12.260  24.270  12.460
 1147BOLB   C1A27509  12.100  24.530  12.890
 1147BOLB   C2A27510  11.850  24.960  12.760
 1147BOLB   C3A27511  11.580  25.160  12.620
 1147BOLB   C4A27512  11.330  25.520  12.470
 1147BOLB   C1B27513  11.940  24.440  12.430
 1147BOLB   C2B27514  11.750  24.650  12.200
 1147BOLB   C3B27515  11.370  24.920  12.170
 1147BOLB   C4B27516  11.080  25.150  12.180
 1147BOLB   NC227517   9.720  27.390  13.060
 1147BOLB   PO227518  10.070  27.510  12.800
 1147BOLB   GL327519  10.160  27.190  12.600
 1147BOLB   GL427520   9.930  26.990  12.460
 1147BOLB   C1C27521  10.490  26.950  12.430
 1147BOLB   C2C27522  10.690  26.710  12.200
 1147BOLB   C3C27523  10.900  26.350  12.420
 1147BOLB   C4C27524  11.200  25.980  12.480
 1147BOLB   C1D27525  10.060  26.570  12.360
 1147BOLB   C2D27526  10.330  26.250  12.310
 1147BOLB   C3D27527  10.390  25.860  12.300
 1147BOLB   C4D27528  10.730  25.480  12.330
 1148BOLB   NC127529   9.240  20.630  12.060
 1148BOLB   PO127530   9.070  20.970  12.450
 1148BOLB   GL127531   8.670  21.310  12.190
 1148BOLB   GL227532   8.590  21.520  12.460
 1148BOLB   C1A27533   8.520  21.540  11.880
 1148BOLB   C2A27534   8.230  21.660  11.740
 1148BOLB   C3A27535   8.060  22.040  11.780
 1148BOLB   C4A27536   7.970  22.390  11.910
 1148BOLB   C1B27537   8.280  21.720  12.270
 1148BOLB   C2B27538   7.860  22.010  12.250
 1148BOLB   C3B27539   7.450  22.160  12.090
 1148BOLB   C4B27540   7.140  22.360  11.950
 1148BOLB   NC227541   6.040  23.880  11.680
 1148BOLB   PO227542   5.980  23.490  11.460
 1148BOLB   GL327543   6.330  23.480  11.660
 1148BOLB   GL427544   6.570  23.660  11.690
 1148BOLB   C1C27545   6.470  23.130  11.870
 1148BOLB   C2C27546   6.750  22.830  11.710
 1148BOLB   C3C27547   7.220  22.830  11.690
 1148BOLB   C4C27548   7.630  22.680  11.710
 1148BOLB   C1D27549   6.870  23.540  11.670
 1148BOLB   C2D27550   6.990  23.270  11.880
 1148BOLB   C3D27551   6.880  23.060  12.250
 1148BOLB   C4D27552   6.770  23.020  12.680
 1149BOLB   NC127553  12.250  10.060   9.450
 1149BOLB   PO127554  11.860  10.170   9.590
 1149BOLB   GL127555  11.740  10.070   9.180
 1149BOLB   GL227556  11.400  10.190   9.310
 1149BOLB   C1A27557  11.760   9.810   8.800
 1149BOLB   C2A27558  11.650   9.410   8.560
 1149BOLB   C3A27559  11.350   9.140   8.640
 1149BOLB   C4A27560  11.020   9.030   8.340
 1149BOLB   C1B27561  11.140   9.840   9.330
 1149BOLB   C2B27562  10.870   9.600   9.020
 1149BOLB   C3B27563  10.520   9.410   9.040
 1149BOLB   C4B27564  10.280   9.190   9.030
 1149BOLB   NC227565   9.390   7.540   7.820
 1149BOLB   PO227566   9.090   7.780   7.760
 1149BOLB   GL327567   9.370   8.080   8.070
 1149BOLB   GL427568   9.430   8.380   7.960
 1149BOLB   C1C27569   9.800   8.130   7.990
 1149BOLB   C2C27570  10.150   8.410   8.230
 1149BOLB   C3C27571  10.440   8.470   8.550
 1149BOLB   C4C27572  10.760   8.620   8.420
 1149BOLB   C1D27573   9.650   8.510   8.280
 1149BOLB   C2D27574   9.910   8.810   8.250
 1149BOLB   C3D27575   9.780   9.220   8.160
 1149BOLB   C4D27576   9.310   9.400   8.150
 1150BOLB   NC127577  21.280  10.700  11.050
 1150BOLB   PO127578  20.990  10.610  10.800
 1150BOLB   GL127579  21.270  10.250  10.760
 1150BOLB   GL227580  21.610  10.420  10.860
 1150BOLB   C1A27581  21.330   9.840  10.690
 1150BOLB   C2A27582  21.210   9.490  10.740
 1150BOLB   C3A27583  21.510   9.090  10.840
 1150BOLB   C4A27584  21.570   8.740  10.710
 1150BOLB   C1B27585  21.820  10.070  10.830
 1150BOLB   C2B27586  22.240   9.810  10.960
 1150BOLB   C3B27587  22.340   9.760  11.400
 1150BOLB   C4B27588  22.020   9.700  11.760
 1150BOLB   NC227589  23.050   6.430   9.950
 1150BOLB   PO227590  22.960   6.890   9.990
 1150BOLB   GL327591  22.640   7.040  10.240
 1150BOLB   GL427592  22.230   6.840  10.350
 1150BOLB   C1C27593  22.390   7.390  10.390
 1150BOLB   C2C27594  22.190   7.750  10.360
 1150BOLB   C3C27595  21.940   8.120  10.280
 1150BOLB   C4C27596  21.700   8.380  10.590
 1150BOLB   C1D27597  22.010   7.100  10.150
 1150BOLB   C2D27598  22.140   7.540   9.920
 1150BOLB   C3D27599  22.240   7.990   9.900
 1150BOLB   C4D27600  22.100   8.340   9.830
 1151BOLB   NC127601  18.840   9.350  12.530
 1151BOLB   PO127602  19.280   9.410  12.170
 1151BOLB   GL127603  19.660   9.170  11.990
 1151BOLB   GL227604  19.720   9.050  12.320
 1151BOLB   C1A27605  20.080   8.890  11.970
 1151BOLB   C2A27606  20.330   8.500  12.090
 1151BOLB   C3A27607  20.810   8.310  12.110
 1151BOLB   C4A27608  21.230   8.380  12.180
 1151BOLB   C1B27609  20.000   8.740  12.450
 1151BOLB   C2B27610  20.210   8.360  12.620
 1151BOLB   C3B27611  20.470   7.960  12.510
 1151BOLB   C4B27612  20.670   7.630  12.600
 1151BOLB   NC227613  24.110   7.390  12.230
 1151BOLB   PO227614  23.590   7.510  12.070
 1151BOLB   GL327615  23.190   7.670  12.050
 1151BOLB   GL427616  23.180   8.020  12.040
 1151BOLB   C1C27617  22.710   7.670  12.090
 1151BOLB   C2C27618  22.330   7.770  12.360
 1151BOLB   C3C27619  21.920   7.770  12.190
 1151BOLB   C4C27620  21.530   8.000  12.150
 1151BOLB   C1D27621  23.490   8.250  12.220
 1151BOLB   C2D27622  23.590   8.570  12.590
 1151BOLB   C3D27623  23.360   8.950  12.700
 1151BOLB   C4D27624  22.920   8.930  12.780
 1152BOLB   NC127625  10.320  13.990   7.040
 1152BOLB   PO127626  10.160  14.410   7.010
 1152BOLB   GL127627   9.830  14.510   6.670
 1152BOLB   GL227628   9.880  14.810   6.690
 1152BOLB   C1A27629   9.380  14.500   6.460
 1152BOLB   C2A27630   9.050  14.510   6.230
 1152BOLB   C3A27631   8.800  14.410   5.930
 1152BOLB   C4A27632   8.680  14.270   5.480
 1152BOLB   C1B27633   9.670  14.890   6.380
 1152BOLB   C2B27634   9.320  14.970   6.210
 1152BOLB   C3B27635   9.120  15.380   6.280
 1152BOLB   C4B27636   8.760  15.580   6.240
 1152BOLB   NC227637   7.270  11.780   4.600
 1152BOLB   PO227638   7.550  12.150   4.680
 1152BOLB   GL327639   7.870  12.400   4.890
 1152BOLB   GL427640   7.970  12.320   5.210
 1152BOLB   C1C27641   8.070  12.770   4.920
 1152BOLB   C2C27642   8.090  13.100   5.270
 1152BOLB   C3C27643   8.190  13.510   5.190
 1152BOLB   C4C27644   8.550  13.840   5.290
 1152BOLB   C1D27645   8.120  12.660   5.430
 1152BOLB   C2D27646   8.320  12.960   5.810
 1152BOLB   C3D27647   8.230  12.900   6.190
 1152BOLB   C4D27648   8.400  13.090   6.500
 1153BOLB   NC127649  16.490  22.540  18.490
 1153BOLB   PO127650  16.170  22.710  18.780
 1153BOLB   GL127651  16.320  22.890  19.160
 1153BOLB   GL227652  16.320  23.210  19.260
 1153BOLB   C1A27653  16.510  22.840  19.610
 1153BOLB   C2A27654  16.540  22.950  20.030
 1153BOLB   C3A27655  16.590  23.070  20.490
 1153BOLB   C4A27656  16.830  23.250  20.770
 1153BOLB   C1B27657  16.400  23.570  19.360
 1153BOLB   C2B27658  16.320  23.680  19.730
 1153BOLB   C3B27659  15.970  23.850  20.000
 1153BOLB   C4B27660  15.610  23.970  20.200
 1153BOLB   NC227661  17.470  25.030  22.510
 1153BOLB   PO227662  17.250  24.690  22.400
 1153BOLB   GL327663  17.240  24.210  22.200
 1153BOLB   GL427664  17.350  23.920  22.320
 1153BOLB   C1C27665  16.940  23.960  21.980
 1153BOLB   C2C27666  16.710  23.610  21.940
 1153BOLB   C3C27667  16.620  23.500  21.530
 1153BOLB   C4C27668  16.780  23.540  21.150
 1153BOLB   C1D27669  17.350  23.600  22.030
 1153BOLB   C2D27670  17.590  23.110  21.800
 1153BOLB   C3D27671  17.700  22.740  21.680
 1153BOLB   C4D27672  17.430  22.570  21.240
 1154BOLB   NC127673   9.280  24.480  25.240
 1154BOLB   PO127674   9.360  24.500  24.720
 1154BOLB   GL127675   9.520  24.410  24.370
 1154BOLB   GL227676   9.760  24.110  24.380
 1154BOLB   C1A27677   9.640  24.250  23.920
 1154BOLB   C2A27678   9.740  24.090  23.460
 1154BOLB   C3A27679  10.170  24.140  23.360
 1154BOLB   C4A27680  10.610  24.160  23.580
 1154BOLB   C1B27681   9.850  23.810  24.130
 1154BOLB   C2B27682   9.950  23.370  24.020
 1154BOLB   C3B27683  10.080  22.960  23.990
 1154BOLB   C4B27684  10.360  22.650  24.020
 1154BOLB   NC227685  12.180  24.790  24.950
 1154BOLB   PO227686  12.260  25.110  24.690
 1154BOLB   GL327687  12.100  24.830  24.440
 1154BOLB   GL427688  11.920  25.070  24.240
 1154BOLB   C1C27689  12.050  24.410  24.400
 1154BOLB   C2C27690  11.850  24.250  24.040
 1154BOLB   C3C27691  11.450  24.150  23.820
 1154BOLB   C4C27692  10.980  24.140  23.850
 1154BOLB   C1D27693  12.020  24.700  23.920
 1154BOLB   C2D27694  12.340  24.370  23.920
 1154BOLB   C3D27695  12.700  24.190  24.070
 1154BOLB   C4D27696  12.790  23.750  24.090
 1155BOLB   NC127697   8.450   4.930  18.130
 1155BOLB   PO127698   8.220   5.360  18.060
 1155BOLB   GL127699   8.310   5.730  17.830
 1155BOLB   GL227700   8.100   5.810  17.500
 1155BOLB   C1A27701   8.320   6.180  17.690
 1155BOLB   C2A27702   8.400   6.590  17.640
 1155BOLB   C3A27703   8.770   6.840  17.560
 1155BOLB   C4A27704   9.200   6.760  17.530
 1155BOLB   C1B27705   8.110   6.060  17.170
 1155BOLB   C2B27706   8.240   6.200  16.750
 1155BOLB   C3B27707   8.380   6.500  16.470
 1155BOLB   C4B27708   8.270   6.830  16.180
 1155BOLB   NC227709  10.920   5.380  15.900
 1155BOLB   PO227710  10.580   5.480  15.950
 1155BOLB   GL327711  10.500   5.870  16.190
 1155BOLB   GL427712  10.230   6.030  15.950
 1155BOLB   C1C27713  10.220   6.160  16.540
 1155BOLB   C2C27714  10.100   6.320  16.890
 1155BOLB   C3C27715   9.910   6.530  17.150
 1155BOLB   C4C27716   9.510   6.470  17.430
 1155BOLB   C1D27717  10.260   6.470  16.020
 1155BOLB   C2D27718  10.140   6.770  15.810
 1155BOLB   C3D27719  10.160   7.150  15.500
 1155BOLB   C4D27720  10.330   7.420  15.240
 1156BOLB   NC127721  23.630  18.000  13.680
 1156BOLB   PO127722  23.730  17.650  13.960
 1156BOLB   GL127723  24.040  17.890  14.020
 1156BOLB   GL227724  24.180  18.040  13.780
 1156BOLB   C1A27725  24.420  17.840  14.190
 1156BOLB   C2A27726  24.880  17.810  14.240
 1156BOLB   C3A27727  25.290  17.820  14.270
 1156BOLB   C4A27728  25.650  17.700  14.370
 1156BOLB   C1B27729  24.640  18.070  13.820
 1156BOLB   C2B27730  25.080  18.180  13.860
 1156BOLB   C3B27731  25.360  18.460  13.830
 1156BOLB   C4B27732  25.760  18.560  13.830
 1156BOLB   NC227733  27.690  17.510  15.680
 1156BOLB   PO227734  27.740  17.770  15.300
 1156BOLB   GL327735  27.430  17.840  15.200
 1156BOLB   GL427736  27.340  17.870  14.830
 1156BOLB   C1C27737  26.930  17.870  15.210
 1156BOLB   C2C27738  26.650  17.840  15.010
 1156BOLB   C3C27739  26.360  17.560  14.800
 1156BOLB   C4C27740  26.040  17.520  14.480
 1156BOLB   C1D27741  26.960  17.840  14.690
 1156BOLB   C2D27742  26.620  17.650  14.400
 1156BOLB   C3D27743  26.310  17.850  14.150
 1156BOLB   C4D27744  25.920  17.630  13.960
 1157BOLB   NC127745  21.970  11.580  12.230
 1157BOLB   PO127746  22.300  11.680  11.980
 1157BOLB   GL127747  22.690  11.510  11.810
 1157BOLB   GL227748  22.500  11.220  11.830
 1157BOLB   C1A27749  23.100  11.400  11.950
 1157BOLB   C2A27750  23.470  11.340  11.960
 1157BOLB   C3A27751  23.780  11.320  12.060
 1157BOLB   C4A27752  24.060  11.150  12.380
 1157BOLB   C1B27753  22.710  10.830  11.950
 1157BOLB   C2B27754  23.020  10.510  11.850
 1157BOLB   C3B27755  23.550  10.330  11.800
 1157BOLB   C4B27756  23.940  10.440  11.860
 1157BOLB   NC227757  25.920  10.110  13.540
 1157BOLB   PO227758  25.910  10.310  13.150
 1157BOLB   GL327759  25.680  10.130  12.980
 1157BOLB   GL427760  25.440  10.030  13.260
 1157BOLB   C1C27761  25.380  10.160  12.660
 1157BOLB   C2C27762  24.960  10.230  12.760
 1157BOLB   C3C27763  24.660  10.510  12.730
 1157BOLB   C4C27764  24.380  10.820  12.620
 1157BOLB   C1D27765  25.220  10.360  13.220
 1157BOLB   C2D27766  25.160  10.780  13.490
 1157BOLB   C3D27767  25.200  11.190  13.530
 1157BOLB   C4D27768  25.370  11.530  13.790
 1158BOLB   NC127769  23.310  15.020  14.130
 1158BOLB   PO127770  23.430  15.320  13.820
 1158BOLB   GL127771  23.960  15.200  13.980
 1158BOLB   GL227772  23.890  14.950  14.270
 1158BOLB   C1A27773  24.380  14.940  14.150
 1158BOLB   C2A27774  24.660  15.170  14.400
 1158BOLB   C3A27775  25.110  15.220  14.330
 1158BOLB   C4A27776  25.560  15.000  14.510
 1158BOLB   C1B27777  24.180  14.820  14.590
 1158BOLB   C2B27778  24.150  14.620  15.030
 1158BOLB   C3B27779  24.390  14.300  15.180
 1158BOLB   C4B27780  24.740  14.290  15.570
 1158BOLB   NC227781  27.730  14.660  15.740
 1158BOLB   PO227782  27.710  14.350  15.460
 1158BOLB   GL327783  27.250  14.560  15.360
 1158BOLB   GL427784  27.270  14.560  15.030
 1158BOLB   C1C27785  26.750  14.480  15.160
 1158BOLB   C2C27786  26.510  14.440  14.910
 1158BOLB   C3C27787  26.360  14.630  14.590
 1158BOLB   C4C27788  26.010  14.730  14.360
 1158BOLB   C1D27789  26.930  14.520  14.740
 1158BOLB   C2D27790  26.830  14.650  14.370
 1158BOLB   C3D27791  26.550  14.850  14.200
 1158BOLB   C4D27792  26.220  14.820  13.890
 1159BOLB   NC127793  10.450  15.180   7.330
 1159BOLB   PO127794  10.220  14.770   7.360
 1159BOLB   GL127795   9.730  14.670   7.180
 1159BOLB   GL227796   9.540  15.000   7.080
 1159BOLB   C1A27797   9.350  14.490   6.960
 1159BOLB   C2A27798   8.980  14.520   6.800
 1159BOLB   C3A27799   8.690  14.300   6.580
 1159BOLB   C4A27800   8.320  14.160   6.440
 1159BOLB   C1B27801   9.250  14.950   6.730
 1159BOLB   C2B27802   8.820  14.950   6.570
 1159BOLB   C3B27803   8.570  14.740   6.300
 1159BOLB   C4B27804   8.390  14.740   5.800
 1159BOLB   NC227805   7.590  13.270   4.000
 1159BOLB   PO227806   7.330  13.350   4.340
 1159BOLB   GL327807   7.640  13.660   4.440
 1159BOLB   GL427808   7.730  13.950   4.400
 1159BOLB   C1C27809   7.800  13.790   4.830
 1159BOLB   C2C27810   8.100  13.990   5.080
 1159BOLB   C3C27811   8.230  14.150   5.550
 1159BOLB   C4C27812   8.200  14.300   6.010
 1159BOLB   C1D27813   7.690  14.290   4.670
 1159BOLB   C2D27814   7.900  14.470   5.040
 1159BOLB   C3D27815   7.940  14.730   5.390
 1159BOLB   C4D27816   8.350  14.600   5.350
 1160BOLB   NC127817   9.380  14.980   7.980
 1160BOLB   PO127818   9.330  14.750   8.360
 1160BOLB   GL127819   9.010  14.580   8.040
 1160BOLB   GL227820   8.700  14.480   8.160
 1160BOLB   C1A27821   8.920  14.370   7.670
 1160BOLB   C2A27822   8.640  14.280   7.400
 1160BOLB   C3A27823   8.400  14.420   7.010
 1160BOLB   C4A27824   7.960  14.290   6.760
 1160BOLB   C1B27825   8.310  14.770   8.200
 1160BOLB   C2B27826   7.890  14.610   8.270
 1160BOLB   C3B27827   7.530  14.790   8.150
 1160BOLB   C4B27828   7.190  15.070   7.930
 1160BOLB   NC227829   6.430  14.700   4.480
 1160BOLB   PO227830   6.430  14.900   4.790
 1160BOLB   GL327831   6.700  14.770   5.220
 1160BOLB   GL427832   6.980  14.630   5.110
 1160BOLB   C1C27833   6.930  14.780   5.630
 1160BOLB   C2C27834   7.250  14.470   5.780
 1160BOLB   C3C27835   7.520  14.440   6.170
 1160BOLB   C4C27836   7.820  14.170   6.390
 1160BOLB   C1D27837   7.350  14.400   5.190
 1160BOLB   C2D27838   7.660  14.340   5.550
 1160BOLB   C3D27839   7.730  14.110   5.870
 1160BOLB   C4D27840   8.090  13.840   5.910
 1161BOLB   NC127841  13.480  13.060   4.830
 1161BOLB   PO127842  13.910  13.100   4.610
 1161BOLB   GL127843  13.840  12.790   4.270
 1161BOLB   GL227844  13.910  12.460   4.360
 1161BOLB   C1A27845  13.680  12.640   3.960
 1161BOLB   C2A27846  13.870  12.310   3.830
 1161BOLB   C3A27847  13.810  11.960   3.690
 1161BOLB   C4A27848  13.780  11.670   3.490
 1161BOLB   C1B27849  14.290  12.510   4.070
 1161BOLB   C2B27850  14.560  12.210   3.790
 1161BOLB   C3B27851  14.780  12.280   3.350
 1161BOLB   C4B27852  14.600  12.060   3.030
 1161BOLB   NC227853  13.140  10.560   1.650
 1161BOLB   PO227854  12.690  10.800   1.850
 1161BOLB   GL327855  12.680  10.710   2.260
 1161BOLB   GL427856  12.540  10.940   2.390
 1161BOLB   C1C27857  12.830  10.630   2.700
 1161BOLB   C2C27858  12.930  10.750   3.180
 1161BOLB   C3C27859  13.090  11.030   3.570
 1161BOLB   C4C27860  13.510  11.220   3.610
 1161BOLB   C1D27861  12.640  11.380   2.460
 1161BOLB   C2D27862  12.540  11.640   2.810
 1161BOLB   C3D27863  12.280  11.860   3.030
 1161BOLB   C4D27864  12.170  12.160   3.420
 1162BOLB   NC127865  14.550  19.060   4.800
 1162BOLB   PO127866  14.590  19.450   5.170
 1162BOLB   GL127867  14.320  19.460   4.680
 1162BOLB   GL227868  14.690  19.460   4.430
 1162BOLB   C1A27869  14.220  19.640   4.340
 1162BOLB   C2A27870  14.240  19.930   3.920
 1162BOLB   C3A27871  14.190  20.170   3.560
 1162BOLB   C4A27872  14.260  20.340   3.240
 1162BOLB   C1B27873  14.680  19.780   4.140
 1162BOLB   C2B27874  14.660  20.210   3.830
 1162BOLB   C3B27875  14.300  20.550   3.860
 1162BOLB   C4B27876  13.960  20.570   3.660
 1162BOLB   NC227877  14.350  20.600   1.160
 1162BOLB   PO227878  14.550  20.910   1.000
 1162BOLB   GL327879  14.660  20.900   1.420
 1162BOLB   GL427880  14.760  20.610   1.420
 1162BOLB   C1C27881  14.740  20.950   1.840
 1162BOLB   C2C27882  14.720  20.590   2.130
 1162BOLB   C3C27883  14.690  20.590   2.540
 1162BOLB   C4C27884  14.480  20.440   2.910
 1162BOLB   C1D27885  15.040  20.510   1.750
 1162BOLB   C2D27886  15.120  20.300   2.220
 1162BOLB   C3D27887  15.460  20.210   2.340
 1162BOLB   C4D27888  15.830  20.010   2.320
 1163BOLB   NC127889  10.040   5.070  17.360
 1163BOLB   PO127890  10.300   4.970  17.040
 1163BOLB   GL127891  10.240   5.400  16.850
 1163BOLB   GL227892  10.560   5.500  16.760
 1163BOLB   C1A27893   9.870   5.670  16.800
 1163BOLB   C2A27894   9.660   6.010  16.980
 1163BOLB   C3A27895   9.390   6.300  16.800
 1163BOLB   C4A27896   9.040   6.180  16.620
 1163BOLB   C1B27897  10.660   5.900  16.740
 1163BOLB   C2B27898  10.620   6.300  16.960
 1163BOLB   C3B27899  10.440   6.470  17.300
 1163BOLB   C4B27900  10.510   6.710  17.660
 1163BOLB   NC227901   7.840   4.870  16.420
 1163BOLB   PO227902   7.910   4.980  15.930
 1163BOLB   GL327903   7.990   5.340  15.830
 1163BOLB   GL427904   8.150   5.430  15.520
 1163BOLB   C1C27905   7.780   5.710  15.900
 1163BOLB   C2C27906   7.880   6.100  16.030
 1163BOLB   C3C27907   8.240   6.150  16.160
 1163BOLB   C4C27908   8.660   6.090  16.430
 1163BOLB   C1D27909   8.570   5.460  15.830
 1163BOLB   C2D27910   8.660   5.870  15.980
 1163BOLB   C3D27911   9.020   6.160  16.070
 1163BOLB   C4D27912   9.480   6.190  15.900
 1164BOLB   NC127913  20.100  21.670  18.170
 1164BOLB   PO127914  20.330  21.440  18.470
 1164BOLB   GL127915  20.720  21.470  18.620
 1164BOLB   GL227916  20.980  21.310  18.480
 1164BOLB   C1A27917  20.940  21.630  19.030
 1164BOLB   C2A27918  21.070  21.670  19.490
 1164BOLB   C3A27919  21.340  21.710  19.760
 1164BOLB   C4A27920  21.460  21.870  20.150
 1164BOLB   C1B27921  21.230  21.520  18.640
 1164BOLB   C2B27922  21.440  21.840  19.010
 1164BOLB   C3B27923  21.640  22.140  19.240
 1164BOLB   C4B27924  21.860  22.500  19.460
 1164BOLB   NC227925  21.780  21.810  22.420
 1164BOLB   PO227926  21.960  22.180  22.220
 1164BOLB   GL327927  21.920  21.940  21.890
 1164BOLB   GL427928  21.550  21.790  21.980
 1164BOLB   C1C27929  21.830  21.640  21.620
 1164BOLB   C2C27930  21.540  21.560  21.290
 1164BOLB   C3C27931  21.570  21.530  20.910
 1164BOLB   C4C27932  21.460  21.610  20.460
 1164BOLB   C1D27933  21.460  21.340  21.870
 1164BOLB   C2D27934  21.180  20.950  21.690
 1164BOLB   C3D27935  21.120  20.700  21.370
 1164BOLB   C4D27936  21.510  20.530  21.460
 1165BOLB   NC127937  26.900  23.850  13.940
 1165BOLB   PO127938  26.870  23.800  14.330
 1165BOLB   GL127939  26.500  23.670  14.220
 1165BOLB   GL227940  26.490  23.480  13.950
 1165BOLB   C1A27941  26.080  23.770  14.280
 1165BOLB   C2A27942  25.640  23.830  14.170
 1165BOLB   C3A27943  25.230  23.950  14.330
 1165BOLB   C4A27944  24.830  24.140  14.390
 1165BOLB   C1B27945  26.150  23.280  13.840
 1165BOLB   C2B27946  25.890  23.010  13.740
 1165BOLB   C3B27947  25.500  22.920  13.630
 1165BOLB   C4B27948  25.170  22.650  13.460
 1165BOLB   NC227949  25.260  26.220  13.780
 1165BOLB   PO227950  24.880  26.370  14.030
 1165BOLB   GL327951  24.510  26.070  13.950
 1165BOLB   GL427952  24.240  26.100  13.720
 1165BOLB   C1C27953  24.460  25.660  13.980
 1165BOLB   C2C27954  24.650  25.280  14.260
 1165BOLB   C3C27955  24.650  24.860  14.330
 1165BOLB   C4C27956  24.670  24.440  14.360
 1165BOLB   C1D27957  23.860  25.900  13.860
 1165BOLB   C2D27958  23.790  25.590  14.150
 1165BOLB   C3D27959  23.560  25.310  14.480
 1165BOLB   C4D27960  23.250  25.230  14.790
 1166BOLB   NC127961  14.240  12.000   5.450
 1166BOLB   PO127962  14.120  12.370   5.310
 1166BOLB   GL127963  13.890  12.090   5.010
 1166BOLB   GL227964  13.910  11.860   5.150
 1166BOLB   C1A27965  13.670  11.790   4.720
 1166BOLB   C2A27966  13.360  11.600   4.490
 1166BOLB   C3A27967  13.040  11.440   4.450
 1166BOLB   C4A27968  12.800  11.220   4.240
 1166BOLB   C1B27969  14.000  11.420   4.840
 1166BOLB   C2B27970  13.890  11.260   4.470
 1166BOLB   C3B27971  13.540  11.170   4.260
 1166BOLB   C4B27972  13.240  11.210   4.000
 1166BOLB   NC227973  11.820  10.660   2.170
 1166BOLB   PO227974  11.840  10.170   2.090
 1166BOLB   GL327975  12.020  10.290   2.430
 1166BOLB   GL427976  11.930  10.140   2.720
 1166BOLB   C1C27977  12.260  10.610   2.660
 1166BOLB   C2C27978  12.450  10.850   3.030
 1166BOLB   C3C27979  12.470  10.880   3.500
 1166BOLB   C4C27980  12.640  10.890   3.990
 1166BOLB   C1D27981  12.270  10.200   2.950
 1166BOLB   C2D27982  12.510   9.840   3.170
 1166BOLB   C3D27983  12.660   9.800   3.670
 1166BOLB   C4D27984  12.520  10.040   4.030
 1167BOLB   NC127985   3.270  12.050  11.030
 1167BOLB   PO127986   3.430  11.730  11.060
 1167BOLB   GL127987   3.830  11.570  11.210
 1167BOLB   GL227988   4.060  11.470  11.070
 1167BOLB   C1A27989   4.010  11.730  11.560
 1167BOLB   C2A27990   3.910  11.940  11.920
 1167BOLB   C3A27991   4.100  12.480  12.100
 1167BOLB   C4A27992   4.400  12.710  11.930
 1167BOLB   C1B27993   4.210  11.850  11.030
 1167BOLB   C2B27994   4.470  11.930  11.400
 1167BOLB   C3B27995   4.410  12.150  11.760
 1167BOLB   C4B27996   4.550  12.190  12.120
 1167BOLB   NC227997   3.680  12.360  10.180
 1167BOLB   PO227998   3.810  12.510  10.540
 1167BOLB   GL327999   4.290  12.570  10.560
 1167BOLB   GL428000   4.450  12.820  10.560
 1167BOLB   C1C28001   4.450  12.250  10.880
 1167BOLB   C2C28002   4.810  12.380  11.150
 1167BOLB   C3C28003   4.910  12.720  11.400
 1167BOLB   C4C28004   4.810  12.890  11.730
 1167BOLB   C1D28005   4.550  12.810  10.940
 1167BOLB   C2D28006   4.550  13.100  11.280
 1167BOLB   C3D28007   4.700  13.420  11.630
 1167BOLB   C4D28008   4.780  13.800  11.830
 1168BOLB   NC128009  22.880  14.010   8.610
 1168BOLB   PO128010  22.780  13.830   8.210
 1168BOLB   GL128011  23.060  13.770   7.980
 1168BOLB   GL228012  23.220  13.490   7.830
 1168BOLB   C1A28013  23.450  13.910   7.880
 1168BOLB   C2A28014  23.900  13.930   7.770
 1168BOLB   C3A28015  24.280  13.880   7.600
 1168BOLB   C4A28016  24.410  13.680   7.240
 1168BOLB   C1B28017  23.680  13.320   7.650
 1168BOLB   C2B28018  24.150  13.420   7.630
 1168BOLB   C3B28019  24.500  13.250   7.490
 1168BOLB   C4B28020  24.600  12.730   7.610
 1168BOLB   NC228021  26.120  13.020   5.600
 1168BOLB   PO228022  25.850  13.320   5.210
 1168BOLB   GL328023  25.660  13.350   5.640
 1168BOLB   GL428024  25.710  13.740   5.720
 1168BOLB   C1C28025  25.480  13.460   6.020
 1168BOLB   C2C28026  25.280  13.530   6.430
 1168BOLB   C3C28027  24.930  13.460   6.730
 1168BOLB   C4C28028  24.580  13.360   7.000
 1168BOLB   C1D28029  25.250  13.780   5.700
 1168BOLB   C2D28030  24.810  13.570   5.880
 1168BOLB   C3D28031  24.320  13.630   5.880
 1168BOLB   C4D28032  24.120  13.850   6.140
 1169BOLB   NC128033  19.550  20.700   6.470
 1169BOLB   PO128034  19.290  20.890   6.130
 1169BOLB   GL128035  19.640  21.140   6.210
 1169BOLB   GL228036  19.950  21.090   6.300
 1169BOLB   C1A28037  19.670  21.540   5.930
 1169BOLB   C2A28038  19.500  21.820   5.620
 1169BOLB   C3A28039  19.520  21.990   5.250
 1169BOLB   C4A28040  19.420  22.270   4.950
 1169BOLB   C1B28041  20.160  21.380   5.890
 1169BOLB   C2B28042  20.330  21.500   5.460
 1169BOLB   C3B28043  20.640  21.770   5.380
 1169BOLB   C4B28044  20.940  21.660   5.020
 1169BOLB   NC228045  18.970  23.880   3.280
 1169BOLB   PO228046  19.190  23.460   3.080
 1169BOLB   GL328047  18.940  23.190   3.310
 1169BOLB   GL428048  18.920  22.990   3.080
 1169BOLB   C1C28049  19.050  23.030   3.780
 1169BOLB   C2C28050  19.010  22.960   4.180
 1169BOLB   C3C28051  18.950  22.670   4.400
 1169BOLB   C4C28052  19.200  22.430   4.580
 1169BOLB   C1D28053  18.660  22.580   3.040
 1169BOLB   C2D28054  18.450  22.300   3.300
 1169BOLB   C3D28055  18.150  22.090   3.560
 1169BOLB   C4D28056  17.880  21.830   3.760
 1170BOLB   NC128057  24.300   9.870  17.250
 1170BOLB   PO128058  24.540  10.210  17.060
 1170BOLB   GL128059  24.200  10.100  16.800
 1170BOLB   GL228060  24.330  10.110  16.460
 1170BOLB   C1A28061  23.760  10.460  16.870
 1170BOLB   C2A28062  23.350  10.420  17.110
 1170BOLB   C3A28063  22.910  10.590  17.030
 1170BOLB   C4A28064  22.490  10.620  16.850
 1170BOLB   C1B28065  24.070  10.170  16.080
 1170BOLB   C2B28066  23.720  10.470  15.980
 1170BOLB   C3B28067  23.560  10.770  15.780
 1170BOLB   C4B28068  23.520  10.760  15.360
 1170BOLB   NC228069  20.690  11.980  15.430
 1170BOLB   PO228070  20.900  12.050  15.820
 1170BOLB   GL328071  21.280  11.790  16.030
 1170BOLB   GL428072  21.500  12.070  16.250
 1170BOLB   C1C28073  21.410  11.550  16.410
 1170BOLB   C2C28074  21.670  11.410  16.820
 1170BOLB   C3C28075  21.750  11.120  17.080
 1170BOLB   C4C28076  22.050  10.760  17.020
 1170BOLB   C1D28077  21.810  11.850  16.570
 1170BOLB   C2D28078  22.150  11.600  16.740
 1170BOLB   C3D28079  22.520  11.670  16.990
 1170BOLB   C4D28080  23.000  11.500  17.050
 1171BOLB   NC128081  27.350  20.160   7.640
 1171BOLB   PO128082  27.090  20.520   7.630
 1171BOLB   GL128083  26.650  20.580   7.570
 1171BOLB   GL228084  26.490  20.780   7.410
 1171BOLB   C1A28085  26.350  20.610   7.900
 1171BOLB   C2A28086  26.080  20.560   8.270
 1171BOLB   C3A28087  25.810  20.720   8.550
 1171BOLB   C4A28088  25.740  21.170   8.700
 1171BOLB   C1B28089  26.060  20.800   7.580
 1171BOLB   C2B28090  25.790  20.480   7.670
 1171BOLB   C3B28091  25.650  20.370   8.010
 1171BOLB   C4B28092  25.830  19.960   8.240
 1171BOLB   NC228093  25.600  23.390   7.030
 1171BOLB   PO228094  25.810  23.020   6.970
 1171BOLB   GL328095  25.840  22.660   7.190
 1171BOLB   GL428096  25.910  22.440   7.100
 1171BOLB   C1C28097  25.880  22.370   7.550
 1171BOLB   C2C28098  25.700  22.180   7.970
 1171BOLB   C3C28099  25.560  21.800   8.300
 1171BOLB   C4C28100  25.540  21.540   8.630
 1171BOLB   C1D28101  25.600  22.230   7.070
 1171BOLB   C2D28102  25.560  21.970   7.520
 1171BOLB   C3D28103  25.400  21.660   7.740
 1171BOLB   C4D28104  25.180  21.300   7.830
 1172BOLB   NC128105  12.710  19.820   5.960
 1172BOLB   PO128106  12.420  19.610   5.700
 1172BOLB   GL128107  12.060  19.820   5.750
 1172BOLB   GL228108  12.030  19.970   5.460
 1172BOLB   C1A28109  11.690  20.150   5.750
 1172BOLB   C2A28110  11.340  20.200   5.530
 1172BOLB   C3A28111  11.240  20.270   5.110
 1172BOLB   C4A28112  11.410  20.410   4.640
 1172BOLB   C1B28113  12.220  20.070   5.060
 1172BOLB   C2B28114  12.500  20.130   4.730
 1172BOLB   C3B28115  12.340  20.020   4.390
 1172BOLB   C4B28116  12.110  19.900   4.100
 1172BOLB   NC228117   9.870  22.160   3.790
 1172BOLB   PO228118  10.200  21.980   3.400
 1172BOLB   GL328119  10.140  21.760   3.760
 1172BOLB   GL428120  10.170  21.940   4.100
 1172BOLB   C1C28121  10.430  21.560   3.930
 1172BOLB   C2C28122  10.730  21.270   3.770
 1172BOLB   C3C28123  11.050  20.950   3.930
 1172BOLB   C4C28124  11.240  20.670   4.310
 1172BOLB   C1D28125  10.530  21.840   4.360
 1172BOLB   C2D28126  10.960  21.690   4.170
 1172BOLB   C3D28127  11.320  21.670   4.410
 1172BOLB   C4D28128  11.620  21.860   4.750
 1173BOLB   NC128129  16.450   9.170  11.550
 1173BOLB   PO128130  15.970   9.070  11.610
 1173BOLB   GL128131  15.720   8.650  11.570
 1173BOLB   GL228132  15.900   8.470  11.610
 1173BOLB   C1A28133  15.540   8.200  11.490
 1173BOLB   C2A28134  15.560   7.750  11.570
 1173BOLB   C3A28135  15.430   7.570  11.260
 1173BOLB   C4A28136  15.480   7.220  10.850
 1173BOLB   C1B28137  15.920   8.150  11.890
 1173BOLB   C2B28138  16.020   7.910  12.170
 1173BOLB   C3B28139  16.120   7.560  12.410
 1173BOLB   C4B28140  16.040   7.120  12.580
 1173BOLB   NC228141  15.520   4.560  10.250
 1173BOLB   PO228142  15.320   4.930  10.370
 1173BOLB   GL328143  15.400   5.350  10.260
 1173BOLB   GL428144  15.700   5.310  10.360
 1173BOLB   C1C28145  15.500   5.770  10.560
 1173BOLB   C2C28146  15.410   6.160  10.580
 1173BOLB   C3C28147  15.300   6.500  10.490
 1173BOLB   C4C28148  15.320   6.950  10.550
 1173BOLB   C1D28149  15.970   5.600  10.410
 1173BOLB   C2D28150  16.020   6.040  10.430
 1173BOLB   C3D28151  15.820   6.400  10.520
 1173BOLB   C4D28152  15.770   6.780  10.640
 1174BOLB   NC128153  15.560  20.910   6.970
 1174BOLB   PO128154  15.300  21.180   6.720
 1174BOLB   GL128155  15.450  21.290   6.260
 1174BOLB   GL228156  15.650  21.170   5.970
 1174BOLB   C1A28157  15.640  21.660   5.880
 1174BOLB   C2A28158  15.710  22.040   5.670
 1174BOLB   C3A28159  15.430  22.370   5.460
 1174BOLB   C4A28160  15.470  22.680   5.060
 1174BOLB   C1B28161  15.470  21.300   5.600
 1174BOLB   C2B28162  15.280  21.630   5.440
 1174BOLB   C3B28163  15.020  21.990   5.380
 1174BOLB   C4B28164  14.680  22.180   5.210
 1174BOLB   NC228165  16.490  24.180   3.410
 1174BOLB   PO228166  16.100  24.400   3.500
 1174BOLB   GL328167  16.170  24.100   3.830
 1174BOLB   GL428168  16.490  24.090   3.940
 1174BOLB   C1C28169  16.000  23.820   4.080
 1174BOLB   C2C28170  15.740  23.790   4.330
 1174BOLB   C3C28171  15.570  23.410   4.620
 1174BOLB   C4C28172  15.650  23.020   4.850
 1174BOLB   C1D28173  16.630  24.110   4.360
 1174BOLB   C2D28174  16.640  23.810   4.670
 1174BOLB   C3D28175  16.320  23.650   4.950
 1174BOLB   C4D28176  16.080  23.710   5.330
 1175BOLB   NC128177  14.140   5.570   6.870
 1175BOLB   PO128178  14.580   5.640   6.880
 1175BOLB   GL128179  14.670   5.910   7.200
 1175BOLB   GL228180  14.990   6.080   7.250
 1175BOLB   C1A28181  14.550   6.220   7.490
 1175BOLB   C2A28182  14.370   6.440   7.810
 1175BOLB   C3A28183  14.510   6.850   7.960
 1175BOLB   C4A28184  14.580   7.310   8.260
 1175BOLB   C1B28185  14.910   6.250   6.860
 1175BOLB   C2B28186  14.690   6.390   6.460
 1175BOLB   C3B28187  14.770   6.800   6.280
 1175BOLB   C4B28188  15.090   6.960   5.910
 1175BOLB   NC228189  15.310   9.340   9.470
 1175BOLB   PO228190  15.570   9.370   9.170
 1175BOLB   GL328191  15.510   8.980   8.930
 1175BOLB   GL428192  15.710   8.780   8.930
 1175BOLB   C1C28193  15.240   8.710   8.680
 1175BOLB   C2C28194  15.110   8.350   8.390
 1175BOLB   C3C28195  14.950   8.040   8.280
 1175BOLB   C4C28196  14.930   7.550   8.290
 1175BOLB   C1D28197  15.620   8.410   8.710
 1175BOLB   C2D28198  15.680   8.000   8.740
 1175BOLB   C3D28199  15.740   7.580   8.700
 1175BOLB   C4D28200  15.650   7.250   8.430
 1176BOLB   NC128201   9.840  12.890   8.230
 1176BOLB   PO128202   9.620  13.010   8.450
 1176BOLB   GL128203   9.220  13.080   8.390
 1176BOLB   GL228204   9.160  12.830   8.510
 1176BOLB   C1A28205   8.980  12.900   8.020
 1176BOLB   C2A28206   8.750  12.650   7.890
 1176BOLB   C3A28207   8.330  12.600   7.800
 1176BOLB   C4A28208   7.940  12.340   7.970
 1176BOLB   C1B28209   9.130  12.360   8.520
 1176BOLB   C2B28210   8.950  12.020   8.370
 1176BOLB   C3B28211   8.630  11.770   8.390
 1176BOLB   C4B28212   8.410  11.540   8.370
 1176BOLB   NC228213   5.590  11.840   8.450
 1176BOLB   PO228214   5.710  11.350   8.590
 1176BOLB   GL328215   6.140  11.310   8.700
 1176BOLB   GL428216   6.190  11.000   8.730
 1176BOLB   C1C28217   6.580  11.320   8.490
 1176BOLB   C2C28218   6.900  11.650   8.340
 1176BOLB   C3C28219   7.340  11.840   8.330
 1176BOLB   C4C28220   7.790  12.020   8.270
 1176BOLB   C1D28221   6.530  11.180   9.060
 1176BOLB   C2D28222   6.910  11.250   9.160
 1176BOLB   C3D28223   7.240  11.480   9.200
 1176BOLB   C4D28224   7.610  11.910   9.300
 1177BOLB   NC128225  23.650  19.430   9.530
 1177BOLB   PO128226  23.810  19.080   9.470
 1177BOLB   GL128227  24.240  19.190   9.460
 1177BOLB   GL228228  24.280  19.270   9.190
 1177BOLB   C1A28229  24.720  19.110   9.420
 1177BOLB   C2A28230  25.080  19.300   9.280
 1177BOLB   C3A28231  25.500  19.350   9.290
 1177BOLB   C4A28232  25.850  19.410   9.180
 1177BOLB   C1B28233  24.430  19.690   9.000
 1177BOLB   C2B28234  24.840  19.750   9.040
 1177BOLB   C3B28235  25.270  19.680   8.910
 1177BOLB   C4B28236  25.510  19.690   8.550
 1177BOLB   NC228237  27.740  18.660   8.500
 1177BOLB   PO228238  27.680  19.000   8.730
 1177BOLB   GL328239  27.260  18.910   8.540
 1177BOLB   GL428240  27.150  18.570   8.590
 1177BOLB   C1C28241  26.890  19.110   8.620
 1177BOLB   C2C28242  26.740  19.450   8.580
 1177BOLB   C3C28243  26.360  19.630   8.710
 1177BOLB   C4C28244  26.140  19.690   9.060
 1177BOLB   C1D28245  27.130  18.680   8.970
 1177BOLB   C2D28246  26.960  18.590   9.370
 1177BOLB   C3D28247  26.670  18.370   9.670
 1177BOLB   C4D28248  26.240  18.400   9.840
 1178BOLB   NC128249  15.170  10.650   7.170
 1178BOLB   PO128250  15.070  10.310   7.470
 1178BOLB   GL128251  15.090   9.880   7.220
 1178BOLB   GL228252  15.350   9.730   7.330
 1178BOLB   C1A28253  14.970   9.370   7.260
 1178BOLB   C2A28254  14.970   8.930   7.080
 1178BOLB   C3A28255  15.210   8.820   6.800
 1178BOLB   C4A28256  15.370   8.530   6.470
 1178BOLB   C1B28257  15.400   9.510   7.010
 1178BOLB   C2B28258  15.550   9.290   6.750
 1178BOLB   C3B28259  15.730   8.890   6.570
 1178BOLB   C4B28260  15.890   8.550   6.380
 1178BOLB   NC228261  14.730   6.650   4.540
 1178BOLB   PO228262  14.530   6.690   5.020
 1178BOLB   GL328263  14.800   6.980   5.180
 1178BOLB   GL428264  15.130   6.810   5.370
 1178BOLB   C1C28265  14.930   7.330   5.530
 1178BOLB   C2C28266  15.110   7.670   5.810
 1178BOLB   C3C28267  15.310   7.950   5.970
 1178BOLB   C4C28268  15.180   8.280   6.210
 1178BOLB   C1D28269  15.470   7.090   5.600
 1178BOLB   C2D28270  15.860   7.210   5.480
 1178BOLB   C3D28271  16.230   7.220   5.160
 1178BOLB   C4D28272  16.290   7.450   4.780
 1179BOLB   NC128273  10.900  11.580   7.660
 1179BOLB   PO128274  11.190  11.250   7.750
 1179BOLB   GL128275  11.360  11.060   7.350
 1179BOLB   GL228276  11.670  11.200   7.240
 1179BOLB   C1A28277  11.160  11.170   6.910
 1179BOLB   C2A28278  10.770  11.030   6.710
 1179BOLB   C3A28279  10.360  10.950   6.850
 1179BOLB   C4A28280  10.060  10.580   6.820
 1179BOLB   C1B28281  11.540  10.850   6.920
 1179BOLB   C2B28282  11.590  10.430   6.730
 1179BOLB   C3B28283  11.780  10.150   6.330
 1179BOLB   C4B28284  11.950   9.730   6.440
 1179BOLB   NC228285   9.750   8.180   6.150
 1179BOLB   PO228286   9.490   8.350   6.600
 1179BOLB   GL328287   9.520   8.770   6.810
 1179BOLB   GL428288   9.880   8.830   6.710
 1179BOLB   C1C28289   9.560   9.230   6.880
 1179BOLB   C2C28290   9.610   9.680   6.840
 1179BOLB   C3C28291   9.580  10.120   6.760
 1179BOLB   C4C28292   9.660  10.480   6.690
 1179BOLB   C1D28293   9.910   8.890   7.190
 1179BOLB   C2D28294   9.560   8.990   7.360
 1179BOLB   C3D28295   9.400   8.980   7.830
 1179BOLB   C4D28296   9.300   8.920   8.240
 1180BOLB   NC128297  23.500  19.820  11.000
 1180BOLB   PO128298  23.810  19.850  10.650
 1180BOLB   GL128299  24.300  19.820  10.580
 1180BOLB   GL228300  24.480  20.150  10.360
 1180BOLB   C1A28301  24.790  19.930  10.710
 1180BOLB   C2A28302  25.130  20.060  10.860
 1180BOLB   C3A28303  25.600  20.190  10.950
 1180BOLB   C4A28304  25.900  20.450  10.940
 1180BOLB   C1B28305  24.890  20.320  10.430
 1180BOLB   C2B28306  25.140  20.390  10.200
 1180BOLB   C3B28307  25.430  20.480   9.880
 1180BOLB   C4B28308  25.590  20.810   9.490
 1180BOLB   NC228309  27.800  21.840  11.110
 1180BOLB   PO228310  27.660  21.540  11.430
 1180BOLB   GL328311  27.400  21.330  11.210
 1180BOLB   GL428312  27.120  21.180  11.360
 1180BOLB   C1C28313  27.110  21.250  10.880
 1180BOLB   C2C28314  26.740  21.320  11.030
 1180BOLB   C3C28315  26.380  21.120  11.050
 1180BOLB   C4C28316  26.180  20.720  11.070
 1180BOLB   C1D28317  26.880  20.910  11.580
 1180BOLB   C2D28318  26.520  20.590  11.480
 1180BOLB   C3D28319  26.150  20.280  11.350
 1180BOLB   C4D28320  26.110  19.960  11.550
 1181BOLB   NC128321   8.060  18.920  10.440
 1181BOLB   PO128322   7.760  18.880  10.600
 1181BOLB   GL128323   7.310  18.760  10.670
 1181BOLB   GL228324   7.290  18.860  10.390
 1181BOLB   C1A28325   7.030  19.010  10.890
 1181BOLB   C2A28326   6.710  18.900  11.090
 1181BOLB   C3A28327   6.440  19.270  11.220
 1181BOLB   C4A28328   6.090  19.410  11.340
 1181BOLB   C1B28329   7.010  18.750  10.220
 1181BOLB   C2B28330   6.630  18.560  10.260
 1181BOLB   C3B28331   6.170  18.550  10.200
 1181BOLB   C4B28332   5.940  18.310  10.430
 1181BOLB   NC228333   4.440  20.800  11.030
 1181BOLB   PO228334   4.880  20.620  10.930
 1181BOLB   GL328335   5.130  20.560  11.240
 1181BOLB   GL428336   5.340  20.320  11.190
 1181BOLB   C1C28337   5.370  20.670  11.650
 1181BOLB   C2C28338   5.650  20.440  11.940
 1181BOLB   C3C28339   6.010  20.090  11.890
 1181BOLB   C4C28340   5.940  19.750  11.570
 1181BOLB   C1D28341   5.570  20.080  10.980
 1181BOLB   C2D28342   5.960  19.880  10.970
 1181BOLB   C3D28343   6.400  19.730  10.960
 1181BOLB   C4D28344   6.810  19.510  10.800
 1182BOLB   NC128345  14.880   9.000  11.600
 1182BOLB   PO128346  14.710   9.370  11.430
 1182BOLB   GL128347  14.490   8.980  11.150
 1182BOLB   GL228348  14.400   8.660  11.410
 1182BOLB   C1A28349  14.310   8.520  10.980
 1182BOLB   C2A28350  14.180   8.140  10.960
 1182BOLB   C3A28351  13.980   7.750  10.820
 1182BOLB   C4A28352  13.910   7.380  10.790
 1182BOLB   C1B28353  14.380   8.170  11.420
 1182BOLB   C2B28354  14.490   7.710  11.310
 1182BOLB   C3B28355  14.400   7.410  11.090
 1182BOLB   C4B28356  14.200   6.930  11.070
 1182BOLB   NC228357  13.980   4.780  10.810
 1182BOLB   PO228358  13.770   4.840  11.180
 1182BOLB   GL328359  13.670   5.280  11.010
 1182BOLB   GL428360  13.560   5.460  11.290
 1182BOLB   C1C28361  13.770   5.640  10.790
 1182BOLB   C2C28362  13.980   6.070  10.870
 1182BOLB   C3C28363  13.970   6.500  10.910
 1182BOLB   C4C28364  13.880   6.960  10.700
 1182BOLB   C1D28365  13.640   5.910  11.260
 1182BOLB   C2D28366  13.660   6.280  11.300
 1182BOLB   C3D28367  13.770   6.730  11.250
 1182BOLB   C4D28368  13.500   7.070  11.130
 1183BOLB   NC128369  17.210   7.470   3.550
 1183BOLB   PO128370  17.390   7.160   3.740
 1183BOLB   GL128371  17.380   7.210   4.100
 1183BOLB   GL228372  17.240   7.050   4.360
 1183BOLB   C1A28373  17.590   7.500   4.360
 1183BOLB   C2A28374  17.600   7.830   4.650
 1183BOLB   C3A28375  17.430   8.120   4.900
 1183BOLB   C4A28376  17.200   8.600   4.840
 1183BOLB   C1B28377  16.940   7.290   4.340
 1183BOLB   C2B28378  16.640   7.670   4.360
 1183BOLB   C3B28379  16.600   8.090   4.560
 1183BOLB   C4B28380  16.420   8.370   5.000
 1183BOLB   NC228381  16.470  10.300   6.320
 1183BOLB   PO228382  16.500  10.630   5.940
 1183BOLB   GL328383  16.630  10.420   5.500
 1183BOLB   GL428384  16.930  10.590   5.310
 1183BOLB   C1C28385  16.570   9.940   5.240
 1183BOLB   C2C28386  16.640   9.880   4.860
 1183BOLB   C3C28387  16.760   9.500   4.700
 1183BOLB   C4C28388  16.950   9.050   4.770
 1183BOLB   C1D28389  16.640  10.360   4.960
 1183BOLB   C2D28390  16.620  10.300   4.560
 1183BOLB   C3D28391  16.250  10.200   4.330
 1183BOLB   C4D28392  15.960  10.380   4.130
 1184BOLB   NC128393  14.580  21.050   6.100
 1184BOLB   PO128394  14.350  20.690   6.010
 1184BOLB   GL128395  14.530  21.040   5.640
 1184BOLB   GL228396  14.860  21.020   5.630
 1184BOLB   C1A28397  14.380  21.120   5.320
 1184BOLB   C2A28398  14.490  21.080   4.810
 1184BOLB   C3A28399  14.240  21.220   4.440
 1184BOLB   C4A28400  14.110  21.540   4.050
 1184BOLB   C1B28401  14.990  21.170   5.290
 1184BOLB   C2B28402  15.030  21.370   4.840
 1184BOLB   C3B28403  14.780  21.430   4.530
 1184BOLB   C4B28404  14.580  21.540   4.180
 1184BOLB   NC228405  14.990  23.190   2.040
 1184BOLB   PO228406  14.910  22.790   1.950
 1184BOLB   GL328407  14.790  22.560   2.410
 1184BOLB   GL428408  14.570  22.360   2.480
 1184BOLB   C1C28409  14.530  22.730   2.790
 1184BOLB   C2C28410  14.510  22.600   3.180
 1184BOLB   C3C28411  14.340  22.320   3.570
 1184BOLB   C4C28412  14.370  21.840   3.710
 1184BOLB   C1D28413  14.460  22.000   2.640
 1184BOLB   C2D28414  14.140  21.710   2.850
 1184BOLB   C3D28415  14.080  21.270   3.060
 1184BOLB   C4D28416  14.020  20.820   3.220
 1185BOLB   NC128417  24.150  17.010  12.450
 1185BOLB   PO128418  24.040  16.710  12.090
 1185BOLB   GL128419  24.450  16.730  12.100
 1185BOLB   GL228420  24.500  16.480  12.290
 1185BOLB   C1A28421  24.930  16.790  12.030
 1185BOLB   C2A28422  25.370  16.720  12.100
 1185BOLB   C3A28423  25.750  16.740  12.090
 1185BOLB   C4A28424  26.080  16.860  11.910
 1185BOLB   C1B28425  25.010  16.390  12.330
 1185BOLB   C2B28426  25.500  16.380  12.500
 1185BOLB   C3B28427  25.670  16.020  12.730
 1185BOLB   C4B28428  25.850  15.610  12.530
 1185BOLB   NC228429  28.720  17.610  12.220
 1185BOLB   PO228430  28.560  17.180  12.360
 1185BOLB   GL328431  28.160  17.420  12.210
 1185BOLB   GL428432  27.980  17.540  12.420
 1185BOLB   C1C28433  27.860  17.260  11.860
 1185BOLB   C2C28434  27.420  17.150  11.780
 1185BOLB   C3C28435  27.030  17.000  11.910
 1185BOLB   C4C28436  26.560  16.900  11.890
 1185BOLB   C1D28437  27.540  17.600  12.210
 1185BOLB   C2D28438  27.120  17.560  12.000
 1185BOLB   C3D28439  26.780  17.470  11.740
 1185BOLB   C4D28440  26.410  17.280  11.510
 1186BOLB   NC128441  19.580  23.530  10.000
 1186BOLB   PO128442  19.900  23.560  10.040
 1186BOLB   GL128443  20.090  23.920   9.960
 1186BOLB   GL228444  20.090  23.880   9.680
 1186BOLB   C1A28445  20.180  24.320   9.940
 1186BOLB   C2A28446  20.400  24.650   9.610
 1186BOLB   C3A28447  20.450  24.860   9.230
 1186BOLB   C4A28448  20.340  25.350   9.070
 1186BOLB   C1B28449  20.340  24.140   9.440
 1186BOLB   C2B28450  20.570  24.390   9.110
 1186BOLB   C3B28451  20.890  24.670   9.020
 1186BOLB   C4B28452  21.080  24.850   8.810
 1186BOLB   NC228453  21.390  27.090   7.830
 1186BOLB   PO228454  21.000  27.320   7.980
 1186BOLB   GL328455  21.020  26.820   8.150
 1186BOLB   GL428456  21.290  26.840   8.320
 1186BOLB   C1C28457  20.750  26.490   8.230
 1186BOLB   C2C28458  20.460  26.210   8.180
 1186BOLB   C3C28459  20.300  25.890   8.350
 1186BOLB   C4C28460  20.360  25.550   8.680
 1186BOLB   C1D28461  20.920  26.690   8.650
 1186BOLB   C2D28462  20.600  26.400   8.760
 1186BOLB   C3D28463  20.260  26.090   8.820
 1186BOLB   C4D28464  20.160  25.800   9.190
 1187BOLB   NC128465  15.060  21.730   7.450
 1187BOLB   PO128466  15.260  22.100   7.550
 1187BOLB   GL128467  15.250  22.560   7.560
 1187BOLB   GL228468  14.940  22.550   7.680
 1187BOLB   C1A28469  15.000  22.790   7.230
 1187BOLB   C2A28470  14.930  23.160   6.910
 1187BOLB   C3A28471  14.780  23.580   6.850
 1187BOLB   C4A28472  14.490  23.860   6.600
 1187BOLB   C1B28473  14.610  22.860   7.520
 1187BOLB   C2B28474  14.430  23.110   7.270
 1187BOLB   C3B28475  14.450  23.240   6.880
 1187BOLB   C4B28476  14.300  23.370   6.560
 1187BOLB   NC228477  13.260  26.190   5.670
 1187BOLB   PO228478  13.710  26.210   5.490
 1187BOLB   GL328479  13.750  25.810   5.940
 1187BOLB   GL428480  13.560  25.830   6.260
 1187BOLB   C1C28481  13.950  25.410   6.180
 1187BOLB   C2C28482  14.190  25.080   6.350
 1187BOLB   C3C28483  14.300  24.740   6.480
 1187BOLB   C4C28484  14.390  24.290   6.650
 1187BOLB   C1D28485  13.590  25.490   6.480
 1187BOLB   C2D28486  13.690  25.310   6.860
 1187BOLB   C3D28487  13.730  25.420   7.210
 1187BOLB   C4D28488  13.830  25.350   7.580
 1188BOLB   NC128489  15.450  23.040  18.470
 1188BOLB   PO128490  15.220  23.020  18.910
 1188BOLB   GL128491  14.990  23.430  19.180
 1188BOLB   GL228492  14.710  23.450  19.480
 1188BOLB   C1A28493  15.090  23.710  19.590
 1188BOLB   C2A28494  15.230  23.800  19.930
 1188BOLB   C3A28495  15.180  24.160  20.120
 1188BOLB   C4A28496  14.740  24.340  20.120
 1188BOLB   C1B28497  14.650  23.790  19.750
 1188BOLB   C2B28498  14.420  24.200  19.780
 1188BOLB   C3B28499  14.140  24.510  19.980
 1188BOLB   C4B28500  13.630  24.660  20.190
 1188BOLB   NC228501  14.780  26.800  20.420
 1188BOLB   PO228502  14.330  26.730  20.540
 1188BOLB   GL328503  13.940  26.520  20.460
 1188BOLB   GL428504  13.750  26.440  20.060
 1188BOLB   C1C28505  14.000  26.000  20.320
 1188BOLB   C2C28506  14.140  25.550  20.000
 1188BOLB   C3C28507  14.420  25.190  20.070
 1188BOLB   C4C28508  14.580  24.810  20.060
 1188BOLB   C1D28509  14.220  26.260  19.930
 1188BOLB   C2D28510  14.040  25.920  19.650
 1188BOLB   C3D28511  14.150  25.570  19.330
 1188BOLB   C4D28512  14.250  25.200  19.070
 1189BOLB   NC128513   4.110  18.430   9.210
 1189BOLB   PO128514   4.110  18.220   9.670
 1189BOLB   GL128515   4.350  18.300  10.020
 1189BOLB   GL228516   4.690  18.170  10.050
 1189BOLB   C1A28517   4.470  18.210  10.490
 1189BOLB   C2A28518   4.890  18.150  10.520
 1189BOLB   C3A28519   5.360  18.100  10.640
 1189BOLB   C4A28520   5.590  17.990  10.310
 1189BOLB   C1B28521   5.080  17.960  10.100
 1189BOLB   C2B28522   5.210  17.660  10.390
 1189BOLB   C3B28523   5.280  17.160  10.450
 1189BOLB   C4B28524   5.570  17.120  10.680
 1189BOLB   NC228525   4.290  19.030   9.750
 1189BOLB   PO228526   4.370  18.840   9.310
 1189BOLB   GL328527   4.850  18.730   9.490
 1189BOLB   GL428528   4.700  18.740   9.770
 1189BOLB   C1C28529   5.330  18.780   9.600
 1189BOLB   C2C28530   5.680  18.600   9.600
 1189BOLB   C3C28531   5.940  18.420   9.700
 1189BOLB   C4C28532   5.970  18.090   9.980
 1189BOLB   C1D28533   5.080  18.440   9.850
 1189BOLB   C2D28534   5.460  18.470  10.200
 1189BOLB   C3D28535   5.730  18.730  10.070
 1189BOLB   C4D28536   6.070  18.940   9.780
 1190BOLB   NC128537  13.350  16.820  28.680
 1190BOLB   PO128538  13.000  16.950  28.340
 1190BOLB   GL128539  12.970  17.260  28.010
 1190BOLB   GL228540  12.710  17.070  27.920
 1190BOLB   C1A28541  12.810  17.520  27.700
 1190BOLB   C2A28542  13.120  17.690  27.440
 1190BOLB   C3A28543  13.460  17.420  27.270
 1190BOLB   C4A28544  13.820  17.450  27.020
 1190BOLB   C1B28545  12.950  17.130  27.460
 1190BOLB   C2B28546  12.980  17.360  27.040
 1190BOLB   C3B28547  12.980  17.360  26.560
 1190BOLB   C4B28548  12.640  17.640  26.330
 1190BOLB   NC228549  14.210  19.640  27.650
 1190BOLB   PO228550  14.310  19.250  27.900
 1190BOLB   GL328551  14.370  19.180  27.370
 1190BOLB   GL428552  14.610  19.190  27.170
 1190BOLB   C1C28553  14.230  18.840  27.200
 1190BOLB   C2C28554  14.080  18.470  27.050
 1190BOLB   C3C28555  13.960  18.120  26.910
 1190BOLB   C4C28556  13.980  17.760  26.800
 1190BOLB   C1D28557  15.070  18.920  26.980
 1190BOLB   C2D28558  15.130  18.440  26.940
 1190BOLB   C3D28559  15.450  18.220  26.730
 1190BOLB   C4D28560  15.470  18.110  26.260
 1191BOLB   NC128561  11.880   5.690  22.050
 1191BOLB   PO128562  11.650   6.000  22.190
 1191BOLB   GL128563  11.430   6.360  22.090
 1191BOLB   GL228564  11.460   6.650  22.220
 1191BOLB   C1A28565  11.390   6.590  21.770
 1191BOLB   C2A28566  11.530   7.000  21.610
 1191BOLB   C3A28567  11.390   7.350  21.540
 1191BOLB   C4A28568  11.190   7.650  21.390
 1191BOLB   C1B28569  11.960   6.550  22.030
 1191BOLB   C2B28570  12.260   6.530  21.730
 1191BOLB   C3B28571  12.190   6.390  21.260
 1191BOLB   C4B28572  12.220   6.210  20.810
 1191BOLB   NC228573   9.470   6.910  22.530
 1191BOLB   PO228574   9.420   6.690  22.100
 1191BOLB   GL328575   9.710   7.070  21.980
 1191BOLB   GL428576   9.610   7.400  21.830
 1191BOLB   C1C28577  10.120   6.990  21.870
 1191BOLB   C2C28578  10.320   7.250  21.640
 1191BOLB   C3C28579  10.510   7.660  21.570
 1191BOLB   C4C28580  10.850   7.830  21.370
 1191BOLB   C1D28581   9.970   7.540  21.810
 1191BOLB   C2D28582  10.210   7.760  21.920
 1191BOLB   C3D28583  10.490   8.130  21.710
 1191BOLB   C4D28584  10.570   8.510  21.710
 1192BOLB   NC128585  10.460  19.940   8.580
 1192BOLB   PO128586  10.240  20.060   8.190
 1192BOLB   GL128587  10.130  20.260   7.880
 1192BOLB   GL228588  10.120  20.020   7.670
 1192BOLB   C1A28589   9.860  20.530   7.650
 1192BOLB   C2A28590   9.640  20.900   7.580
 1192BOLB   C3A28591   9.390  21.130   7.430
 1192BOLB   C4A28592   8.930  21.230   7.500
 1192BOLB   C1B28593  10.090  20.170   7.310
 1192BOLB   C2B28594  10.080  20.620   7.120
 1192BOLB   C3B28595  10.190  20.810   6.710
 1192BOLB   C4B28596  10.060  21.080   6.340
 1192BOLB   NC228597   6.910  21.030   6.310
 1192BOLB   PO228598   7.130  20.930   5.960
 1192BOLB   GL328599   7.410  21.050   6.110
 1192BOLB   GL428600   7.750  20.930   6.140
 1192BOLB   C1C28601   7.460  21.140   6.610
 1192BOLB   C2C28602   7.750  21.320   6.950
 1192BOLB   C3C28603   8.140  21.200   7.280
 1192BOLB   C4C28604   8.560  21.170   7.570
 1192BOLB   C1D28605   8.020  20.910   6.470
 1192BOLB   C2D28606   8.270  21.060   6.800
 1192BOLB   C3D28607   8.530  20.810   7.110
 1192BOLB   C4D28608   8.740  20.720   7.440
 1193BOLB   NC128609  18.350  23.100   8.000
 1193BOLB   PO128610  17.900  23.170   7.960
 1193BOLB   GL128611  18.250  23.350   7.570
 1193BOLB   GL228612  17.980  23.380   7.290
 1193BOLB   C1A28613  18.460  23.690   7.400
 1193BOLB   C2A28614  18.880  23.910   7.210
 1193BOLB   C3A28615  18.810  24.370   6.940
 1193BOLB   C4A28616  19.080  24.510   6.560
 1193BOLB   C1B28617  18.120  23.750   7.020
 1193BOLB   C2B28618  18.410  24.060   6.640
 1193BOLB   C3B28619  18.500  24.330   6.340
 1193BOLB   C4B28620  18.590  24.430   5.940
 1193BOLB   NC228621  18.820  26.260   5.090
 1193BOLB   PO228622  18.740  26.240   5.570
 1193BOLB   GL328623  18.520  25.970   5.750
 1193BOLB   GL428624  18.160  26.050   5.720
 1193BOLB   C1C28625  18.530  25.620   5.750
 1193BOLB   C2C28626  18.550  25.300   5.940
 1193BOLB   C3C28627  18.560  24.990   6.120
 1193BOLB   C4C28628  18.780  24.730   6.340
 1193BOLB   C1D28629  18.110  25.530   5.820
 1193BOLB   C2D28630  17.710  25.370   6.180
 1193BOLB   C3D28631  17.660  25.010   6.480
 1193BOLB   C4D28632  17.550  24.660   6.670
 1194BOLB   NC128633  22.040  22.530  13.330
 1194BOLB   PO128634  22.310  22.310  13.530
 1194BOLB   GL128635  22.720  22.600  13.640
 1194BOLB   GL228636  22.700  22.880  13.810
 1194BOLB   C1A28637  23.060  22.780  13.410
 1194BOLB   C2A28638  23.400  23.140  13.430
 1194BOLB   C3A28639  23.660  23.290  13.720
 1194BOLB   C4A28640  23.720  23.580  13.960
 1194BOLB   C1B28641  22.960  23.110  13.930
 1194BOLB   C2B28642  23.270  23.410  13.960
 1194BOLB   C3B28643  23.300  23.840  14.090
 1194BOLB   C4B28644  23.650  24.150  14.220
 1194BOLB   NC228645  25.010  25.650  14.840
 1194BOLB   PO228646  25.050  25.360  15.190
 1194BOLB   GL328647  24.860  25.040  15.020
 1194BOLB   GL428648  24.930  25.120  14.690
 1194BOLB   C1C28649  24.510  24.690  14.940
 1194BOLB   C2C28650  24.430  24.300  14.790
 1194BOLB   C3C28651  24.160  23.950  14.600
 1194BOLB   C4C28652  23.830  23.680  14.430
 1194BOLB   C1D28653  25.120  24.720  14.740
 1194BOLB   C2D28654  25.010  24.260  14.870
 1194BOLB   C3D28655  24.740  23.860  14.820
 1194BOLB   C4D28656  24.510  23.530  14.620
 1195BOLB   NC128657  21.530  22.460   9.570
 1195BOLB   PO128658  21.740  22.860   9.330
 1195BOLB   GL128659  22.190  22.960   9.360
 1195BOLB   GL228660  22.300  23.100   9.070
 1195BOLB   C1A28661  22.550  23.300   9.420
 1195BOLB   C2A28662  22.850  23.620   9.450
 1195BOLB   C3A28663  23.140  23.880   9.580
 1195BOLB   C4A28664  23.310  24.370   9.790
 1195BOLB   C1B28665  22.400  23.500   8.980
 1195BOLB   C2B28666  22.210  23.840   8.770
 1195BOLB   C3B28667  22.100  24.140   8.630
 1195BOLB   C4B28668  22.090  24.340   8.220
 1195BOLB   NC228669  23.460  26.790   8.890
 1195BOLB   PO228670  23.390  26.880   9.280
 1195BOLB   GL328671  23.280  26.450   9.290
 1195BOLB   GL428672  23.320  26.240   8.950
 1195BOLB   C1C28673  23.300  26.000   9.420
 1195BOLB   C2C28674  23.370  25.630   9.490
 1195BOLB   C3C28675  23.360  25.280   9.740
 1195BOLB   C4C28676  23.380  24.780   9.760
 1195BOLB   C1D28677  22.850  26.240   9.150
 1195BOLB   C2D28678  22.470  26.160   9.180
 1195BOLB   C3D28679  22.000  26.350   9.180
 1195BOLB   C4D28680  21.830  26.670   9.040
 1196BOLB   NC128681  22.950  22.300  10.250
 1196BOLB   PO128682  22.670  22.380   9.990
 1196BOLB   GL128683  22.830  22.780   9.950
 1196BOLB   GL228684  22.900  22.860  10.150
 1196BOLB   C1A28685  23.010  23.080   9.740
 1196BOLB   C2A28686  23.170  23.450   9.810
 1196BOLB   C3A28687  23.580  23.570   9.670
 1196BOLB   C4A28688  23.730  23.490   9.170
 1196BOLB   C1B28689  23.070  23.330  10.280
 1196BOLB   C2B28690  23.370  23.640  10.260
 1196BOLB   C3B28691  23.520  23.950   9.980
 1196BOLB   C4B28692  23.760  24.180   9.860
 1196BOLB   NC228693  24.940  25.100   8.340
 1196BOLB   PO228694  24.760  25.460   8.570
 1196BOLB   GL328695  24.220  25.570   8.700
 1196BOLB   GL428696  24.210  25.540   9.110
 1196BOLB   C1C28697  23.890  25.240   8.790
 1196BOLB   C2C28698  23.830  24.850   9.030
 1196BOLB   C3C28699  23.930  24.340   8.960
 1196BOLB   C4C28700  23.870  23.870   9.000
 1196BOLB   C1D28701  24.280  25.070   9.330
 1196BOLB   C2D28702  24.180  24.640   9.380
 1196BOLB   C3D28703  24.060  24.210   9.450
 1196BOLB   C4D28704  24.050  23.810   9.480
 1197BOLB   NC128705  16.930  17.040   4.350
 1197BOLB   PO128706  16.810  16.610   4.380
 1197BOLB   GL128707  16.850  16.810   3.930
 1197BOLB   GL228708  17.160  16.930   3.940
 1197BOLB   C1A28709  16.800  17.050   3.570
 1197BOLB   C2A28710  16.500  17.250   3.290
 1197BOLB   C3A28711  16.300  17.170   2.910
 1197BOLB   C4A28712  16.160  17.020   2.500
 1197BOLB   C1B28713  17.310  16.950   3.510
 1197BOLB   C2B28714  17.330  16.970   3.140
 1197BOLB   C3B28715  17.520  17.040   2.720
 1197BOLB   C4B28716  17.650  17.040   2.320
 1197BOLB   NC228717  16.110  17.370   0.210
 1197BOLB   PO228718  16.480  17.380   0.080
 1197BOLB   GL328719  16.470  17.390   0.530
 1197BOLB   GL428720  16.600  16.930   0.570
 1197BOLB   C1C28721  16.380  17.280   0.920
 1197BOLB   C2C28722  16.270  17.060   1.280
 1197BOLB   C3C28723  16.170  17.260   1.710
 1197BOLB   C4C28724  16.230  17.200   2.170
 1197BOLB   C1D28725  16.900  16.940   0.980
 1197BOLB   C2D28726  16.780  17.210   1.300
 1197BOLB   C3D28727  16.710  17.390   1.760
 1197BOLB   C4D28728  16.890  17.380   2.060
 1198BOLB   NC128729  11.060   9.940  12.170
 1198BOLB   PO128730  11.120   9.580  11.840
 1198BOLB   GL128731  11.080   9.200  11.840
 1198BOLB   GL228732  11.410   8.980  11.980
 1198BOLB   C1A28733  10.800   8.970  11.750
 1198BOLB   C2A28734  10.390   8.910  11.540
 1198BOLB   C3A28735  10.000   8.790  11.560
 1198BOLB   C4A28736   9.800   8.560  11.320
 1198BOLB   C1B28737  11.080   8.590  12.060
 1198BOLB   C2B28738  10.710   8.400  11.850
 1198BOLB   C3B28739  10.280   8.080  11.880
 1198BOLB   C4B28740   9.830   8.430  11.870
 1198BOLB   NC228741   8.540   6.700  12.120
 1198BOLB   PO228742   8.170   6.620  11.830
 1198BOLB   GL328743   8.330   7.070  11.770
 1198BOLB   GL428744   8.680   6.960  11.710
 1198BOLB   C1C28745   8.420   7.440  11.670
 1198BOLB   C2C28746   8.730   7.720  11.600
 1198BOLB   C3C28747   9.040   8.000  11.490
 1198BOLB   C4C28748   9.430   8.200  11.270
 1198BOLB   C1D28749   8.850   7.310  11.900
 1198BOLB   C2D28750   9.210   7.620  11.760
 1198BOLB   C3D28751   9.510   7.890  11.610
 1198BOLB   C4D28752   9.950   8.070  11.470
 1199BOLB   NC128753  17.000  10.390   6.820
 1199BOLB   PO128754  16.680  10.100   6.880
 1199BOLB   GL128755  16.820   9.610   6.890
 1199BOLB   GL228756  17.020   9.450   6.660
 1199BOLB   C1A28757  16.660   9.130   6.850
 1199BOLB   C2A28758  16.540   8.760   6.950
 1199BOLB   C3A28759  16.610   8.340   6.920
 1199BOLB   C4A28760  16.770   7.880   6.940
 1199BOLB   C1B28761  17.230   9.140   6.800
 1199BOLB   C2B28762  17.480   8.640   6.820
 1199BOLB   C3B28763  17.720   8.340   6.660
 1199BOLB   C4B28764  17.730   7.930   6.490
 1199BOLB   NC228765  17.010   6.040   5.710
 1199BOLB   PO228766  16.580   5.880   5.710
 1199BOLB   GL328767  16.510   6.300   5.880
 1199BOLB   GL428768  16.750   6.500   5.880
 1199BOLB   C1C28769  16.190   6.670   6.020
 1199BOLB   C2C28770  16.240   7.090   6.250
 1199BOLB   C3C28771  16.330   7.510   6.420
 1199BOLB   C4C28772  16.550   7.530   6.860
 1199BOLB   C1D28773  16.640   6.900   5.970
 1199BOLB   C2D28774  16.640   7.430   5.980
 1199BOLB   C3D28775  16.640   7.780   6.110
 1199BOLB   C4D28776  16.780   8.020   6.440
 1200BOLB   NC128777  18.460  20.270  19.500
 1200BOLB   PO128778  18.480  19.940  19.820
 1200BOLB   GL128779  18.780  19.890  20.130
 1200BOLB   GL228780  18.820  20.170  20.320
 1200BOLB   C1A28781  18.980  19.700  20.520
 1200BOLB   C2A28782  19.370  19.530  20.680
 1200BOLB   C3A28783  19.630  19.680  21.030
 1200BOLB   C4A28784  19.930  19.660  21.360
 1200BOLB   C1B28785  19.150  20.520  20.550
 1200BOLB   C2B28786  19.580  20.580  20.780
 1200BOLB   C3B28787  19.840  20.720  21.120
 1200BOLB   C4B28788  20.130  20.770  21.450
 1200BOLB   NC228789  21.310  18.930  23.510
 1200BOLB   PO228790  21.000  19.260  23.320
 1200BOLB   GL328791  21.020  19.430  22.880
 1200BOLB   GL428792  21.350  19.490  22.630
 1200BOLB   C1C28793  20.900  19.700  22.530
 1200BOLB   C2C28794  20.730  19.580  22.140
 1200BOLB   C3C28795  20.360  19.540  22.030
 1200BOLB   C4C28796  20.020  19.540  21.760
 1200BOLB   C1D28797  21.250  19.420  22.210
 1200BOLB   C2D28798  21.040  19.180  21.820
 1200BOLB   C3D28799  20.640  19.340  21.610
 1200BOLB   C4D28800  20.460  19.730  21.610
 1201BOLB   NC128801  20.290  24.230  11.150
 1201BOLB   PO128802  20.570  24.060  10.890
 1201BOLB   GL128803  20.470  24.410  10.680
 1201BOLB   GL228804  20.490  24.660  10.940
 1201BOLB   C1A28805  20.560  24.780  10.470
 1201BOLB   C2A28806  20.900  25.090  10.380
 1201BOLB   C3A28807  21.190  25.410  10.450
 1201BOLB   C4A28808  21.500  25.640  10.150
 1201BOLB   C1B28809  20.660  25.210  10.820
 1201BOLB   C2B28810  20.690  25.590  10.620
 1201BOLB   C3B28811  20.780  26.060  10.650
 1201BOLB   C4B28812  21.180  26.250  10.630
 1201BOLB   NC228813  21.800  28.670  10.270
 1201BOLB   PO228814  21.660  28.240   9.950
 1201BOLB   GL328815  21.520  27.830  10.090
 1201BOLB   GL428816  21.390  27.680   9.890
 1201BOLB   C1C28817  21.620  27.390  10.240
 1201BOLB   C2C28818  21.790  27.000  10.140
 1201BOLB   C3C28819  21.880  26.520  10.330
 1201BOLB   C4C28820  21.690  26.080  10.250
 1201BOLB   C1D28821  21.380  27.190   9.900
 1201BOLB   C2D28822  21.280  26.750   9.770
 1201BOLB   C3D28823  21.090  26.430   9.620
 1201BOLB   C4D28824  20.840  26.080   9.740
 1202BOLB   NC128825  18.740   9.400  10.750
 1202BOLB   PO128826  18.360   9.250  10.480
 1202BOLB   GL128827  18.720   8.950  10.540
 1202BOLB   GL228828  19.020   9.060  10.460
 1202BOLB   C1A28829  18.690   8.530  10.300
 1202BOLB   C2A28830  18.810   8.220  10.130
 1202BOLB   C3A28831  18.840   7.750  10.180
 1202BOLB   C4A28832  19.020   7.240  10.010
 1202BOLB   C1B28833  19.140   8.760  10.220
 1202BOLB   C2B28834  19.400   8.370  10.370
 1202BOLB   C3B28835  19.190   7.970  10.550
 1202BOLB   C4B28836  19.340   7.620  10.930
 1202BOLB   NC228837  19.020   5.370   9.160
 1202BOLB   PO228838  19.150   5.270   9.550
 1202BOLB   GL328839  19.280   5.740   9.440
 1202BOLB   GL428840  19.110   5.810   9.650
 1202BOLB   C1C28841  19.590   6.020   9.510
 1202BOLB   C2C28842  19.630   6.410   9.700
 1202BOLB   C3C28843  19.530   6.810   9.580
 1202BOLB   C4C28844  19.240   6.980   9.750
 1202BOLB   C1D28845  19.160   6.260   9.620
 1202BOLB   C2D28846  19.100   6.600   9.400
 1202BOLB   C3D28847  19.110   7.040   9.270
 1202BOLB   C4D28848  18.880   7.460   9.290
 1203BOLB   NC128849  14.800  13.270   4.460
 1203BOLB   PO128850  14.490  13.610   4.440
 1203BOLB   GL128851  14.340  13.250   4.230
 1203BOLB   GL228852  14.180  13.100   4.070
 1203BOLB   C1A28853  14.570  12.880   4.020
 1203BOLB   C2A28854  14.550  12.690   3.690
 1203BOLB   C3A28855  14.200  12.410   3.460
 1203BOLB   C4A28856  14.220  12.090   3.350
 1203BOLB   C1B28857  14.080  12.920   3.640
 1203BOLB   C2B28858  13.810  12.690   3.350
 1203BOLB   C3B28859  13.460  12.400   3.070
 1203BOLB   C4B28860  13.110  12.030   3.000
 1203BOLB   NC228861  14.100  10.960   0.960
 1203BOLB   PO228862  14.310  10.810   1.390
 1203BOLB   GL328863  14.340  11.220   1.650
 1203BOLB   GL428864  14.480  11.360   1.420
 1203BOLB   C1C28865  14.110  11.430   2.000
 1203BOLB   C2C28866  13.930  11.630   2.350
 1203BOLB   C3C28867  13.780  11.920   2.790
 1203BOLB   C4C28868  13.860  11.970   3.080
 1203BOLB   C1D28869  14.940  11.270   1.420
 1203BOLB   C2D28870  15.330  11.410   1.640
 1203BOLB   C3D28871  15.660  11.390   1.980
 1203BOLB   C4D28872  15.820  11.240   2.330
 1204BOLB   NC128873  16.630  20.510  20.000
 1204BOLB   PO128874  16.690  20.420  20.560
 1204BOLB   GL128875  16.520  20.310  20.970
 1204BOLB   GL228876  16.290  20.050  21.120
 1204BOLB   C1A28877  16.600  20.410  21.360
 1204BOLB   C2A28878  16.880  20.500  21.820
 1204BOLB   C3A28879  16.820  20.560  22.290
 1204BOLB   C4A28880  16.590  20.830  22.590
 1204BOLB   C1B28881  16.120  20.140  21.470
 1204BOLB   C2B28882  16.020  20.230  21.870
 1204BOLB   C3B28883  15.980  20.120  22.210
 1204BOLB   C4B28884  16.110  20.140  22.620
 1204BOLB   NC228885  16.730  20.990  25.530
 1204BOLB   PO228886  16.730  20.990  25.070
 1204BOLB   GL328887  16.660  20.850  24.620
 1204BOLB   GL428888  16.650  20.600  24.710
 1204BOLB   C1C28889  16.470  20.940  24.220
 1204BOLB   C2C28890  16.310  20.880  23.740
 1204BOLB   C3C28891  16.490  20.850  23.370
 1204BOLB   C4C28892  16.760  20.870  22.970
 1204BOLB   C1D28893  16.840  20.500  24.290
 1204BOLB   C2D28894  16.610  20.530  23.960
 1204BOLB   C3D28895  16.480  20.240  23.560
 1204BOLB   C4D28896  16.670  19.930  23.250
 1205BOLB   NC128897   9.430  15.500   7.240
 1205BOLB   PO128898   9.780  15.740   7.350
 1205BOLB   GL128899   9.470  16.080   7.310
 1205BOLB   GL228900   9.110  15.910   7.440
 1205BOLB   C1A28901   9.010  16.110   6.920
 1205BOLB   C2A28902   8.640  16.300   6.730
 1205BOLB   C3A28903   8.540  16.520   6.340
 1205BOLB   C4A28904   8.310  16.810   6.110
 1205BOLB   C1B28905   8.760  15.760   7.150
 1205BOLB   C2B28906   8.590  15.810   6.750
 1205BOLB   C3B28907   8.130  15.800   6.600
 1205BOLB   C4B28908   7.780  15.650   6.440
 1205BOLB   NC228909   6.800  17.900   4.790
 1205BOLB   PO228910   6.570  17.410   4.650
 1205BOLB   GL328911   7.010  17.410   4.870
 1205BOLB   GL428912   7.170  17.590   4.940
 1205BOLB   C1C28913   7.260  17.030   5.120
 1205BOLB   C2C28914   7.510  16.700   5.280
 1205BOLB   C3C28915   7.930  16.780   5.410
 1205BOLB   C4C28916   7.990  16.770   5.860
 1205BOLB   C1D28917   7.550  17.840   5.020
 1205BOLB   C2D28918   7.930  17.920   5.120
 1205BOLB   C3D28919   8.440  17.990   5.340
 1205BOLB   C4D28920   8.710  17.970   5.690
 1206BOLB   NC128921  15.470  16.990   4.820
 1206BOLB   PO128922  15.390  17.240   4.470
 1206BOLB   GL128923  15.280  17.370   4.130
 1206BOLB   GL228924  15.080  17.610   4.170
 1206BOLB   C1A28925  15.190  17.370   3.680
 1206BOLB   C2A28926  14.940  17.420   3.310
 1206BOLB   C3A28927  14.960  17.550   2.870
 1206BOLB   C4A28928  14.770  17.740   2.560
 1206BOLB   C1B28929  15.020  17.800   3.810
 1206BOLB   C2B28930  14.640  17.930   3.560
 1206BOLB   C3B28931  14.610  17.770   3.090
 1206BOLB   C4B28932  14.440  17.480   2.840
 1206BOLB   NC228933  14.730  19.730   0.840
 1206BOLB   PO228934  14.730  19.310   0.970
 1206BOLB   GL328935  14.630  19.080   1.330
 1206BOLB   GL428936  14.280  19.120   1.450
 1206BOLB   C1C28937  14.810  18.970   1.780
 1206BOLB   C2C28938  15.040  18.750   2.110
 1206BOLB   C3C28939  14.700  18.510   2.320
 1206BOLB   C4C28940  14.640  18.060   2.270
 1206BOLB   C1D28941  13.980  19.050   1.800
 1206BOLB   C2D28942  13.960  19.030   2.280
 1206BOLB   C3D28943  13.950  18.780   2.660
 1206BOLB   C4D28944  14.160  18.530   2.950
 1207BOLB   NC128945  20.680  22.200  16.680
 1207BOLB   PO128946  20.720  22.050  17.000
 1207BOLB   GL128947  21.040  22.200  17.300
 1207BOLB   GL228948  21.200  22.040  17.500
 1207BOLB   C1A28949  21.290  22.470  17.620
 1207BOLB   C2A28950  21.570  22.660  17.990
 1207BOLB   C3A28951  21.620  22.880  18.420
 1207BOLB   C4A28952  21.590  23.050  18.850
 1207BOLB   C1B28953  21.450  22.080  17.930
 1207BOLB   C2B28954  21.800  22.230  18.150
 1207BOLB   C3B28955  22.000  22.640  18.270
 1207BOLB   C4B28956  22.270  22.840  18.530
 1207BOLB   NC228957  22.130  24.870  20.730
 1207BOLB   PO228958  21.840  24.540  20.790
 1207BOLB   GL328959  21.640  24.300  20.470
 1207BOLB   GL428960  21.780  24.100  20.430
 1207BOLB   C1C28961  21.400  24.050  20.150
 1207BOLB   C2C28962  21.290  23.730  19.880
 1207BOLB   C3C28963  21.450  23.560  19.500
 1207BOLB   C4C28964  21.500  23.370  19.170
 1207BOLB   C1D28965  21.830  24.130  19.970
 1207BOLB   C2D28966  21.860  23.850  19.710
 1207BOLB   C3D28967  21.980  23.490  19.500
 1207BOLB   C4D28968  22.020  23.250  19.120
 1208BOLB   NC128969  20.810  10.370  12.450
 1208BOLB   PO128970  20.550  10.150  12.640
 1208BOLB   GL128971  20.980  10.200  12.840
 1208BOLB   GL228972  21.270  10.140  12.720
 1208BOLB   C1A28973  21.290  10.380  13.170
 1208BOLB   C2A28974  21.520  10.320  13.580
 1208BOLB   C3A28975  21.820  10.180  13.830
 1208BOLB   C4A28976  22.090   9.980  14.030
 1208BOLB   C1B28977  21.570   9.940  12.980
 1208BOLB   C2B28978  21.920   9.910  13.380
 1208BOLB   C3B28979  22.220   9.690  13.620
 1208BOLB   C4B28980  22.480   9.360  13.850
 1208BOLB   NC228981  23.960   8.540  14.280
 1208BOLB   PO228982  23.760   8.270  13.950
 1208BOLB   GL328983  23.470   8.630  14.060
 1208BOLB   GL428984  23.400   8.620  14.460
 1208BOLB   C1C28985  23.220   9.010  14.260
 1208BOLB   C2C28986  22.850   9.310  14.290
 1208BOLB   C3C28987  22.620   9.560  14.450
 1208BOLB   C4C28988  22.400   9.760  14.110
 1208BOLB   C1D28989  23.240   8.880  14.750
 1208BOLB   C2D28990  23.140   9.210  15.070
 1208BOLB   C3D28991  22.870   9.440  15.290
 1208BOLB   C4D28992  22.510   9.160  15.180
 1209BOLB   NC128993   8.860  19.200   9.020
 1209BOLB   PO128994   8.870  19.130   9.400
 1209BOLB   GL128995   8.400  19.420   9.430
 1209BOLB   GL228996   8.440  19.740   9.610
 1209BOLB   C1A28997   8.180  19.150   9.320
 1209BOLB   C2A28998   7.770  19.030   9.080
 1209BOLB   C3A28999   7.600  18.610   8.940
 1209BOLB   C4A29000   7.280  18.430   8.850
 1209BOLB   C1B29001   8.250  20.120   9.420
 1209BOLB   C2B29002   7.760  20.170   9.300
 1209BOLB   C3B29003   7.440  20.310   9.450
 1209BOLB   C4B29004   6.960  20.230   9.650
 1209BOLB   NC229005   5.190  18.530   7.450
 1209BOLB   PO229006   5.310  18.950   7.430
 1209BOLB   GL329007   5.750  18.660   7.570
 1209BOLB   GL429008   6.010  18.880   7.380
 1209BOLB   C1C29009   6.030  18.550   7.800
 1209BOLB   C2C29010   6.300  18.610   8.220
 1209BOLB   C3C29011   6.680  18.720   8.480
 1209BOLB   C4C29012   6.890  18.550   8.800
 1209BOLB   C1D29013   6.410  18.950   7.590
 1209BOLB   C2D29014   6.840  19.150   7.560
 1209BOLB   C3D29015   7.290  18.990   7.680
 1209BOLB   C4D29016   7.640  18.870   7.850
 1210BOLB   NC129017  17.460  25.350  11.540
 1210BOLB   PO129018  17.260  25.610  11.560
 1210BOLB   GL129019  17.480  25.900  11.500
 1210BOLB   GL229020  17.360  26.020  11.160
 1210BOLB   C1A29021  17.840  26.150  11.380
 1210BOLB   C2A29022  18.230  26.280  11.270
 1210BOLB   C3A29023  18.500  26.420  11.000
 1210BOLB   C4A29024  18.720  26.770  10.920
 1210BOLB   C1B29025  17.520  26.480  11.180
 1210BOLB   C2B29026  17.630  26.720  11.450
 1210BOLB   C3B29027  17.830  26.920  11.800
 1210BOLB   C4B29028  17.760  26.770  12.170
 1210BOLB   NC229029  18.630  29.390  10.490
 1210BOLB   PO229030  18.570  28.910  10.510
 1210BOLB   GL329031  18.740  28.450  10.510
 1210BOLB   GL429032  19.000  28.390  10.790
 1210BOLB   C1C29033  19.180  28.180  10.410
 1210BOLB   C2C29034  19.180  27.710  10.390
 1210BOLB   C3C29035  19.210  27.330  10.550
 1210BOLB   C4C29036  19.150  27.020  10.810
 1210BOLB   C1D29037  18.800  27.880  10.690
 1210BOLB   C2D29038  18.700  27.450  10.630
 1210BOLB   C3D29039  18.690  27.050  10.500
 1210BOLB   C4D29040  19.010  26.960  10.230
 1211BOLB   NC129041  18.340  17.970   5.010
 1211BOLB   PO129042  18.250  18.070   4.660
 1211BOLB   GL129043  18.310  18.050   4.190
 1211BOLB   GL229044  18.550  18.270   4.050
 1211BOLB   C1A29045  18.370  17.960   3.740
 1211BOLB   C2A29046  18.560  18.040   3.190
 1211BOLB   C3A29047  18.440  18.010   2.710
 1211BOLB   C4A29048  18.660  18.060   2.350
 1211BOLB   C1B29049  18.440  18.390   3.570
 1211BOLB   C2B29050  18.290  18.450   3.150
 1211BOLB   C3B29051  18.120  18.700   2.830
 1211BOLB   C4B29052  17.710  18.930   2.760
 1211BOLB   NC229053  19.300  18.600   0.230
 1211BOLB   PO229054  18.960  18.490   0.540
 1211BOLB   GL329055  19.220  18.060   0.720
 1211BOLB   GL429056  19.090  18.160   1.020
 1211BOLB   C1C29057  19.090  17.690   1.020
 1211BOLB   C2C29058  18.960  17.620   1.360
 1211BOLB   C3C29059  19.110  17.800   1.720
 1211BOLB   C4C29060  18.890  18.060   2.000
 1211BOLB   C1D29061  19.340  18.240   1.480
 1211BOLB   C2D29062  19.310  18.300   1.920
 1211BOLB   C3D29063  19.400  18.540   2.170
 1211BOLB   C4D29064  19.310  18.670   2.520
 1212BOLB   NC129065  16.110  11.970   5.240
 1212BOLB   PO129066  16.300  11.630   5.140
 1212BOLB   GL129067  16.250  11.250   5.070
 1212BOLB   GL229068  16.150  11.330   4.750
 1212BOLB   C1A29069  15.970  10.890   5.050
 1212BOLB   C2A29070  15.860  10.520   4.700
 1212BOLB   C3A29071  15.730  10.110   4.510
 1212BOLB   C4A29072  15.600   9.690   4.430
 1212BOLB   C1B29073  15.910  11.080   4.490
 1212BOLB   C2B29074  15.640  10.770   4.330
 1212BOLB   C3B29075  15.430  10.510   3.990
 1212BOLB   C4B29076  15.350  10.280   3.580
 1212BOLB   NC229077  15.630   8.940   2.220
 1212BOLB   PO229078  15.170   8.790   2.320
 1212BOLB   GL329079  15.170   8.740   2.690
 1212BOLB   GL429080  15.390   8.480   2.890
 1212BOLB   C1C29081  15.110   8.850   3.210
 1212BOLB   C2C29082  15.030   9.150   3.550
 1212BOLB   C3C29083  15.050   9.430   3.970
 1212BOLB   C4C29084  15.410   9.470   4.140
 1212BOLB   C1D29085  15.430   8.510   3.390
 1212BOLB   C2D29086  15.290   8.720   3.770
 1212BOLB   C3D29087  14.840   8.870   3.870
 1212BOLB   C4D29088  14.520   9.210   3.830
 1213BOLB   NC129089  14.500  19.310   5.870
 1213BOLB   PO129090  14.330  19.640   5.610
 1213BOLB   GL129091  14.160  19.870   5.320
 1213BOLB   GL229092  13.920  19.980   5.390
 1213BOLB   C1A29093  14.360  20.200   5.050
 1213BOLB   C2A29094  14.560  20.470   4.800
 1213BOLB   C3A29095  14.490  20.750   4.370
 1213BOLB   C4A29096  14.400  21.030   4.030
 1213BOLB   C1B29097  13.840  20.330   5.080
 1213BOLB   C2B29098  14.120  20.530   4.620
 1213BOLB   C3B29099  14.030  20.800   4.230
 1213BOLB   C4B29100  13.660  21.070   3.940
 1213BOLB   NC229101  13.930  23.390   2.630
 1213BOLB   PO229102  13.550  23.020   2.720
 1213BOLB   GL329103  13.760  22.820   3.000
 1213BOLB   GL429104  13.960  23.120   3.050
 1213BOLB   C1C29105  13.880  22.450   3.380
 1213BOLB   C2C29106  13.850  21.960   3.530
 1213BOLB   C3C29107  14.050  21.550   3.440
 1213BOLB   C4C29108  14.090  21.150   3.690
 1213BOLB   C1D29109  13.960  22.950   3.480
 1213BOLB   C2D29110  14.300  22.830   3.730
 1213BOLB   C3D29111  14.430  22.490   4.080
 1213BOLB   C4D29112  14.580  22.060   4.280
 1214BOLB   NC129113  14.650   9.040  10.220
 1214BOLB   PO129114  15.040   9.030  10.270
 1214BOLB   GL129115  15.090   8.680  10.380
 1214BOLB   GL229116  14.840   8.640  10.530
 1214BOLB   C1A29117  15.180   8.330  10.270
 1214BOLB   C2A29118  15.180   7.860  10.070
 1214BOLB   C3A29119  15.100   7.580   9.760
 1214BOLB   C4A29120  15.160   7.180   9.750
 1214BOLB   C1B29121  14.510   8.330  10.580
 1214BOLB   C2B29122  14.120   8.030  10.400
 1214BOLB   C3B29123  14.030   7.640  10.320
 1214BOLB   C4B29124  14.120   7.200  10.220
 1214BOLB   NC229125  13.990   5.370   9.170
 1214BOLB   PO229126  14.430   5.350   9.170
 1214BOLB   GL329127  14.770   5.640   9.290
 1214BOLB   GL429128  15.020   5.640   9.020
 1214BOLB   C1C29129  14.700   6.010   9.460
 1214BOLB   C2C29130  14.940   6.040   9.770
 1214BOLB   C3C29131  15.200   6.330   9.960
 1214BOLB   C4C29132  15.250   6.750   9.740
 1214BOLB   C1D29133  15.120   6.110   9.140
 1214BOLB   C2D29134  15.230   6.490   9.280
 1214BOLB   C3D29135  15.420   6.800   9.190
 1214BOLB   C4D29136  15.500   7.220   8.950
 1215BOLB   NC129137  20.450  15.460   4.970
 1215BOLB   PO129138  20.170  15.630   4.830
 1215BOLB   GL129139  20.150  15.440   4.450
 1215BOLB   GL229140  20.050  15.720   4.350
 1215BOLB   C1A29141  20.300  15.320   4.130
 1215BOLB   C2A29142  20.320  14.890   3.910
 1215BOLB   C3A29143  20.180  14.690   3.450
 1215BOLB   C4A29144  20.470  14.480   3.250
 1215BOLB   C1B29145  20.290  15.860   4.050
 1215BOLB   C2B29146  20.280  15.930   3.590
 1215BOLB   C3B29147  20.350  15.760   3.170
 1215BOLB   C4B29148  20.700  15.650   2.920
 1215BOLB   NC229149  22.610  14.550   1.200
 1215BOLB   PO229150  22.270  14.400   1.430
 1215BOLB   GL329151  22.030  14.420   1.920
 1215BOLB   GL429152  22.280  14.520   2.190
 1215BOLB   C1C29153  21.710  14.340   2.120
 1215BOLB   C2C29154  21.470  14.370   2.490
 1215BOLB   C3C29155  21.060  14.490   2.680
 1215BOLB   C4C29156  20.730  14.520   2.880
 1215BOLB   C1D29157  21.980  14.400   2.620
 1215BOLB   C2D29158  21.980  14.240   2.990
 1215BOLB   C3D29159  21.540  14.240   3.110
 1215BOLB   C4D29160  21.430  14.460   3.450
 1216BOLB   NC129161  27.900  15.140  13.930
 1216BOLB   PO129162  27.870  14.800  13.750
 1216BOLB   GL129163  27.400  14.960  13.700
 1216BOLB   GL229164  27.520  15.100  13.440
 1216BOLB   C1A29165  27.210  15.320  13.830
 1216BOLB   C2A29166  27.000  15.640  13.880
 1216BOLB   C3A29167  26.610  15.800  13.920
 1216BOLB   C4A29168  26.200  15.800  14.010
 1216BOLB   C1B29169  27.020  15.150  13.370
 1216BOLB   C2B29170  26.740  15.230  13.670
 1216BOLB   C3B29171  26.420  15.290  13.930
 1216BOLB   C4B29172  26.020  15.230  14.250
 1216BOLB   NC229173  27.620  15.560  16.010
 1216BOLB   PO229174  27.550  15.740  15.700
 1216BOLB   GL329175  27.110  15.640  15.550
 1216BOLB   GL429176  27.040  15.660  15.850
 1216BOLB   C1C29177  26.620  15.530  15.600
 1216BOLB   C2C29178  26.360  15.400  15.210
 1216BOLB   C3C29179  26.100  15.510  14.840
 1216BOLB   C4C29180  26.070  15.710  14.420
 1216BOLB   C1D29181  26.640  15.850  15.990
 1216BOLB   C2D29182  26.180  15.890  15.780
 1216BOLB   C3D29183  25.800  16.020  15.660
 1216BOLB   C4D29184  25.310  16.060  15.570
 1217BOLB   NC129185  12.650  15.050   4.600
 1217BOLB   PO129186  12.630  14.630   4.590
 1217BOLB   GL129187  12.470  14.680   4.280
 1217BOLB   GL229188  12.760  14.860   4.090
 1217BOLB   C1A29189  12.100  14.510   3.950
 1217BOLB   C2A29190  11.730  14.710   3.720
 1217BOLB   C3A29191  11.540  14.650   3.410
 1217BOLB   C4A29192  11.250  14.680   3.080
 1217BOLB   C1B29193  12.760  14.490   3.770
 1217BOLB   C2B29194  12.420  14.370   3.570
 1217BOLB   C3B29195  12.080  14.370   3.160
 1217BOLB   C4B29196  12.010  14.420   2.610
 1217BOLB   NC229197  11.840  13.630   0.800
 1217BOLB   PO229198  11.450  13.350   0.920
 1217BOLB   GL329199  11.470  13.350   1.310
 1217BOLB   GL429200  11.830  13.500   1.270
 1217BOLB   C1C29201  11.420  13.670   1.600
 1217BOLB   C2C29202  11.350  14.100   1.810
 1217BOLB   C3C29203  11.380  14.280   2.220
 1217BOLB   C4C29204  11.290  14.490   2.660
 1217BOLB   C1D29205  12.010  13.870   1.440
 1217BOLB   C2D29206  11.830  14.040   1.800
 1217BOLB   C3D29207  11.670  13.800   2.100
 1217BOLB   C4D29208  11.220  13.770   2.130
 1218BOLB   NC129209  20.060  16.090   4.950
 1218BOLB   PO129210  19.720  15.970   4.660
 1218BOLB   GL129211  19.760  16.110   4.250
 1218BOLB   GL229212  19.680  15.850   4.040
 1218BOLB   C1A29213  19.990  16.450   4.010
 1218BOLB   C2A29214  20.100  16.700   3.710
 1218BOLB   C3A29215  20.410  16.780   3.360
 1218BOLB   C4A29216  20.390  16.730   2.910
 1218BOLB   C1B29217  19.790  16.010   3.730
 1218BOLB   C2B29218  19.880  15.950   3.250
 1218BOLB   C3B29219  20.100  15.980   2.740
 1218BOLB   C4B29220  20.390  16.380   2.590
 1218BOLB   NC229221  20.470  17.130   0.590
 1218BOLB   PO229222  20.760  16.830   0.740
 1218BOLB   GL329223  20.690  16.990   1.120
 1218BOLB   GL429224  20.820  17.170   1.380
 1218BOLB   C1C29225  20.370  17.000   1.490
 1218BOLB   C2C29226  20.330  17.120   1.920
 1218BOLB   C3C29227  20.310  17.210   2.460
 1218BOLB   C4C29228  20.260  16.920   2.740
 1218BOLB   C1D29229  20.930  17.610   1.450
 1218BOLB   C2D29230  20.560  17.510   1.660
 1218BOLB   C3D29231  20.450  17.630   2.010
 1218BOLB   C4D29232  19.970  17.640   2.110
 1219BOLB   NC129233   8.850  25.960  23.340
 1219BOLB   PO129234   8.630  25.770  23.510
 1219BOLB   GL129235   8.750  25.410  23.410
 1219BOLB   GL229236   8.560  25.160  23.100
 1219BOLB   C1A29237   9.070  25.260  23.110
 1219BOLB   C2A29238   8.950  25.190  22.740
 1219BOLB   C3A29239   8.780  24.980  22.350
 1219BOLB   C4A29240   8.670  24.760  21.960
 1219BOLB   C1B29241   8.680  24.740  22.850
 1219BOLB   C2B29242   8.460  24.390  22.800
 1219BOLB   C3B29243   8.170  24.140  22.920
 1219BOLB   C4B29244   7.920  24.030  23.300
 1219BOLB   NC229245   8.340  26.590  21.750
 1219BOLB   PO229246   8.200  26.520  21.380
 1219BOLB   GL329247   8.420  26.250  21.100
 1219BOLB   GL429248   8.580  26.400  20.880
 1219BOLB   C1C29249   8.340  25.840  20.870
 1219BOLB   C2C29250   8.330  25.560  21.150
 1219BOLB   C3C29251   8.310  25.230  21.550
 1219BOLB   C4C29252   8.450  24.770  21.640
 1219BOLB   C1D29253   8.820  26.080  20.820
 1219BOLB   C2D29254   9.100  25.740  20.910
 1219BOLB   C3D29255   9.180  25.300  20.960
 1219BOLB   C4D29256   9.000  24.800  20.870
 1220BOLB   NC129257  11.110  21.670  10.000
 1220BOLB   PO129258  11.080  21.870   9.740
 1220BOLB   GL129259  10.710  22.000   9.570
 1220BOLB   GL229260  10.640  21.890   9.250
 1220BOLB   C1A29261  10.450  22.350   9.610
 1220BOLB   C2A29262  10.090  22.560   9.570
 1220BOLB   C3A29263   9.740  22.710   9.340
 1220BOLB   C4A29264   9.450  22.940   9.300
 1220BOLB   C1B29265  10.440  22.140   8.850
 1220BOLB   C2B29266  10.440  22.240   8.430
 1220BOLB   C3B29267  10.320  22.600   8.070
 1220BOLB   C4B29268  10.550  23.030   8.070
 1220BOLB   NC229269   8.000  24.430   7.930
 1220BOLB   PO229270   8.340  24.670   8.190
 1220BOLB   GL329271   8.470  24.290   8.280
 1220BOLB   GL429272   8.790  24.410   8.350
 1220BOLB   C1C29273   8.630  23.790   8.370
 1220BOLB   C2C29274   8.820  23.300   8.520
 1220BOLB   C3C29275   8.830  22.970   8.800
 1220BOLB   C4C29276   9.090  23.030   9.130
 1220BOLB   C1D29277   8.990  24.160   8.570
 1220BOLB   C2D29278   9.250  23.850   8.410
 1220BOLB   C3D29279   9.400  23.510   8.290
 1220BOLB   C4D29280   9.650  23.140   8.380
 1221BOLB   NC129281  19.810  24.400  15.090
 1221BOLB   PO129282  20.130  24.500  14.750
 1221BOLB   GL129283  20.400  24.930  14.790
 1221BOLB   GL229284  20.720  24.810  14.950
 1221BOLB   C1A29285  20.540  25.270  14.690
 1221BOLB   C2A29286  20.600  25.650  14.780
 1221BOLB   C3A29287  20.600  25.840  15.100
 1221BOLB   C4A29288  20.650  26.150  15.380
 1221BOLB   C1B29289  20.890  25.110  15.060
 1221BOLB   C2B29290  20.870  25.560  15.330
 1221BOLB   C3B29291  20.540  25.710  15.620
 1221BOLB   C4B29292  20.340  26.080  15.850
 1221BOLB   NC229293  20.870  28.660  16.530
 1221BOLB   PO229294  20.580  28.520  16.280
 1221BOLB   GL329295  20.320  28.100  16.170
 1221BOLB   GL429296  19.970  28.090  16.280
 1221BOLB   C1C29297  20.410  27.780  15.940
 1221BOLB   C2C29298  20.380  27.370  15.760
 1221BOLB   C3C29299  20.380  26.910  15.740
 1221BOLB   C4C29300  20.540  26.470  15.600
 1221BOLB   C1D29301  19.690  27.970  15.880
 1221BOLB   C2D29302  19.400  27.550  15.840
 1221BOLB   C3D29303  19.350  27.060  15.900
 1221BOLB   C4D29304  19.520  26.580  15.900
 1222BOLB   NC129305  18.620  12.590  18.060
 1222BOLB   PO129306  18.960  12.850  18.040
 1222BOLB   GL129307  19.040  12.590  18.260
 1222BOLB   GL229308  18.970  12.710  18.580
 1222BOLB   C1A29309  18.920  12.220  18.460
 1222BOLB   C2A29310  19.240  11.980  18.700
 1222BOLB   C3A29311  19.350  11.550  18.690
 1222BOLB   C4A29312  19.580  11.180  18.660
 1222BOLB   C1B29313  19.220  12.500  18.770
 1222BOLB   C2B29314  19.460  12.360  19.170
 1222BOLB   C3B29315  19.760  12.150  19.490
 1222BOLB   C4B29316  19.820  11.690  19.540
 1222BOLB   NC229317  21.140  10.670  20.510
 1222BOLB   PO229318  20.980  10.290  20.380
 1222BOLB   GL329319  20.790  10.230  19.900
 1222BOLB   GL429320  21.030  10.230  19.630
 1222BOLB   C1C29321  20.410  10.510  19.760
 1222BOLB   C2C29322  20.110  10.620  19.500
 1222BOLB   C3C29323  19.790  10.570  19.240
 1222BOLB   C4C29324  19.550  10.770  18.920
 1222BOLB   C1D29325  20.900  10.710  19.760
 1222BOLB   C2D29326  20.610  11.020  19.730
 1222BOLB   C3D29327  20.400  11.070  19.420
 1222BOLB   C4D29328  20.470  11.040  18.960
 1223BOLB   NC129329  11.900  14.350   4.920
 1223BOLB   PO129330  11.600  14.220   5.210
 1223BOLB   GL129331  11.370  14.150   4.890
 1223BOLB   GL229332  11.510  14.220   4.550
 1223BOLB   C1A29333  10.940  13.970   4.750
 1223BOLB   C2A29334  10.830  13.990   4.390
 1223BOLB   C3A29335  10.640  14.180   4.140
 1223BOLB   C4A29336  10.560  14.100   3.750
 1223BOLB   C1B29337  11.650  14.400   4.210
 1223BOLB   C2B29338  11.660  14.270   3.870
 1223BOLB   C3B29339  11.630  14.190   3.510
 1223BOLB   C4B29340  11.460  14.180   3.070
 1223BOLB   NC229341   9.050  12.560   3.210
 1223BOLB   PO229342   9.380  12.300   3.130
 1223BOLB   GL329343   9.470  12.810   3.300
 1223BOLB   GL429344   9.410  12.820   3.570
 1223BOLB   C1C29345   9.630  13.240   3.380
 1223BOLB   C2C29346  10.010  13.510   3.170
 1223BOLB   C3C29347  10.250  13.900   3.090
 1223BOLB   C4C29348  10.600  14.110   3.360
 1223BOLB   C1D29349   9.660  12.930   3.830
 1223BOLB   C2D29350  10.010  12.770   4.000
 1223BOLB   C3D29351  10.220  12.940   4.250
 1223BOLB   C4D29352  10.420  13.310   4.400
 1224BOLB   NC129353  18.800  13.820   5.480
 1224BOLB   PO129354  18.760  13.930   5.140
 1224BOLB   GL129355  18.700  13.870   4.690
 1224BOLB   GL229356  18.760  13.520   4.720
 1224BOLB   C1A29357  18.730  13.690   4.220
 1224BOLB   C2A29358  18.960  13.410   3.960
 1224BOLB   C3A29359  19.400  13.400   3.720
 1224BOLB   C4A29360  19.770  13.250   3.540
 1224BOLB   C1B29361  18.870  13.180   4.450
 1224BOLB   C2B29362  19.170  12.980   4.140
 1224BOLB   C3B29363  19.490  12.590   4.300
 1224BOLB   C4B29364  19.840  12.360   4.580
 1224BOLB   NC229365  20.090  12.910   1.090
 1224BOLB   PO229366  20.290  13.260   1.150
 1224BOLB   GL329367  20.320  13.320   1.590
 1224BOLB   GL429368  20.500  13.630   1.700
 1224BOLB   C1C29369  20.300  13.300   2.100
 1224BOLB   C2C29370  20.370  13.120   2.490
 1224BOLB   C3C29371  20.150  13.130   2.800
 1224BOLB   C4C29372  20.020  13.230   3.170
 1224BOLB   C1D29373  20.160  13.840   2.010
 1224BOLB   C2D29374  19.850  14.080   2.230
 1224BOLB   C3D29375  19.830  14.320   2.640
 1224BOLB   C4D29376  19.890  14.560   3.070
 1225BOLB   NC129377   8.430  14.850  10.670
 1225BOLB   PO129378   8.430  14.390  10.700
 1225BOLB   GL129379   8.160  14.200  10.700
 1225BOLB   GL229380   8.090  14.090  11.020
 1225BOLB   C1A29381   7.760  14.190  10.530
 1225BOLB   C2A29382   7.410  13.960  10.350
 1225BOLB   C3A29383   7.030  13.670  10.390
 1225BOLB   C4A29384   6.640  13.560  10.110
 1225BOLB   C1B29385   7.660  13.930  10.990
 1225BOLB   C2B29386   7.200  13.850  11.010
 1225BOLB   C3B29387   6.790  13.610  11.050
 1225BOLB   C4B29388   6.510  13.510  11.250
 1225BOLB   NC229389   4.820  12.870   8.740
 1225BOLB   PO229390   5.210  12.720   8.710
 1225BOLB   GL329391   5.490  12.740   9.060
 1225BOLB   GL429392   5.470  12.460   9.340
 1225BOLB   C1C29393   5.750  13.040   9.180
 1225BOLB   C2C29394   6.090  13.360   9.150
 1225BOLB   C3C29395   6.600  13.400   9.270
 1225BOLB   C4C29396   6.770  13.430   9.720
 1225BOLB   C1D29397   5.770  12.620   9.560
 1225BOLB   C2D29398   6.200  12.700   9.710
 1225BOLB   C3D29399   6.630  12.570   9.840
 1225BOLB   C4D29400   6.770  12.140   9.680
 1226BOLB   NC129401  14.840  24.650  11.040
 1226BOLB   PO129402  15.210  24.760  11.210
 1226BOLB   GL129403  15.280  25.140  11.040
 1226BOLB   GL229404  14.960  25.170  10.820
 1226BOLB   C1A29405  15.040  25.510  11.130
 1226BOLB   C2A29406  14.850  25.840  10.820
 1226BOLB   C3A29407  14.860  26.320  10.660
 1226BOLB   C4A29408  14.900  26.790  10.790
 1226BOLB   C1B29409  14.930  25.500  10.410
 1226BOLB   C2B29410  14.900  26.010  10.230
 1226BOLB   C3B29411  14.700  26.410  10.190
 1226BOLB   C4B29412  14.290  26.600  10.430
 1226BOLB   NC229413  13.910  29.110  11.120
 1226BOLB   PO229414  14.390  29.060  10.980
 1226BOLB   GL329415  14.530  28.660  11.020
 1226BOLB   GL429416  14.310  28.400  11.080
 1226BOLB   C1C29417  14.820  28.480  10.780
 1226BOLB   C2C29418  14.830  28.030  10.590
 1226BOLB   C3C29419  14.860  27.660  10.630
 1226BOLB   C4C29420  14.860  27.290  10.880
 1226BOLB   C1D29421  14.410  27.960  10.960
 1226BOLB   C2D29422  14.400  27.570  11.120
 1226BOLB   C3D29423  14.610  27.210  11.310
 1226BOLB   C4D29424  14.720  26.840  11.440
 1227BOLB   NC129425   9.930  13.620   7.820
 1227BOLB   PO129426  10.230  13.960   7.630
 1227BOLB   GL129427   9.830  13.920   7.330
 1227BOLB   GL229428   9.800  14.120   7.080
 1227BOLB   C1A29429   9.510  13.650   7.070
 1227BOLB   C2A29430   9.210  13.560   6.840
 1227BOLB   C3A29431   8.820  13.650   6.670
 1227BOLB   C4A29432   8.460  13.620   6.530
 1227BOLB   C1B29433   9.530  14.080   6.760
 1227BOLB   C2B29434   9.170  14.000   6.580
 1227BOLB   C3B29435   8.910  13.960   6.250
 1227BOLB   C4B29436   8.580  14.010   5.900
 1227BOLB   NC229437   5.800  13.040   5.740
 1227BOLB   PO229438   6.200  13.110   5.770
 1227BOLB   GL329439   6.530  13.240   5.940
 1227BOLB   GL429440   6.760  12.950   5.880
 1227BOLB   C1C29441   6.800  13.360   6.180
 1227BOLB   C2C29442   7.230  13.590   6.200
 1227BOLB   C3C29443   7.640  13.630   6.230
 1227BOLB   C4C29444   8.060  13.730   6.500
 1227BOLB   C1D29445   6.960  13.230   5.720
 1227BOLB   C2D29446   7.390  13.220   5.440
 1227BOLB   C3D29447   7.650  13.440   5.270
 1227BOLB   C4D29448   7.570  13.880   5.290
 1228BOLB   NC129449  11.090  16.110   6.190
 1228BOLB   PO129450  11.230  16.490   5.880
 1228BOLB   GL129451  11.120  16.200   5.530
 1228BOLB   GL229452  10.890  15.970   5.570
 1228BOLB   C1A29453  10.930  16.310   5.150
 1228BOLB   C2A29454  10.750  16.040   4.780
 1228BOLB   C3A29455  10.710  15.980   4.320
 1228BOLB   C4A29456  10.810  16.220   3.930
 1228BOLB   C1B29457  10.450  15.960   5.290
 1228BOLB   C2B29458  10.250  16.190   4.930
 1228BOLB   C3B29459  10.230  16.280   4.480
 1228BOLB   C4B29460  10.250  16.230   4.140
 1228BOLB   NC229461  10.870  15.260   1.490
 1228BOLB   PO229462  10.460  15.500   1.650
 1228BOLB   GL329463  10.450  15.710   2.020
 1228BOLB   GL429464  10.420  15.430   2.190
 1228BOLB   C1C29465  10.530  15.960   2.420
 1228BOLB   C2C29466  10.460  16.140   2.810
 1228BOLB   C3C29467  10.400  16.200   3.240
 1228BOLB   C4C29468  10.710  16.370   3.500
 1228BOLB   C1D29469  10.490  15.430   2.650
 1228BOLB   C2D29470  10.640  15.710   2.970
 1228BOLB   C3D29471  10.670  15.710   3.420
 1228BOLB   C4D29472  11.100  15.980   3.540
 1229BOLB   NC129473  13.890   9.760  10.980
 1229BOLB   PO129474  13.850   9.240  11.230
 1229BOLB   GL129475  13.900   8.820  11.080
 1229BOLB   GL229476  13.500   8.800  11.200
 1229BOLB   C1A29477  13.790   8.380  11.190
 1229BOLB   C2A29478  13.920   7.970  11.340
 1229BOLB   C3A29479  13.980   7.630  11.300
 1229BOLB   C4A29480  13.930   7.240  11.340
 1229BOLB   C1B29481  13.350   8.440  10.960
 1229BOLB   C2B29482  12.850   8.450  10.700
 1229BOLB   C3B29483  12.790   8.100  10.820
 1229BOLB   C4B29484  12.580   7.830  11.170
 1229BOLB   NC229485  13.010   4.600  10.640
 1229BOLB   PO229486  12.950   5.020  10.860
 1229BOLB   GL329487  12.940   5.410  10.990
 1229BOLB   GL429488  12.780   5.680  10.860
 1229BOLB   C1C29489  13.070   5.670  11.300
 1229BOLB   C2C29490  13.230   6.110  11.390
 1229BOLB   C3C29491  13.390   6.520  11.600
 1229BOLB   C4C29492  13.600   6.930  11.640
 1229BOLB   C1D29493  12.950   6.110  11.000
 1229BOLB   C2D29494  12.940   6.550  10.750
 1229BOLB   C3D29495  12.920   7.060  10.820
 1229BOLB   C4D29496  12.960   7.380  11.100
 1230BOLB   NC129497  15.850  23.710  18.090
 1230BOLB   PO129498  16.190  23.780  17.740
 1230BOLB   GL129499  16.250  24.000  18.150
 1230BOLB   GL229500  16.040  24.140  18.280
 1230BOLB   C1A29501  16.510  24.170  18.500
 1230BOLB   C2A29502  16.700  24.530  18.830
 1230BOLB   C3A29503  17.020  24.700  18.980
 1230BOLB   C4A29504  17.000  25.050  19.320
 1230BOLB   C1B29505  16.180  24.580  18.480
 1230BOLB   C2B29506  16.440  24.850  18.600
 1230BOLB   C3B29507  16.560  25.150  18.990
 1230BOLB   C4B29508  16.660  25.480  19.260
 1230BOLB   NC229509  16.360  26.220  21.030
 1230BOLB   PO229510  16.340  26.230  21.500
 1230BOLB   GL329511  16.400  25.750  21.210
 1230BOLB   GL429512  16.510  25.470  21.280
 1230BOLB   C1C29513  16.530  25.630  20.720
 1230BOLB   C2C29514  16.680  25.510  20.390
 1230BOLB   C3C29515  16.790  25.460  19.960
 1230BOLB   C4C29516  17.050  25.420  19.560
 1230BOLB   C1D29517  16.280  25.230  20.990
 1230BOLB   C2D29518  16.090  24.920  20.830
 1230BOLB   C3D29519  16.350  24.690  20.430
 1230BOLB   C4D29520  16.480  24.370  20.260
 1231BOLB   NC129521  20.860  25.110  21.600
 1231BOLB   PO129522  20.680  24.680  21.690
 1231BOLB   GL129523  20.500  24.320  21.550
 1231BOLB   GL229524  20.230  24.470  21.330
 1231BOLB   C1A29525  20.370  23.990  21.280
 1231BOLB   C2A29526  20.100  23.990  20.900
 1231BOLB   C3A29527  20.090  23.730  20.510
 1231BOLB   C4A29528  20.280  23.770  20.110
 1231BOLB   C1B29529  20.290  24.480  20.880
 1231BOLB   C2B29530  20.540  24.650  20.560
 1231BOLB   C3B29531  20.950  24.770  20.440
 1231BOLB   C4B29532  21.320  24.720  20.320
 1231BOLB   NC229533  21.660  24.470  21.210
 1231BOLB   PO229534  21.450  24.070  21.420
 1231BOLB   GL329535  21.320  23.720  21.180
 1231BOLB   GL429536  21.420  23.390  21.170
 1231BOLB   C1C29537  21.110  23.530  20.730
 1231BOLB   C2C29538  21.180  23.460  20.280
 1231BOLB   C3C29539  20.910  23.370  19.950
 1231BOLB   C4C29540  20.620  23.630  19.820
 1231BOLB   C1D29541  21.340  22.990  20.890
 1231BOLB   C2D29542  21.040  22.740  20.580
 1231BOLB   C3D29543  20.870  22.370  20.530
 1231BOLB   C4D29544  20.670  22.000  20.690
 1232BOLB   NC129545  16.370  10.900   6.360
 1232BOLB   PO129546  16.110  10.660   6.410
 1232BOLB   GL129547  15.960  10.230   6.230
 1232BOLB   GL229548  16.120  10.330   5.920
 1232BOLB   C1A29549  15.880   9.840   5.980
 1232BOLB   C2A29550  15.780   9.540   5.810
 1232BOLB   C3A29551  15.690   9.340   5.430
 1232BOLB   C4A29552  15.870   9.110   5.000
 1232BOLB   C1B29553  16.200  10.100   5.610
 1232BOLB   C2B29554  16.260   9.670   5.610
 1232BOLB   C3B29555  16.220   9.080   5.520
 1232BOLB   C4B29556  16.540   8.940   5.080
 1232BOLB   NC229557  16.410   6.890   3.460
 1232BOLB   PO229558  16.590   7.430   3.480
 1232BOLB   GL329559  16.800   7.720   3.710
 1232BOLB   GL429560  17.040   7.830   3.810
 1232BOLB   C1C29561  16.570   8.030   3.970
 1232BOLB   C2C29562  16.230   8.240   4.180
 1232BOLB   C3C29563  16.310   8.460   4.540
 1232BOLB   C4C29564  16.110   8.730   4.950
 1232BOLB   C1D29565  17.150   7.860   4.280
 1232BOLB   C2D29566  17.070   7.920   4.640
 1232BOLB   C3D29567  16.900   8.230   4.950
 1232BOLB   C4D29568  16.880   8.530   5.280
 1233BOLB   NC129569  13.370  22.000   8.640
 1233BOLB   PO129570  13.480  22.450   8.670
 1233BOLB   GL129571  13.430  22.750   8.260
 1233BOLB   GL229572  13.370  22.610   8.010
 1233BOLB   C1A29573  13.550  23.090   7.870
 1233BOLB   C2A29574  13.550  23.190   7.400
 1233BOLB   C3A29575  13.280  23.330   7.090
 1233BOLB   C4A29576  12.960  23.640   6.970
 1233BOLB   C1B29577  13.280  22.760   7.590
 1233BOLB   C2B29578  13.200  22.770   7.210
 1233BOLB   C3B29579  12.970  22.980   6.930
 1233BOLB   C4B29580  12.670  23.250   6.890
 1233BOLB   NC229581  12.730  25.880   6.010
 1233BOLB   PO229582  12.480  25.570   5.720
 1233BOLB   GL329583  12.730  25.230   5.970
 1233BOLB   GL429584  12.960  25.410   6.130
 1233BOLB   C1C29585  12.730  24.870   6.070
 1233BOLB   C2C29586  12.580  24.390   6.220
 1233BOLB   C3C29587  12.740  23.980   6.270
 1233BOLB   C4C29588  12.760  23.770   6.550
 1233BOLB   C1D29589  13.150  25.150   6.410
 1233BOLB   C2D29590  13.370  24.900   6.810
 1233BOLB   C3D29591  13.530  24.810   7.310
 1233BOLB   C4D29592  13.690  24.740   7.660
 1234BOLB   NC129593  11.790  24.220  15.450
 1234BOLB   PO129594  11.900  24.290  15.030
 1234BOLB   GL129595  11.720  24.700  15.280
 1234BOLB   GL229596  11.890  24.910  15.090
 1234BOLB   C1A29597  11.450  25.000  15.440
 1234BOLB   C2A29598  11.050  25.190  15.630
 1234BOLB   C3A29599  10.830  25.500  15.790
 1234BOLB   C4A29600  10.440  25.470  16.020
 1234BOLB   C1B29601  11.870  25.210  15.360
 1234BOLB   C2B29602  11.700  25.410  15.670
 1234BOLB   C3B29603  11.530  25.770  15.760
 1234BOLB   C4B29604  11.860  26.090  15.730
 1234BOLB   NC229605   9.510  27.160  16.750
 1234BOLB   PO229606   9.950  27.150  16.760
 1234BOLB   GL329607   9.860  26.740  16.780
 1234BOLB   GL429608  10.180  26.690  16.570
 1234BOLB   C1C29609   9.770  26.380  16.570
 1234BOLB   C2C29610   9.710  25.910  16.590
 1234BOLB   C3C29611   9.950  25.610  16.630
 1234BOLB   C4C29612  10.200  25.520  16.370
 1234BOLB   C1D29613  10.050  26.560  16.130
 1234BOLB   C2D29614   9.960  26.650  15.740
 1234BOLB   C3D29615  10.060  26.590  15.300
 1234BOLB   C4D29616  10.320  26.630  14.970
 1235BOLB   NC129617  12.580  23.890  16.990
 1235BOLB   PO129618  12.210  24.030  16.810
 1235BOLB   GL129619  12.020  24.110  17.010
 1235BOLB   GL229620  11.800  23.950  17.160
 1235BOLB   C1A29621  11.780  24.480  16.920
 1235BOLB   C2A29622  11.610  24.740  17.160
 1235BOLB   C3A29623  11.420  25.180  17.240
 1235BOLB   C4A29624  11.640  25.560  17.360
 1235BOLB   C1B29625  11.560  24.210  17.400
 1235BOLB   C2B29626  11.510  24.580  17.680
 1235BOLB   C3B29627  11.660  24.860  18.120
 1235BOLB   C4B29628  12.050  24.890  18.390
 1235BOLB   NC229629  10.450  27.700  17.620
 1235BOLB   PO229630  10.690  27.400  17.370
 1235BOLB   GL329631  10.880  27.270  17.040
 1235BOLB   GL429632  11.060  27.430  16.810
 1235BOLB   C1C29633  11.220  26.820  17.050
 1235BOLB   C2C29634  11.550  26.560  17.150
 1235BOLB   C3C29635  11.790  26.230  17.310
 1235BOLB   C4C29636  11.890  25.890  17.320
 1235BOLB   C1D29637  10.980  27.040  16.550
 1235BOLB   C2D29638  10.940  26.680  16.610
 1235BOLB   C3D29639  11.070  26.270  16.540
 1235BOLB   C4D29640  11.090  25.830  16.620
 1236BOLB   NC129641  11.610  11.610   7.570
 1236BOLB   PO129642  11.300  11.890   7.720
 1236BOLB   GL129643  11.190  11.570   7.200
 1236BOLB   GL229644  11.370  11.640   6.930
 1236BOLB   C1A29645  10.790  11.430   7.040
 1236BOLB   C2A29646  10.470  11.500   6.660
 1236BOLB   C3A29647  10.380  11.200   6.410
 1236BOLB   C4A29648  10.490  10.790   6.330
 1236BOLB   C1B29649  11.070  11.500   6.550
 1236BOLB   C2B29650  10.950  11.230   6.250
 1236BOLB   C3B29651  10.720  11.170   5.960
 1236BOLB   C4B29652  10.390  11.160   5.890
 1236BOLB   NC229653   9.360   9.550   4.680
 1236BOLB   PO229654   9.400   9.250   5.120
 1236BOLB   GL329655   9.620   9.580   5.120
 1236BOLB   GL429656   9.810   9.730   4.860
 1236BOLB   C1C29657  10.050   9.540   5.250
 1236BOLB   C2C29658  10.340   9.780   5.550
 1236BOLB   C3C29659  10.570  10.040   5.830
 1236BOLB   C4C29660  10.690  10.360   6.180
 1236BOLB   C1D29661   9.830  10.010   5.350
 1236BOLB   C2D29662  10.030  10.180   5.640
 1236BOLB   C3D29663  10.150  10.460   5.990
 1236BOLB   C4D29664  10.000  10.860   6.160
 1237BOLB   NC129665  13.870  24.500  10.830
 1237BOLB   PO129666  13.480  24.460  10.950
 1237BOLB   GL129667  13.500  24.820  10.660
 1237BOLB   GL229668  13.740  24.790  10.380
 1237BOLB   C1A29669  13.190  25.120  10.460
 1237BOLB   C2A29670  12.760  25.230  10.250
 1237BOLB   C3A29671  12.450  25.540  10.090
 1237BOLB   C4A29672  12.510  25.910   9.810
 1237BOLB   C1B29673  13.680  25.080  10.080
 1237BOLB   C2B29674  13.610  25.520   9.860
 1237BOLB   C3B29675  13.530  25.940   9.660
 1237BOLB   C4B29676  13.530  26.280   9.270
 1237BOLB   NC229677  12.950  28.040   8.320
 1237BOLB   PO229678  12.820  27.980   8.720
 1237BOLB   GL329679  13.170  27.750   8.900
 1237BOLB   GL429680  13.240  27.680   8.620
 1237BOLB   C1C29681  13.150  27.430   9.220
 1237BOLB   C2C29682  12.860  27.140   9.440
 1237BOLB   C3C29683  12.760  26.650   9.540
 1237BOLB   C4C29684  12.620  26.340   9.830
 1237BOLB   C1D29685  13.560  27.330   8.770
 1237BOLB   C2D29686  13.840  26.930   8.800
 1237BOLB   C3D29687  14.240  26.770   8.840
 1237BOLB   C4D29688  14.610  26.620   8.750
 1238BOLB   NC129689  15.300  18.360   5.200
 1238BOLB   PO129690  15.050  18.230   4.810
 1238BOLB   GL129691  14.810  18.430   4.470
 1238BOLB   GL229692  14.620  18.560   4.430
 1238BOLB   C1A29693  14.660  18.140   4.030
 1238BOLB   C2A29694  14.240  17.800   3.920
 1238BOLB   C3A29695  13.950  17.850   3.550
 1238BOLB   C4A29696  13.910  18.170   3.290
 1238BOLB   C1B29697  14.690  18.720   3.950
 1238BOLB   C2B29698  14.410  18.790   3.640
 1238BOLB   C3B29699  14.470  19.170   3.340
 1238BOLB   C4B29700  14.580  19.430   2.960
 1238BOLB   NC229701  13.300  18.060   0.300
 1238BOLB   PO229702  13.080  18.080   0.740
 1238BOLB   GL329703  13.270  18.210   1.180
 1238BOLB   GL429704  13.260  17.960   1.460
 1238BOLB   C1C29705  13.160  18.560   1.620
 1238BOLB   C2C29706  13.350  18.460   2.040
 1238BOLB   C3C29707  13.570  18.390   2.470
 1238BOLB   C4C29708  13.670  18.270   2.820
 1238BOLB   C1D29709  13.630  18.020   1.720
 1238BOLB   C2D29710  13.780  18.080   2.060
 1238BOLB   C3D29711  13.780  17.890   2.460
 1238BOLB   C4D29712  14.010  17.580   2.670
 1239BOLB   NC129713  10.710  13.080   8.000
 1239BOLB   PO129714  10.420  13.330   7.760
 1239BOLB   GL129715  10.010  13.160   7.610
 1239BOLB   GL229716   9.880  12.870   7.570
 1239BOLB   C1A29717   9.790  13.270   7.200
 1239BOLB   C2A29718   9.610  13.180   6.840
 1239BOLB   C3A29719   9.370  13.030   6.660
 1239BOLB   C4A29720   8.960  12.730   6.570
 1239BOLB   C1B29721   9.480  12.960   7.420
 1239BOLB   C2B29722   9.270  13.120   7.170
 1239BOLB   C3B29723   8.910  13.160   6.960
 1239BOLB   C4B29724   8.650  12.920   6.890
 1239BOLB   NC229725   6.860  11.600   5.800
 1239BOLB   PO229726   6.900  11.850   6.210
 1239BOLB   GL329727   7.230  12.040   6.000
 1239BOLB   GL429728   7.360  11.920   5.700
 1239BOLB   C1C29729   7.660  12.140   6.040
 1239BOLB   C2C29730   8.010  12.250   6.260
 1239BOLB   C3C29731   8.290  12.270   6.500
 1239BOLB   C4C29732   8.700  12.400   6.580
 1239BOLB   C1D29733   7.690  11.660   5.990
 1239BOLB   C2D29734   8.080  11.750   6.180
 1239BOLB   C3D29735   8.200  11.600   6.630
 1239BOLB   C4D29736   8.530  11.590   6.980
 1240BOLB   NC129737  12.680  22.440   9.180
 1240BOLB   PO129738  12.400  22.400   8.820
 1240BOLB   GL129739  12.320  22.680   8.510
 1240BOLB   GL229740  12.010  22.840   8.720
 1240BOLB   C1A29741  12.450  22.830   8.200
 1240BOLB   C2A29742  12.630  23.200   8.030
 1240BOLB   C3A29743  12.700  23.590   7.850
 1240BOLB   C4A29744  12.460  24.020   7.980
 1240BOLB   C1B29745  11.670  23.020   8.720
 1240BOLB   C2B29746  11.340  23.340   8.670
 1240BOLB   C3B29747  11.180  23.700   8.430
 1240BOLB   C4B29748  11.090  24.170   8.400
 1240BOLB   NC229749  11.260  25.430   5.960
 1240BOLB   PO229750  11.680  25.310   5.910
 1240BOLB   GL329751  11.900  25.080   6.070
 1240BOLB   GL429752  12.180  25.170   6.040
 1240BOLB   C1C29753  11.770  24.850   6.530
 1240BOLB   C2C29754  11.850  24.800   6.940
 1240BOLB   C3C29755  12.010  24.450   7.300
 1240BOLB   C4C29756  12.260  24.360   7.680
 1240BOLB   C1D29757  12.410  25.070   6.400
 1240BOLB   C2D29758  12.770  24.810   6.570
 1240BOLB   C3D29759  12.980  24.370   6.540
 1240BOLB   C4D29760  13.210  23.990   6.640
 1241BOLB   NC129761  11.950  22.530   9.220
 1241BOLB   PO129762  12.340  22.710   9.450
 1241BOLB   GL129763  12.300  22.970   9.090
 1241BOLB   GL229764  12.560  22.920   8.850
 1241BOLB   C1A29765  12.130  23.290   8.930
 1241BOLB   C2A29766  11.900  23.370   8.520
 1241BOLB   C3A29767  11.760  23.620   8.210
 1241BOLB   C4A29768  11.450  23.880   8.060
 1241BOLB   C1B29769  12.430  23.220   8.530
 1241BOLB   C2B29770  12.310  23.560   8.230
 1241BOLB   C3B29771  12.220  23.620   7.800
 1241BOLB   C4B29772  12.210  23.890   7.580
 1241BOLB   NC229773  10.070  25.700   6.960
 1241BOLB   PO229774  10.090  25.590   7.280
 1241BOLB   GL329775  10.480  25.390   7.340
 1241BOLB   GL429776  10.660  25.460   7.630
 1241BOLB   C1C29777  10.790  25.030   7.440
 1241BOLB   C2C29778  10.960  24.700   7.660
 1241BOLB   C3C29779  11.040  24.470   7.960
 1241BOLB   C4C29780  11.420  24.280   8.050
 1241BOLB   C1D29781  10.590  25.370   8.140
 1241BOLB   C2D29782  10.700  25.180   8.550
 1241BOLB   C3D29783  10.750  24.870   8.940
 1241BOLB   C4D29784  10.960  24.450   9.130
 1242BOLB   NC129785  16.960  22.690   8.120
 1242BOLB   PO129786  16.580  22.920   8.210
 1242BOLB   GL129787  16.470  23.340   7.910
 1242BOLB   GL229788  16.330  23.210   7.670
 1242BOLB   C1A29789  16.510  23.780   7.700
 1242BOLB   C2A29790  16.460  23.990   7.270
 1242BOLB   C3A29791  16.550  24.170   6.930
 1242BOLB   C4A29792  16.470  24.450   6.730
 1242BOLB   C1B29793  16.120  23.490   7.340
 1242BOLB   C2B29794  16.210  23.700   6.950
 1242BOLB   C3B29795  16.200  23.970   6.520
 1242BOLB   C4B29796  16.370  23.740   6.160
 1242BOLB   NC229797  16.140  26.570   5.380
 1242BOLB   PO229798  16.200  26.120   5.000
 1242BOLB   GL329799  16.200  25.690   5.060
 1242BOLB   GL429800  15.860  25.640   4.900
 1242BOLB   C1C29801  16.070  25.350   5.300
 1242BOLB   C2C29802  16.290  25.090   5.640
 1242BOLB   C3C29803  16.220  24.860   6.080
 1242BOLB   C4C29804  16.250  24.720   6.540
 1242BOLB   C1D29805  15.650  25.330   5.000
 1242BOLB   C2D29806  15.590  25.170   5.340
 1242BOLB   C3D29807  15.570  24.870   5.730
 1242BOLB   C4D29808  15.750  24.660   6.100
 1243BOLB   NC129809   4.390   7.700  12.970
 1243BOLB   PO129810   4.690   7.860  12.520
 1243BOLB   GL129811   5.040   8.100  12.590
 1243BOLB   GL229812   4.930   8.320  12.690
 1243BOLB   C1A29813   5.470   8.140  12.510
 1243BOLB   C2A29814   5.780   8.380  12.620
 1243BOLB   C3A29815   6.180   8.580  12.790
 1243BOLB   C4A29816   6.660   8.570  12.650
 1243BOLB   C1B29817   4.960   8.730  12.600
 1243BOLB   C2B29818   5.140   9.040  12.560
 1243BOLB   C3B29819   5.400   9.230  12.750
 1243BOLB   C4B29820   5.750   9.450  13.010
 1243BOLB   NC229821   6.160   6.820  13.020
 1243BOLB   PO229822   6.120   7.080  12.600
 1243BOLB   GL329823   6.200   7.310  13.020
 1243BOLB   GL429824   5.940   7.540  13.000
 1243BOLB   C1C29825   6.380   7.680  13.160
 1243BOLB   C2C29826   6.730   7.830  13.360
 1243BOLB   C3C29827   6.960   8.050  13.070
 1243BOLB   C4C29828   6.950   8.330  12.730
 1243BOLB   C1D29829   5.930   7.810  13.430
 1243BOLB   C2D29830   5.870   8.210  13.540
 1243BOLB   C3D29831   5.930   8.260  13.900
 1243BOLB   C4D29832   5.740   8.490  14.160
 1244BOLB   NC129833  24.640   9.370  15.670
 1244BOLB   PO129834  24.410   9.140  15.930
 1244BOLB   GL129835  23.940   9.280  15.870
 1244BOLB   GL229836  23.790   9.160  15.570
 1244BOLB   C1A29837  23.790   9.760  15.910
 1244BOLB   C2A29838  23.420  10.100  15.830
 1244BOLB   C3A29839  23.240  10.430  15.700
 1244BOLB   C4A29840  23.080  10.910  15.580
 1244BOLB   C1B29841  23.450   9.470  15.740
 1244BOLB   C2B29842  23.040   9.660  15.790
 1244BOLB   C3B29843  22.810  10.030  15.870
 1244BOLB   C4B29844  22.730  10.330  15.510
 1244BOLB   NC229845  21.600  11.970  13.910
 1244BOLB   PO229846  21.470  12.020  14.330
 1244BOLB   GL329847  21.470  11.600  14.350
 1244BOLB   GL429848  21.290  11.570  14.140
 1244BOLB   C1C29849  21.780  11.410  14.590
 1244BOLB   C2C29850  22.110  11.130  14.790
 1244BOLB   C3C29851  22.550  11.070  14.970
 1244BOLB   C4C29852  22.840  11.100  15.270
 1244BOLB   C1D29853  21.410  11.090  14.370
 1244BOLB   C2D29854  21.690  10.900  14.720
 1244BOLB   C3D29855  21.820  10.460  14.850
 1244BOLB   C4D29856  22.140  10.240  14.920
 1245BOLB   NC129857  11.640  21.360   8.020
 1245BOLB   PO129858  11.680  21.470   8.440
 1245BOLB   GL129859  11.200  21.550   8.250
 1245BOLB   GL229860  11.050  21.890   8.310
 1245BOLB   C1A29861  10.850  21.680   7.870
 1245BOLB   C2A29862  10.440  21.950   7.710
 1245BOLB   C3A29863  10.140  22.240   7.530
 1245BOLB   C4A29864  10.070  22.670   7.590
 1245BOLB   C1B29865  10.710  22.170   8.060
 1245BOLB   C2B29866  10.620  22.460   7.750
 1245BOLB   C3B29867  10.710  22.730   7.310
 1245BOLB   C4B29868  10.880  23.010   6.990
 1245BOLB   NC229869   8.590  24.630   6.660
 1245BOLB   PO229870   8.530  24.360   6.730
 1245BOLB   GL329871   8.710  24.040   6.810
 1245BOLB   GL429872   8.820  23.770   6.560
 1245BOLB   C1C29873   9.120  23.900   7.050
 1245BOLB   C2C29874   9.610  23.720   7.100
 1245BOLB   C3C29875   9.870  23.460   7.230
 1245BOLB   C4C29876   9.850  23.130   7.460
 1245BOLB   C1D29877   9.340  23.620   6.620
 1245BOLB   C2D29878   9.730  23.400   6.720
 1245BOLB   C3D29879   9.960  23.070   6.910
 1245BOLB   C4D29880   9.710  22.750   7.210
 1246BOLB   NC129881  19.280   8.260   3.260
 1246BOLB   PO129882  19.780   8.400   3.270
 1246BOLB   GL129883  19.600   8.450   3.620
 1246BOLB   GL229884  19.810   8.660   3.740
 1246BOLB   C1A29885  19.270   8.760   3.920
 1246BOLB   C2A29886  19.000   8.870   4.220
 1246BOLB   C3A29887  18.680   9.140   4.400
 1246BOLB   C4A29888  18.400   9.480   4.480
 1246BOLB   C1B29889  19.740   9.090   3.970
 1246BOLB   C2B29890  19.850   9.480   3.980
 1246BOLB   C3B29891  19.850   9.770   4.210
 1246BOLB   C4B29892  19.860   9.970   4.470
 1246BOLB   NC229893  17.430  11.250   5.690
 1246BOLB   PO229894  17.440  11.460   5.290
 1246BOLB   GL329895  17.640  11.150   5.140
 1246BOLB   GL429896  17.490  10.880   5.290
 1246BOLB   C1C29897  17.550  10.920   4.640
 1246BOLB   C2C29898  17.830  10.570   4.570
 1246BOLB   C3C29899  17.790  10.150   4.370
 1246BOLB   C4C29900  18.120   9.810   4.460
 1246BOLB   C1D29901  17.370  10.610   5.110
 1246BOLB   C2D29902  17.110  10.330   4.960
 1246BOLB   C3D29903  17.140   9.930   4.790
 1246BOLB   C4D29904  17.380   9.490   4.630
 1247BOLB   NC129905  13.460  16.310   4.570
 1247BOLB   PO129906  13.140  16.130   4.410
 1247BOLB   GL129907  13.080  16.030   3.920
 1247BOLB   GL229908  12.860  15.850   3.880
 1247BOLB   C1A29909  13.090  16.080   3.460
 1247BOLB   C2A29910  12.760  16.210   3.090
 1247BOLB   C3A29911  12.400  16.120   3.110
 1247BOLB   C4A29912  11.960  16.330   3.180
 1247BOLB   C1B29913  12.910  15.490   3.420
 1247BOLB   C2B29914  13.040  15.410   3.020
 1247BOLB   C3B29915  13.330  15.170   2.680
 1247BOLB   C4B29916  13.280  14.940   2.200
 1247BOLB   NC229917  10.260  16.480   1.740
 1247BOLB   PO229918  10.720  16.620   1.680
 1247BOLB   GL329919  11.000  16.690   1.940
 1247BOLB   GL429920  11.110  16.430   2.200
 1247BOLB   C1C29921  11.290  16.880   2.200
 1247BOLB   C2C29922  11.410  17.050   2.570
 1247BOLB   C3C29923  11.580  17.140   3.040
 1247BOLB   C4C29924  11.810  16.800   3.220
 1247BOLB   C1D29925  10.900  16.360   2.600
 1247BOLB   C2D29926  10.710  16.560   2.890
 1247BOLB   C3D29927  10.650  16.820   3.250
 1247BOLB   C4D29928  10.720  16.710   3.840
 1248BOLB   NC129929  14.190  19.140   5.480
 1248BOLB   PO129930  14.120  19.070   5.020
 1248BOLB   GL129931  13.850  19.140   4.710
 1248BOLB   GL229932  13.520  19.250   4.740
 1248BOLB   C1A29933  13.720  19.200   4.280
 1248BOLB   C2A29934  13.590  19.450   4.060
 1248BOLB   C3A29935  13.760  19.650   3.700
 1248BOLB   C4A29936  13.490  19.840   3.400
 1248BOLB   C1B29937  13.270  19.440   4.480
 1248BOLB   C2B29938  13.320  19.740   4.330
 1248BOLB   C3B29939  13.330  20.200   4.180
 1248BOLB   C4B29940  13.160  20.440   3.960
 1248BOLB   NC229941  12.020  20.770   1.480
 1248BOLB   PO229942  11.890  21.080   1.720
 1248BOLB   GL329943  12.200  20.870   1.990
 1248BOLB   GL429944  11.940  20.640   2.000
 1248BOLB   C1C29945  12.210  20.460   2.370
 1248BOLB   C2C29946  12.480  20.300   2.760
 1248BOLB   C3C29947  12.750  20.170   2.990
 1248BOLB   C4C29948  13.120  20.030   3.090
 1248BOLB   C1D29949  11.910  20.210   1.950
 1248BOLB   C2D29950  12.140  19.990   2.220
 1248BOLB   C3D29951  12.240  19.820   2.640
 1248BOLB   C4D29952  11.910  19.710   2.960
 1249BOLB   NC129953  17.070   9.410   8.460
 1249BOLB   PO129954  16.730   9.470   8.220
 1249BOLB   GL129955  16.780   9.060   8.230
 1249BOLB   GL229956  17.050   9.100   8.060
 1249BOLB   C1A29957  16.630   8.740   8.450
 1249BOLB   C2A29958  16.500   8.310   8.270
 1249BOLB   C3A29959  16.460   7.930   8.100
 1249BOLB   C4A29960  16.450   7.570   8.000
 1249BOLB   C1B29961  17.280   8.770   7.720
 1249BOLB   C2B29962  17.330   8.490   7.380
 1249BOLB   C3B29963  17.480   8.110   7.270
 1249BOLB   C4B29964  17.840   7.930   7.020
 1249BOLB   NC229965  15.550   6.020   6.110
 1249BOLB   PO229966  15.910   5.950   6.400
 1249BOLB   GL329967  16.070   6.260   6.540
 1249BOLB   GL429968  16.360   6.380   6.420
 1249BOLB   C1C29969  16.060   6.480   6.940
 1249BOLB   C2C29970  16.250   6.710   7.310
 1249BOLB   C3C29971  16.230   7.010   7.660
 1249BOLB   C4C29972  16.310   7.320   7.720
 1249BOLB   C1D29973  16.700   6.760   6.440
 1249BOLB   C2D29974  16.710   7.190   6.490
 1249BOLB   C3D29975  16.870   7.560   6.480
 1249BOLB   C4D29976  17.250   7.710   6.570
 1250BOLB   NC129977  12.530  16.580   5.010
 1250BOLB   PO129978  12.710  16.890   4.690
 1250BOLB   GL129979  12.690  17.010   4.350
 1250BOLB   GL229980  12.650  17.360   4.290
 1250BOLB   C1A29981  12.790  16.920   3.900
 1250BOLB   C2A29982  12.810  16.890   3.450
 1250BOLB   C3A29983  13.090  16.620   3.140
 1250BOLB   C4A29984  13.060  16.760   2.730
 1250BOLB   C1B29985  12.460  17.310   3.900
 1250BOLB   C2B29986  12.400  17.180   3.460
 1250BOLB   C3B29987  11.990  17.320   3.620
 1250BOLB   C4B29988  11.610  17.620   3.740
 1250BOLB   NC229989  12.290  17.380   0.480
 1250BOLB   PO229990  11.930  17.150   0.770
 1250BOLB   GL329991  12.230  17.340   1.030
 1250BOLB   GL429992  12.500  17.460   0.950
 1250BOLB   C1C29993  12.310  17.350   1.500
 1250BOLB   C2C29994  12.500  17.350   1.900
 1250BOLB   C3C29995  12.800  17.360   2.140
 1250BOLB   C4C29996  13.030  17.140   2.480
 1250BOLB   C1D29997  12.820  17.470   1.270
 1250BOLB   C2D29998  13.190  17.120   1.250
 1250BOLB   C3D29999  13.530  17.070   1.310
 1250BOLB   C4D30000  13.870  16.810   1.240
 1251BOLB   NC130001  11.530  19.650   6.730
 1251BOLB   PO130002  11.480  20.070   6.960
 1251BOLB   GL130003  11.410  20.330   6.690
 1251BOLB   GL230004  11.360  20.170   6.410
 1251BOLB   C1A30005  11.340  20.690   6.420
 1251BOLB   C2A30006  10.940  20.950   6.240
 1251BOLB   C3A30007  10.770  21.250   6.070
 1251BOLB   C4A30008  10.760  21.500   5.630
 1251BOLB   C1B30009  11.310  20.280   6.090
 1251BOLB   C2B30010  11.230  20.670   5.930
 1251BOLB   C3B30011  11.160  21.070   5.750
 1251BOLB   C4B30012  11.050  21.180   5.320
 1251BOLB   NC230013   9.790  22.930   4.020
 1251BOLB   PO230014   9.880  22.640   3.760
 1251BOLB   GL330015  10.050  22.570   4.240
 1251BOLB   GL430016   9.920  22.270   4.420
 1251BOLB   C1C30017  10.180  22.560   4.700
 1251BOLB   C2C30018  10.340  22.320   5.020
 1251BOLB   C3C30019  10.700  22.150   5.240
 1251BOLB   C4C30020  10.790  21.730   5.340
 1251BOLB   C1D30021  10.190  22.060   4.600
 1251BOLB   C2D30022  10.400  21.830   4.830
 1251BOLB   C3D30023  10.810  21.560   4.790
 1251BOLB   C4D30024  11.280  21.560   4.920
 1252BOLB   NC130025  17.310  17.300   4.250
 1252BOLB   PO130026  17.610  17.100   4.390
 1252BOLB   GL130027  17.710  17.000   3.970
 1252BOLB   GL230028  17.640  17.280   3.790
 1252BOLB   C1A30029  18.000  16.790   3.730
 1252BOLB   C2A30030  18.110  16.710   3.320
 1252BOLB   C3A30031  18.290  16.530   2.950
 1252BOLB   C4A30032  18.600  16.360   2.690
 1252BOLB   C1B30033  17.820  17.100   3.380
 1252BOLB   C2B30034  17.860  17.190   3.070
 1252BOLB   C3B30035  17.700  17.550   2.760
 1252BOLB   C4B30036  17.570  17.940   2.590
 1252BOLB   NC230037  20.240  15.670   0.740
 1252BOLB   PO230038  20.320  16.100   0.840
 1252BOLB   GL330039  20.270  16.050   1.220
 1252BOLB   GL430040  20.290  16.210   1.450
 1252BOLB   C1C30041  19.830  15.970   1.340
 1252BOLB   C2C30042  19.480  16.060   1.620
 1252BOLB   C3C30043  19.010  16.140   1.860
 1252BOLB   C4C30044  18.670  16.230   2.220
 1252BOLB   C1D30045  19.920  16.200   1.790
 1252BOLB   C2D30046  19.680  15.890   2.040
 1252BOLB   C3D30047  19.930  15.600   2.410
 1252BOLB   C4D30048  19.800  15.240   2.750
 1253BOLB   NC130049  16.390  20.190   5.480
 1253BOLB   PO130050  16.140  20.020   5.300
 1253BOLB   GL130051  16.290  20.330   5.000
 1253BOLB   GL230052  16.350  20.570   5.120
 1253BOLB   C1A30053  16.560  20.460   4.680
 1253BOLB   C2A30054  16.430  20.720   4.280
 1253BOLB   C3A30055  16.430  20.680   3.760
 1253BOLB   C4A30056  16.480  20.770   3.240
 1253BOLB   C1B30057  16.120  20.810   4.850
 1253BOLB   C2B30058  16.120  21.060   4.490
 1253BOLB   C3B30059  16.370  21.260   4.110
 1253BOLB   C4B30060  16.320  21.550   3.760
 1253BOLB   NC230061  15.690  21.150   0.720
 1253BOLB   PO230062  16.020  21.440   0.720
 1253BOLB   GL330063  16.230  21.190   1.120
 1253BOLB   GL430064  16.010  21.050   1.290
 1253BOLB   C1C30065  16.100  21.300   1.700
 1253BOLB   C2C30066  16.220  21.310   2.110
 1253BOLB   C3C30067  16.270  21.090   2.480
 1253BOLB   C4C30068  16.470  20.890   2.850
 1253BOLB   C1D30069  15.970  20.800   1.650
 1253BOLB   C2D30070  16.230  20.740   2.040
 1253BOLB   C3D30071  16.340  20.530   2.500
 1253BOLB   C4D30072  16.620  20.360   2.940
 1254BOLB   NC130073  12.350  19.700   6.850
 1254BOLB   PO130074  12.040  19.610   6.600
 1254BOLB   GL130075  11.770  19.860   6.290
 1254BOLB   GL230076  11.870  20.220   6.210
 1254BOLB   C1A30077  11.370  19.810   6.010
 1254BOLB   C2A30078  11.120  19.730   5.620
 1254BOLB   C3A30079  10.890  19.760   5.320
 1254BOLB   C4A30080  10.890  20.010   4.900
 1254BOLB   C1B30081  11.730  20.620   6.070
 1254BOLB   C2B30082  11.670  21.080   5.980
 1254BOLB   C3B30083  11.630  21.290   5.730
 1254BOLB   C4B30084  11.540  21.180   5.270
 1254BOLB   NC230085  10.340  20.860   2.670
 1254BOLB   PO230086  10.080  21.000   3.050
 1254BOLB   GL330087  10.010  20.780   3.350
 1254BOLB   GL430088  10.110  20.520   3.240
 1254BOLB   C1C30089  10.200  20.670   3.720
 1254BOLB   C2C30090  10.430  20.480   4.090
 1254BOLB   C3C30091  10.810  20.470   4.300
 1254BOLB   C4C30092  10.990  20.150   4.580
 1254BOLB   C1D30093  10.410  20.320   3.450
 1254BOLB   C2D30094  10.800  20.020   3.460
 1254BOLB   C3D30095  11.150  19.840   3.640
 1254BOLB   C4D30096  11.340  19.560   3.750
 1255BOLB   NC130097  21.470  13.140  16.430
 1255BOLB   PO130098  21.410  12.640  16.390
 1255BOLB   GL130099  21.460  12.390  16.740
 1255BOLB   GL230100  21.330  12.440  17.030
 1255BOLB   C1A30101  21.640  12.030  17.010
 1255BOLB   C2A30102  21.540  11.820  17.420
 1255BOLB   C3A30103  21.410  11.530  17.640
 1255BOLB   C4A30104  21.390  11.360  18.030
 1255BOLB   C1B30105  21.840  12.480  17.060
 1255BOLB   C2B30106  22.130  12.170  17.150
 1255BOLB   C3B30107  22.040  11.780  17.190
 1255BOLB   C4B30108  21.930  11.460  17.450
 1255BOLB   NC230109  22.120   9.860  19.230
 1255BOLB   PO230110  22.180   9.420  19.010
 1255BOLB   GL330111  22.090   9.650  18.720
 1255BOLB   GL430112  21.810   9.580  18.520
 1255BOLB   C1C30113  21.860  10.100  18.630
 1255BOLB   C2C30114  21.910  10.630  18.650
 1255BOLB   C3C30115  21.600  10.930  18.620
 1255BOLB   C4C30116  21.310  11.070  18.350
 1255BOLB   C1D30117  21.890   9.790  18.100
 1255BOLB   C2D30118  21.800  10.080  17.800
 1255BOLB   C3D30119  21.590  10.380  17.530
 1255BOLB   C4D30120  21.570  10.650  17.210
 1256BOLB   NC130121  18.080  12.540  18.150
 1256BOLB   PO130122  18.260  12.380  17.700
 1256BOLB   GL130123  18.390  12.170  18.150
 1256BOLB   GL230124  18.660  11.960  18.130
 1256BOLB   C1A30125  18.430  12.030  18.560
 1256BOLB   C2A30126  18.710  11.800  18.920
 1256BOLB   C3A30127  19.060  11.700  19.110
 1256BOLB   C4A30128  19.350  11.540  19.380
 1256BOLB   C1B30129  18.890  11.670  18.450
 1256BOLB   C2B30130  18.860  11.340  18.790
 1256BOLB   C3B30131  19.230  11.160  19.100
 1256BOLB   C4B30132  19.500  11.010  19.380
 1256BOLB   NC230133  20.150   9.960  21.250
 1256BOLB   PO230134  20.360  10.390  21.270
 1256BOLB   GL330135  20.340  10.700  20.970
 1256BOLB   GL430136  20.500  10.970  21.160
 1256BOLB   C1C30137  20.130  10.860  20.590
 1256BOLB   C2C30138  19.910  11.040  20.340
 1256BOLB   C3C30139  19.760  11.400  20.040
 1256BOLB   C4C30140  19.470  11.400  19.740
 1256BOLB   C1D30141  20.100  11.270  21.150
 1256BOLB   C2D30142  19.810  11.180  20.800
 1256BOLB   C3D30143  19.590  11.380  20.510
 1256BOLB   C4D30144  19.330  11.680  20.140
 1257BOLB   NC130145  22.250  22.210  15.390
 1257BOLB   PO130146  22.570  22.180  15.350
 1257BOLB   GL130147  22.980  22.130  15.140
 1257BOLB   GL230148  22.970  22.480  15.280
 1257BOLB   C1A30149  23.380  21.990  15.160
 1257BOLB   C2A30150  23.540  21.700  15.060
 1257BOLB   C3A30151  23.990  21.590  14.970
 1257BOLB   C4A30152  24.520  21.520  14.940
 1257BOLB   C1B30153  23.390  22.360  15.520
 1257BOLB   C2B30154  23.640  22.290  15.910
 1257BOLB   C3B30155  23.910  22.470  16.350
 1257BOLB   C4B30156  23.920  22.600  16.820
 1257BOLB   NC230157  26.780  21.490  15.820
 1257BOLB   PO230158  27.080  21.440  15.420
 1257BOLB   GL330159  26.690  21.600  15.310
 1257BOLB   GL430160  26.690  21.600  15.010
 1257BOLB   C1C30161  26.190  21.640  15.270
 1257BOLB   C2C30162  25.760  21.620  15.200
 1257BOLB   C3C30163  25.370  21.570  15.010
 1257BOLB   C4C30164  24.980  21.550  14.880
 1257BOLB   C1D30165  26.470  21.740  14.560
 1257BOLB   C2D30166  26.070  21.630  14.380
 1257BOLB   C3D30167  25.830  21.220  14.230
 1257BOLB   C4D30168  25.620  20.850  14.330
 1258BOLB   NC130169  12.730  20.560   6.580
 1258BOLB   PO130170  13.050  20.790   6.630
 1258BOLB   GL130171  12.980  21.190   6.460
 1258BOLB   GL230172  13.270  21.380   6.280
 1258BOLB   C1A30173  12.590  21.310   6.150
 1258BOLB   C2A30174  12.240  21.490   5.880
 1258BOLB   C3A30175  12.020  21.620   5.610
 1258BOLB   C4A30176  12.080  22.020   5.520
 1258BOLB   C1B30177  13.010  21.530   5.980
 1258BOLB   C2B30178  12.810  21.600   5.700
 1258BOLB   C3B30179  12.560  21.780   5.350
 1258BOLB   C4B30180  12.560  22.190   5.110
 1258BOLB   NC230181  12.720  23.760   3.300
 1258BOLB   PO230182  12.590  23.690   3.720
 1258BOLB   GL330183  12.410  23.540   4.140
 1258BOLB   GL430184  12.100  23.450   4.240
 1258BOLB   C1C30185  12.470  23.400   4.580
 1258BOLB   C2C30186  12.370  23.020   4.850
 1258BOLB   C3C30187  12.170  22.690   5.110
 1258BOLB   C4C30188  12.040  22.370   5.420
 1258BOLB   C1D30189  11.950  23.200   4.580
 1258BOLB   C2D30190  11.850  23.030   4.960
 1258BOLB   C3D30191  11.660  22.960   5.380
 1258BOLB   C4D30192  11.750  22.820   5.730
 1259BOLB   NC130193  12.100  13.430   6.470
 1259BOLB   PO130194  11.650  13.270   6.650
 1259BOLB   GL130195  11.440  13.110   6.390
 1259BOLB   GL230196  11.060  12.780   6.450
 1259BOLB   C1A30197  11.070  13.230   6.130
 1259BOLB   C2A30198  10.680  13.220   5.900
 1259BOLB   C3A30199  10.400  13.280   5.560
 1259BOLB   C4A30200  10.200  13.440   5.140
 1259BOLB   C1B30201  10.850  12.690   6.130
 1259BOLB   C2B30202  10.490  12.720   5.990
 1259BOLB   C3B30203  10.220  12.850   5.720
 1259BOLB   C4B30204  10.260  12.860   5.280
 1259BOLB   NC230205   8.630  11.910   3.900
 1259BOLB   PO230206   8.400  12.280   4.080
 1259BOLB   GL330207   8.550  12.680   4.190
 1259BOLB   GL430208   8.610  13.000   3.990
 1259BOLB   C1C30209   9.010  12.790   4.260
 1259BOLB   C2C30210   9.490  12.890   4.300
 1259BOLB   C3C30211   9.730  13.280   4.370
 1259BOLB   C4C30212   9.990  13.600   4.700
 1259BOLB   C1D30213   8.850  13.300   4.350
 1259BOLB   C2D30214   8.710  13.390   4.800
 1259BOLB   C3D30215   8.920  13.270   5.160
 1259BOLB   C4D30216   9.080  13.040   5.540
 1260BOLB   NC130217  11.370  17.010   6.260
 1260BOLB   PO130218  11.280  17.340   6.040
 1260BOLB   GL130219  11.010  17.590   5.810
 1260BOLB   GL230220  10.760  17.400   5.630
 1260BOLB   C1A30221  10.770  17.860   5.570
 1260BOLB   C2A30222  10.400  18.060   5.450
 1260BOLB   C3A30223  10.120  17.790   5.260
 1260BOLB   C4A30224   9.820  17.690   5.040
 1260BOLB   C1B30225  10.360  17.620   5.710
 1260BOLB   C2B30226  10.080  17.940   5.810
 1260BOLB   C3B30227   9.700  18.290   5.710
 1260BOLB   C4B30228   9.410  18.530   5.320
 1260BOLB   NC230229   8.450  17.090   3.330
 1260BOLB   PO230230   8.130  17.370   3.580
 1260BOLB   GL330231   8.420  17.270   3.840
 1260BOLB   GL430232   8.620  16.940   3.790
 1260BOLB   C1C30233   8.580  17.350   4.190
 1260BOLB   C2C30234   8.950  17.610   4.260
 1260BOLB   C3C30235   9.290  17.520   4.540
 1260BOLB   C4C30236   9.450  17.540   4.940
 1260BOLB   C1D30237   8.800  16.910   4.160
 1260BOLB   C2D30238   9.010  17.100   4.390
 1260BOLB   C3D30239   9.110  17.190   4.910
 1260BOLB   C4D30240   9.210  17.330   5.330
 1261BOLB   NC130241   2.540  11.330  13.500
 1261BOLB   PO130242   2.340  11.570  13.280
 1261BOLB   GL130243   2.620  11.840  13.420
 1261BOLB   GL230244   2.930  11.630  13.290
 1261BOLB   C1A30245   2.950  11.910  13.830
 1261BOLB   C2A30246   3.200  11.710  14.260
 1261BOLB   C3A30247   3.040  11.790  14.670
 1261BOLB   C4A30248   2.720  11.830  14.830
 1261BOLB   C1B30249   3.000  12.110  13.300
 1261BOLB   C2B30250   3.070  12.360  13.680
 1261BOLB   C3B30251   3.240  12.310  14.050
 1261BOLB   C4B30252   3.410  12.200  14.470
 1261BOLB   NC230253   1.800  12.520  16.580
 1261BOLB   PO230254   1.790  12.410  17.000
 1261BOLB   GL330255   2.210  12.210  16.840
 1261BOLB   GL430256   2.490  12.380  17.030
 1261BOLB   C1C30257   2.540  12.130  16.520
 1261BOLB   C2C30258   2.730  12.240  16.050
 1261BOLB   C3C30259   2.770  12.290  15.660
 1261BOLB   C4C30260   2.740  12.040  15.280
 1261BOLB   C1D30261   2.440  12.620  16.560
 1261BOLB   C2D30262   2.450  12.670  16.130
 1261BOLB   C3D30263   2.420  12.620  15.720
 1261BOLB   C4D30264   2.420  12.440  15.320
 1262BOLB   NC130265   9.090  12.840  11.040
 1262BOLB   PO130266   9.260  12.570  10.720
 1262BOLB   GL130267   8.830  12.520  10.720
 1262BOLB   GL230268   8.680  12.880  10.660
 1262BOLB   C1A30269   8.490  12.220  10.810
 1262BOLB   C2A30270   8.160  11.880  10.860
 1262BOLB   C3A30271   7.920  11.590  10.820
 1262BOLB   C4A30272   7.800  11.170  10.780
 1262BOLB   C1B30273   8.270  12.760  10.800
 1262BOLB   C2B30274   7.860  12.550  10.780
 1262BOLB   C3B30275   7.450  12.470  11.000
 1262BOLB   C4B30276   7.030  12.380  10.780
 1262BOLB   NC230277   5.830  11.400   9.110
 1262BOLB   PO230278   5.850  10.920   9.050
 1262BOLB   GL330279   6.240  10.870   9.270
 1262BOLB   GL430280   6.570  10.680   9.000
 1262BOLB   C1C30281   6.640  10.880   9.500
 1262BOLB   C2C30282   6.930  11.020   9.750
 1262BOLB   C3C30283   7.350  11.140  10.010
 1262BOLB   C4C30284   7.550  11.030  10.450
 1262BOLB   C1D30285   6.830  10.890   8.800
 1262BOLB   C2D30286   7.040  11.190   8.650
 1262BOLB   C3D30287   7.420  11.420   8.580
 1262BOLB   C4D30288   7.880  11.490   8.380
 1263BOLB   NC130289  18.570  11.520  16.470
 1263BOLB   PO130290  18.400  11.560  16.880
 1263BOLB   GL130291  18.540  11.130  16.930
 1263BOLB   GL230292  18.540  11.160  17.130
 1263BOLB   C1A30293  18.470  10.720  17.270
 1263BOLB   C2A30294  18.830  10.460  17.380
 1263BOLB   C3A30295  18.930  10.160  17.700
 1263BOLB   C4A30296  19.150   9.940  18.000
 1263BOLB   C1B30297  18.950  10.950  17.320
 1263BOLB   C2B30298  19.050  11.010  17.770
 1263BOLB   C3B30299  19.330  10.760  17.950
 1263BOLB   C4B30300  19.330  10.400  18.140
 1263BOLB   NC230301  20.740   9.370  19.380
 1263BOLB   PO230302  20.470   9.250  19.710
 1263BOLB   GL330303  20.220   9.050  19.410
 1263BOLB   GL430304  20.360   9.140  19.070
 1263BOLB   C1C30305  19.910   9.210  19.250
 1263BOLB   C2C30306  19.590   9.370  18.960
 1263BOLB   C3C30307  19.490   9.740  18.730
 1263BOLB   C4C30308  19.370   9.890  18.350
 1263BOLB   C1D30309  20.230   9.600  19.030
 1263BOLB   C2D30310  19.940   9.850  18.910
 1263BOLB   C3D30311  19.860   9.990  18.460
 1263BOLB   C4D30312  19.770  10.220  18.150
 1264BOLB   NC130313  19.060  11.740   6.120
 1264BOLB   PO130314  18.750  11.750   5.870
 1264BOLB   GL130315  18.540  11.790   5.480
 1264BOLB   GL230316  18.350  12.010   5.310
 1264BOLB   C1A30317  18.530  11.490   5.190
 1264BOLB   C2A30318  18.560  11.130   4.860
 1264BOLB   C3A30319  18.620  11.100   4.440
 1264BOLB   C4A30320  18.850  11.030   4.070
 1264BOLB   C1B30321  18.480  11.820   4.860
 1264BOLB   C2B30322  18.260  11.560   4.640
 1264BOLB   C3B30323  17.820  11.410   4.440
 1264BOLB   C4B30324  17.670  11.110   4.090
 1264BOLB   NC230325  18.940   9.320   2.210
 1264BOLB   PO230326  19.090   9.780   2.310
 1264BOLB   GL330327  19.150  10.130   2.560
 1264BOLB   GL430328  18.990  10.390   2.590
 1264BOLB   C1C30329  19.440  10.380   2.960
 1264BOLB   C2C30330  19.370  10.590   3.220
 1264BOLB   C3C30331  19.200  10.940   3.410
 1264BOLB   C4C30332  19.050  11.100   3.740
 1264BOLB   C1D30333  18.930  10.470   3.000
 1264BOLB   C2D30334  18.830  10.470   3.430
 1264BOLB   C3D30335  18.550  10.530   3.680
 1264BOLB   C4D30336  18.480  10.740   3.980
 1265BOLB   NC130337   8.680  14.840   9.520
 1265BOLB   PO130338   8.720  14.490   9.440
 1265BOLB   GL130339   8.440  14.250   9.300
 1265BOLB   GL230340   8.390  13.890   9.320
 1265BOLB   C1A30341   8.050  14.240   9.190
 1265BOLB   C2A30342   7.640  14.070   9.100
 1265BOLB   C3A30343   7.300  14.050   8.840
 1265BOLB   C4A30344   7.070  13.800   8.600
 1265BOLB   C1B30345   8.070  13.730   8.960
 1265BOLB   C2B30346   7.600  13.560   9.010
 1265BOLB   C3B30347   7.090  13.540   9.010
 1265BOLB   C4B30348   6.850  13.220   8.880
 1265BOLB   NC230349   5.180  13.310   7.460
 1265BOLB   PO230350   5.430  12.870   7.500
 1265BOLB   GL330351   5.850  13.000   7.470
 1265BOLB   GL430352   5.860  13.440   7.590
 1265BOLB   C1C30353   6.240  12.980   7.660
 1265BOLB   C2C30354   6.600  13.140   7.820
 1265BOLB   C3C30355   6.840  13.390   7.870
 1265BOLB   C4C30356   6.780  13.620   8.320
 1265BOLB   C1D30357   6.300  13.540   7.810
 1265BOLB   C2D30358   6.600  13.910   7.970
 1265BOLB   C3D30359   6.970  14.130   8.180
 1265BOLB   C4D30360   7.400  14.300   8.370
 1266BOLB   NC130361  17.170  20.300   5.780
 1266BOLB   PO130362  16.830  20.600   5.740
 1266BOLB   GL130363  16.780  20.910   5.480
 1266BOLB   GL230364  17.060  21.080   5.470
 1266BOLB   C1A30365  16.770  21.240   5.120
 1266BOLB   C2A30366  17.010  21.310   4.770
 1266BOLB   C3A30367  17.240  21.440   4.390
 1266BOLB   C4A30368  17.230  21.830   4.130
 1266BOLB   C1B30369  17.240  21.030   5.090
 1266BOLB   C2B30370  17.520  21.260   4.760
 1266BOLB   C3B30371  17.850  21.600   4.630
 1266BOLB   C4B30372  18.100  21.870   4.290
 1266BOLB   NC230373  18.760  23.190   2.570
 1266BOLB   PO230374  18.300  23.380   2.700
 1266BOLB   GL330375  18.350  22.980   2.920
 1266BOLB   GL430376  18.470  23.040   3.250
 1266BOLB   C1C30377  18.060  22.700   3.140
 1266BOLB   C2C30378  17.700  22.700   3.400
 1266BOLB   C3C30379  17.770  22.400   3.710
 1266BOLB   C4C30380  17.600  22.140   3.990
 1266BOLB   C1D30381  18.720  22.760   3.520
 1266BOLB   C2D30382  18.970  22.460   3.530
 1266BOLB   C3D30383  18.870  22.110   3.700
 1266BOLB   C4D30384  18.770  21.670   3.900
 1267BOLB   NC130385   7.670  15.520   9.920
 1267BOLB   PO130386   7.830  15.890   9.770
 1267BOLB   GL130387   7.640  16.130   9.410
 1267BOLB   GL230388   7.780  16.180   9.170
 1267BOLB   C1A30389   7.360  16.410   9.370
 1267BOLB   C2A30390   6.870  16.520   9.360
 1267BOLB   C3A30391   6.510  16.760   9.270
 1267BOLB   C4A30392   6.060  16.920   9.390
 1267BOLB   C1B30393   7.830  16.110   8.770
 1267BOLB   C2B30394   7.630  16.300   8.390
 1267BOLB   C3B30395   7.140  16.430   8.430
 1267BOLB   C4B30396   6.690  16.360   8.350
 1267BOLB   NC230397   4.070  16.620   9.570
 1267BOLB   PO230398   4.290  16.340   9.250
 1267BOLB   GL330399   4.500  16.250   9.580
 1267BOLB   GL430400   4.530  16.630   9.770
 1267BOLB   C1C30401   4.780  16.160   9.990
 1267BOLB   C2C30402   5.190  16.370  10.170
 1267BOLB   C3C30403   5.570  16.490  10.000
 1267BOLB   C4C30404   5.740  16.740   9.720
 1267BOLB   C1D30405   5.020  16.380   9.590
 1267BOLB   C2D30406   5.280  16.190   9.730
 1267BOLB   C3D30407   5.580  15.970   9.950
 1267BOLB   C4D30408   5.710  15.530  10.170
 1268BOLB   NC130409  20.460  14.200   5.490
 1268BOLB   PO130410  20.750  14.030   5.860
 1268BOLB   GL130411  20.940  14.070   5.460
 1268BOLB   GL230412  20.930  14.190   5.100
 1268BOLB   C1A30413  21.300  13.850   5.270
 1268BOLB   C2A30414  21.710  13.960   5.120
 1268BOLB   C3A30415  22.140  14.130   4.920
 1268BOLB   C4A30416  22.500  14.450   4.800
 1268BOLB   C1B30417  21.260  14.320   4.770
 1268BOLB   C2B30418  21.640  14.150   4.660
 1268BOLB   C3B30419  21.940  13.750   4.630
 1268BOLB   C4B30420  22.130  13.540   4.310
 1268BOLB   NC230421  24.950  14.630   3.390
 1268BOLB   PO230422  24.540  14.680   3.370
 1268BOLB   GL330423  24.310  14.550   3.720
 1268BOLB   GL430424  23.990  14.610   3.690
 1268BOLB   C1C30425  24.180  14.390   4.150
 1268BOLB   C2C30426  23.840  14.420   4.450
 1268BOLB   C3C30427  23.490  14.130   4.690
 1268BOLB   C4C30428  22.910  14.130   4.750
 1268BOLB   C1D30429  23.640  14.810   3.870
 1268BOLB   C2D30430  23.480  14.880   4.300
 1268BOLB   C3D30431  23.360  15.070   4.610
 1268BOLB   C4D30432  23.100  15.240   4.470
 1269BOLB   NC130433  10.360  18.390   7.880
 1269BOLB   PO130434  10.040  18.360   7.550
 1269BOLB   GL130435   9.890  18.610   7.260
 1269BOLB   GL230436   9.750  18.340   7.090
 1269BOLB   C1A30437   9.480  18.800   7.050
 1269BOLB   C2A30438   9.210  19.090   6.860
 1269BOLB   C3A30439   8.850  19.270   6.640
 1269BOLB   C4A30440   8.470  19.490   6.720
 1269BOLB   C1B30441   9.630  17.950   6.840
 1269BOLB   C2B30442   9.320  17.960   6.540
 1269BOLB   C3B30443   9.010  17.940   6.280
 1269BOLB   C4B30444   8.660  17.750   6.140
 1269BOLB   NC230445   6.010  20.010   5.900
 1269BOLB   PO230446   6.300  19.650   6.060
 1269BOLB   GL330447   6.520  19.700   6.390
 1269BOLB   GL430448   6.500  19.640   6.780
 1269BOLB   C1C30449   6.920  19.500   6.540
 1269BOLB   C2C30450   7.270  19.700   6.640
 1269BOLB   C3C30451   7.660  19.820   6.550
 1269BOLB   C4C30452   8.040  19.680   6.680
 1269BOLB   C1D30453   6.810  19.400   7.020
 1269BOLB   C2D30454   6.710  18.990   7.130
 1269BOLB   C3D30455   6.790  18.650   7.510
 1269BOLB   C4D30456   6.680  18.620   7.890
 1270BOLB   NC130457  10.180  10.830  11.500
 1270BOLB   PO130458  10.350  10.450  11.480
 1270BOLB   GL130459  10.170  10.170  11.550
 1270BOLB   GL230460  10.270   9.730  11.660
 1270BOLB   C1A30461   9.800  10.080  11.670
 1270BOLB   C2A30462   9.400   9.840  11.870
 1270BOLB   C3A30463   8.990   9.570  11.840
 1270BOLB   C4A30464   8.810   9.250  11.980
 1270BOLB   C1B30465  10.020   9.250  11.770
 1270BOLB   C2B30466   9.800   8.930  12.010
 1270BOLB   C3B30467   9.380   8.700  11.960
 1270BOLB   C4B30468   9.080   8.370  11.880
 1270BOLB   NC230469   7.440   7.560  11.080
 1270BOLB   PO230470   7.010   7.740  11.260
 1270BOLB   GL330471   7.150   8.130  11.520
 1270BOLB   GL430472   7.140   8.410  11.340
 1270BOLB   C1C30473   7.440   8.230  11.830
 1270BOLB   C2C30474   7.780   8.360  12.070
 1270BOLB   C3C30475   8.170   8.560  12.120
 1270BOLB   C4C30476   8.500   8.840  11.980
 1270BOLB   C1D30477   7.440   8.750  11.450
 1270BOLB   C2D30478   7.810   8.920  11.640
 1270BOLB   C3D30479   8.030   9.020  11.970
 1270BOLB   C4D30480   8.250   9.410  11.940
 1271BOLB   NC130481   8.560  19.510  10.510
 1271BOLB   PO130482   8.160  19.420  10.510
 1271BOLB   GL130483   7.800  19.410  10.200
 1271BOLB   GL230484   7.650  19.150  10.210
 1271BOLB   C1A30485   7.510  19.570   9.930
 1271BOLB   C2A30486   7.100  19.290   9.930
 1271BOLB   C3A30487   6.740  19.300   9.830
 1271BOLB   C4A30488   6.380  19.330   9.530
 1271BOLB   C1B30489   7.480  18.970   9.950
 1271BOLB   C2B30490   7.090  18.880   9.700
 1271BOLB   C3B30491   6.750  18.840   9.710
 1271BOLB   C4B30492   6.420  18.570   9.770
 1271BOLB   NC230493   4.670  19.810   9.490
 1271BOLB   PO230494   4.340  19.540   9.690
 1271BOLB   GL330495   4.680  19.440   9.980
 1271BOLB   GL430496   4.740  19.520  10.280
 1271BOLB   C1C30497   4.980  19.170   9.890
 1271BOLB   C2C30498   5.440  19.180   9.870
 1271BOLB   C3C30499   5.650  19.190   9.470
 1271BOLB   C4C30500   5.990  19.330   9.420
 1271BOLB   C1D30501   5.120  19.390  10.300
 1271BOLB   C2D30502   5.600  19.630  10.290
 1271BOLB   C3D30503   5.930  19.650  10.360
 1271BOLB   C4D30504   6.320  19.830  10.480
 1272BOLB   NC130505  14.120   9.650  10.200
 1272BOLB   PO130506  14.120   9.180  10.300
 1272BOLB   GL130507  14.240   8.730  10.220
 1272BOLB   GL230508  14.440   8.740   9.820
 1272BOLB   C1A30509  14.190   8.340  10.000
 1272BOLB   C2A30510  14.190   7.960   9.810
 1272BOLB   C3A30511  14.140   7.560   9.570
 1272BOLB   C4A30512  14.150   7.210   9.210
 1272BOLB   C1B30513  14.570   8.300   9.610
 1272BOLB   C2B30514  14.310   7.970   9.330
 1272BOLB   C3B30515  14.440   7.620   9.110
 1272BOLB   C4B30516  14.610   7.350   8.770
 1272BOLB   NC230517  14.020   5.390   8.030
 1272BOLB   PO230518  14.310   5.540   8.210
 1272BOLB   GL330519  14.190   5.850   8.470
 1272BOLB   GL430520  14.100   5.780   8.790
 1272BOLB   C1C30521  14.190   6.250   8.640
 1272BOLB   C2C30522  14.510   6.450   8.550
 1272BOLB   C3C30523  14.320   6.900   8.500
 1272BOLB   C4C30524  14.070   7.120   8.810
 1272BOLB   C1D30525  14.170   6.010   9.140
 1272BOLB   C2D30526  14.080   6.290   9.410
 1272BOLB   C3D30527  14.420   6.220   9.750
 1272BOLB   C4D30528  14.800   6.520   9.660
 1273BOLB   NC130529  16.560  21.410   6.370
 1273BOLB   PO130530  16.170  21.230   6.160
 1273BOLB   GL130531  16.330  21.500   5.840
 1273BOLB   GL230532  16.540  21.410   5.610
 1273BOLB   C1A30533  16.130  21.850   5.690
 1273BOLB   C2A30534  16.200  22.040   5.400
 1273BOLB   C3A30535  16.220  22.390   5.050
 1273BOLB   C4A30536  16.040  22.850   5.040
 1273BOLB   C1B30537  16.450  21.630   5.200
 1273BOLB   C2B30538  16.200  21.840   4.950
 1273BOLB   C3B30539  16.010  22.060   4.590
 1273BOLB   C4B30540  15.880  22.100   4.230
 1273BOLB   NC230541  16.620  23.580   2.820
 1273BOLB   PO230542  16.450  23.760   3.160
 1273BOLB   GL330543  16.540  23.630   3.520
 1273BOLB   GL430544  16.810  23.470   3.430
 1273BOLB   C1C30545  16.380  23.470   3.870
 1273BOLB   C2C30546  16.140  23.350   4.090
 1273BOLB   C3C30547  16.180  23.410   4.530
 1273BOLB   C4C30548  16.130  23.160   4.930
 1273BOLB   C1D30549  17.060  23.380   3.810
 1273BOLB   C2D30550  17.280  23.190   3.970
 1273BOLB   C3D30551  17.190  22.930   4.340
 1273BOLB   C4D30552  16.980  22.860   4.770
 1274BOLB   NC130553  20.310  17.870  18.190
 1274BOLB   PO130554  20.360  17.460  18.310
 1274BOLB   GL130555  20.740  17.380  18.570
 1274BOLB   GL230556  20.760  17.010  18.750
 1274BOLB   C1A30557  20.940  17.490  18.920
 1274BOLB   C2A30558  21.360  17.790  19.010
 1274BOLB   C3A30559  21.510  17.760  19.350
 1274BOLB   C4A30560  21.790  17.620  19.710
 1274BOLB   C1B30561  21.020  16.960  19.150
 1274BOLB   C2B30562  21.150  16.850  19.590
 1274BOLB   C3B30563  21.030  16.650  20.020
 1274BOLB   C4B30564  20.970  16.280  20.240
 1274BOLB   NC230565  23.970  18.040  20.730
 1274BOLB   PO230566  23.530  18.150  21.040
 1274BOLB   GL330567  23.400  17.830  20.800
 1274BOLB   GL430568  23.250  17.570  20.990
 1274BOLB   C1C30569  22.840  17.720  20.710
 1274BOLB   C2C30570  22.490  17.480  20.860
 1274BOLB   C3C30571  22.210  17.360  20.470
 1274BOLB   C4C30572  22.040  17.490  20.040
 1274BOLB   C1D30573  22.990  17.250  20.970
 1274BOLB   C2D30574  22.760  17.110  20.630
 1274BOLB   C3D30575  22.660  17.420  20.240
 1274BOLB   C4D30576  22.580  17.820  20.120
 1275BOLB   NC130577  15.440  19.220   5.460
 1275BOLB   PO130578  15.330  19.010   5.060
 1275BOLB   GL130579  15.410  19.180   4.640
 1275BOLB   GL230580  15.720  19.150   4.500
 1275BOLB   C1A30581  15.220  19.570   4.270
 1275BOLB   C2A30582  15.140  19.830   3.930
 1275BOLB   C3A30583  14.830  19.690   3.590
 1275BOLB   C4A30584  14.570  19.940   3.280
 1275BOLB   C1B30585  15.720  19.370   4.180
 1275BOLB   C2B30586  15.580  19.650   3.860
 1275BOLB   C3B30587  15.470  20.060   3.660
 1275BOLB   C4B30588  15.210  20.380   3.890
 1275BOLB   NC230589  13.540  20.930   1.680
 1275BOLB   PO230590  13.210  21.130   1.950
 1275BOLB   GL330591  13.670  20.950   2.250
 1275BOLB   GL430592  13.580  20.820   2.490
 1275BOLB   C1C30593  13.970  20.800   2.210
 1275BOLB   C2C30594  14.300  20.420   2.320
 1275BOLB   C3C30595  14.560  20.150   2.500
 1275BOLB   C4C30596  14.680  19.890   2.860
 1275BOLB   C1D30597  13.240  20.480   2.290
 1275BOLB   C2D30598  12.960  20.170   2.590
 1275BOLB   C3D30599  12.810  19.720   2.670
 1275BOLB   C4D30600  12.760  19.300   2.480
 1276BOLB   NC130601   9.470  18.480   7.630
 1276BOLB   PO130602   9.670  18.020   7.690
 1276BOLB   GL130603   9.490  17.990   7.290
 1276BOLB   GL230604   9.150  18.120   7.450
 1276BOLB   C1A30605   9.290  18.280   6.990
 1276BOLB   C2A30606   9.010  18.570   6.860
 1276BOLB   C3A30607   8.680  18.770   6.680
 1276BOLB   C4A30608   8.460  19.000   6.490
 1276BOLB   C1B30609   8.790  18.270   7.170
 1276BOLB   C2B30610   8.450  18.230   6.950
 1276BOLB   C3B30611   8.210  18.630   6.740
 1276BOLB   C4B30612   8.010  18.870   6.420
 1276BOLB   NC230613   7.840  20.750   5.210
 1276BOLB   PO230614   8.080  20.870   4.790
 1276BOLB   GL330615   8.200  20.450   5.130
 1276BOLB   GL430616   8.370  20.210   4.940
 1276BOLB   C1C30617   8.300  20.140   5.460
 1276BOLB   C2C30618   8.010  19.840   5.650
 1276BOLB   C3C30619   8.160  19.530   5.860
 1276BOLB   C4C30620   8.330  19.310   6.240
 1276BOLB   C1D30621   8.800  20.080   5.120
 1276BOLB   C2D30622   8.810  19.920   5.490
 1276BOLB   C3D30623   9.020  19.540   5.680
 1276BOLB   C4D30624   9.290  19.400   5.740
 1277BOLB   NC130625   9.430  15.670   7.730
 1277BOLB   PO130626   9.550  15.250   7.620
 1277BOLB   GL130627   9.150  15.160   7.530
 1277BOLB   GL230628   8.940  15.040   7.750
 1277BOLB   C1A30629   8.730  15.300   7.350
 1277BOLB   C2A30630   8.350  15.130   7.230
 1277BOLB   C3A30631   8.140  14.730   7.290
 1277BOLB   C4A30632   7.710  14.550   7.190
 1277BOLB   C1B30633   8.620  14.800   7.690
 1277BOLB   C2B30634   8.330  14.460   7.690
 1277BOLB   C3B30635   7.850  14.490   7.780
 1277BOLB   C4B30636   7.480  14.700   7.610
 1277BOLB   NC230637   5.900  13.190   6.680
 1277BOLB   PO230638   5.880  13.610   6.390
 1277BOLB   GL330639   6.200  13.890   6.350
 1277BOLB   GL430640   6.460  13.730   6.380
 1277BOLB   C1C30641   6.480  14.250   6.390
 1277BOLB   C2C30642   6.680  14.450   6.670
 1277BOLB   C3C30643   6.910  14.460   7.000
 1277BOLB   C4C30644   7.230  14.520   7.210
 1277BOLB   C1D30645   6.860  13.880   6.380
 1277BOLB   C2D30646   6.940  14.030   6.770
 1277BOLB   C3D30647   7.070  13.930   7.140
 1277BOLB   C4D30648   7.380  13.670   7.210
 1278BOLB   NC130649  23.530  19.530  13.820
 1278BOLB   PO130650  23.550  19.320  14.150
 1278BOLB   GL130651  23.970  19.470  14.160
 1278BOLB   GL230652  24.180  19.350  13.880
 1278BOLB   C1A30653  24.200  19.740  14.520
 1278BOLB   C2A30654  24.590  19.930  14.720
 1278BOLB   C3A30655  24.970  20.210  14.750
 1278BOLB   C4A30656  25.140  20.700  14.630
 1278BOLB   C1B30657  24.580  19.310  14.160
 1278BOLB   C2B30658  25.000  19.310  14.210
 1278BOLB   C3B30659  25.230  19.550  14.150
 1278BOLB   C4B30660  25.560  19.850  14.080
 1278BOLB   NC230661  27.440  21.190  15.640
 1278BOLB   PO230662  27.020  21.110  15.800
 1278BOLB   GL330663  26.630  21.070  15.440
 1278BOLB   GL430664  26.380  21.300  15.570
 1278BOLB   C1C30665  26.420  21.170  15.070
 1278BOLB   C2C30666  26.150  21.390  14.830
 1278BOLB   C3C30667  25.730  21.270  14.710
 1278BOLB   C4C30668  25.290  21.120  14.710
 1278BOLB   C1D30669  25.980  21.160  15.330
 1278BOLB   C2D30670  25.670  21.070  15.140
 1278BOLB   C3D30671  25.260  20.820  15.160
 1278BOLB   C4D30672  25.140  20.350  15.180
 1279BOLB   NC130673   7.760  15.650  10.860
 1279BOLB   PO130674   7.950  15.970  10.920
 1279BOLB   GL130675   7.490  15.980  11.140
 1279BOLB   GL230676   7.270  15.820  10.950
 1279BOLB   C1A30677   6.970  16.090  11.260
 1279BOLB   C2A30678   6.560  16.120  11.180
 1279BOLB   C3A30679   6.300  15.930  11.080
 1279BOLB   C4A30680   5.990  15.640  10.940
 1279BOLB   C1B30681   6.800  15.850  10.840
 1279BOLB   C2B30682   6.410  15.810  10.620
 1279BOLB   C3B30683   6.110  15.540  10.480
 1279BOLB   C4B30684   5.830  15.140  10.500
 1279BOLB   NC230685   3.700  15.930  10.360
 1279BOLB   PO230686   4.020  15.980  10.000
 1279BOLB   GL330687   4.320  16.140  10.310
 1279BOLB   GL430688   4.240  16.350  10.540
 1279BOLB   C1C30689   4.720  15.930  10.380
 1279BOLB   C2C30690   4.910  15.510  10.390
 1279BOLB   C3C30691   5.290  15.300  10.410
 1279BOLB   C4C30692   5.530  15.430  10.780
 1279BOLB   C1D30693   4.490  16.030  10.860
 1279BOLB   C2D30694   4.610  15.950  11.300
 1279BOLB   C3D30695   5.020  15.790  11.480
 1279BOLB   C4D30696   5.190  15.490  11.740
 1280BOLB   NC130697  11.970   9.740  10.990
 1280BOLB   PO130698  11.870   9.580  11.450
 1280BOLB   GL130699  11.700   9.170  11.480
 1280BOLB   GL230700  11.420   9.190  11.420
 1280BOLB   C1A30701  11.720   8.650  11.520
 1280BOLB   C2A30702  11.520   8.400  11.870
 1280BOLB   C3A30703  11.240   8.060  11.900
 1280BOLB   C4A30704  11.310   7.590  11.760
 1280BOLB   C1B30705  11.270   8.770  11.420
 1280BOLB   C2B30706  11.360   8.350  11.310
 1280BOLB   C3B30707  11.690   8.000  11.490
 1280BOLB   C4B30708  12.160   7.780  11.580
 1280BOLB   NC230709  11.340   4.620  11.580
 1280BOLB   PO230710  11.310   5.130  11.490
 1280BOLB   GL330711  11.250   5.520  11.390
 1280BOLB   GL430712  11.420   5.600  11.090
 1280BOLB   C1C30713  11.050   5.870  11.550
 1280BOLB   C2C30714  11.160   6.330  11.470
 1280BOLB   C3C30715  11.270   6.690  11.730
 1280BOLB   C4C30716  11.350   7.110  11.770
 1280BOLB   C1D30717  11.750   5.900  11.180
 1280BOLB   C2D30718  11.710   6.290  11.190
 1280BOLB   C3D30719  11.720   6.480  11.590
 1280BOLB   C4D30720  11.470   6.650  12.140
 1281BOLB   NC130721  14.010  23.090  18.850
 1281BOLB   PO130722  13.860  22.770  18.630
 1281BOLB   GL130723  13.570  23.250  18.680
 1281BOLB   GL230724  13.570  23.190  19.060
 1281BOLB   C1A30725  13.430  23.670  19.020
 1281BOLB   C2A30726  13.050  23.840  19.360
 1281BOLB   C3A30727  12.910  24.190  19.530
 1281BOLB   C4A30728  12.500  24.530  19.690
 1281BOLB   C1B30729  13.160  23.310  19.310
 1281BOLB   C2B30730  12.740  23.460  19.410
 1281BOLB   C3B30731  12.250  23.590  19.550
 1281BOLB   C4B30732  12.030  24.010  19.680
 1281BOLB   NC230733  12.070  26.690  20.230
 1281BOLB   PO230734  11.850  26.920  19.870
 1281BOLB   GL330735  12.100  26.580  19.700
 1281BOLB   GL430736  12.140  26.650  19.410
 1281BOLB   C1C30737  12.150  26.180  19.770
 1281BOLB   C2C30738  12.220  25.730  19.770
 1281BOLB   C3C30739  12.280  25.320  19.570
 1281BOLB   C4C30740  12.310  24.850  19.490
 1281BOLB   C1D30741  12.260  26.240  19.310
 1281BOLB   C2D30742  12.540  26.110  18.820
 1281BOLB   C3D30743  12.790  25.860  18.600
 1281BOLB   C4D30744  12.890  25.500  18.330
 1282BOLB   NC130745  12.070  23.610  13.080
 1282BOLB   PO130746  11.600  23.700  13.190
 1282BOLB   GL130747  11.260  24.010  13.180
 1282BOLB   GL230748  11.280  24.170  13.470
 1282BOLB   C1A30749  11.070  24.290  13.010
 1282BOLB   C2A30750  11.060  24.650  12.970
 1282BOLB   C3A30751  11.180  25.030  12.960
 1282BOLB   C4A30752  10.890  25.340  12.810
 1282BOLB   C1B30753  11.370  24.570  13.330
 1282BOLB   C2B30754  11.610  25.000  13.220
 1282BOLB   C3B30755  11.590  25.360  13.090
 1282BOLB   C4B30756  11.320  25.680  12.970
 1282BOLB   NC230757   8.780  27.380  12.770
 1282BOLB   PO230758   9.290  27.190  12.990
 1282BOLB   GL330759   9.580  26.900  12.910
 1282BOLB   GL430760   9.330  26.800  12.690
 1282BOLB   C1C30761   9.860  26.600  12.850
 1282BOLB   C2C30762  10.370  26.550  12.780
 1282BOLB   C3C30763  10.620  26.160  12.870
 1282BOLB   C4C30764  10.760  25.740  12.790
 1282BOLB   C1D30765   9.350  26.390  12.840
 1282BOLB   C2D30766   9.660  26.130  13.020
 1282BOLB   C3D30767   9.900  25.680  13.240
 1282BOLB   C4D30768   9.970  25.300  13.340
 1283BOLB   NC130769  15.140  20.900   6.030
 1283BOLB   PO130770  14.970  21.040   6.390
 1283BOLB   GL130771  14.970  21.410   6.030
 1283BOLB   GL230772  15.160  21.470   5.930
 1283BOLB   C1A30773  14.760  21.540   5.640
 1283BOLB   C2A30774  14.760  21.610   5.200
 1283BOLB   C3A30775  14.700  21.860   4.800
 1283BOLB   C4A30776  14.990  21.860   4.510
 1283BOLB   C1B30777  15.020  21.940   5.880
 1283BOLB   C2B30778  14.750  22.230   5.710
 1283BOLB   C3B30779  14.850  22.610   5.600
 1283BOLB   C4B30780  14.860  23.010   5.420
 1283BOLB   NC230781  15.190  22.410   2.090
 1283BOLB   PO230782  15.570  22.230   2.240
 1283BOLB   GL330783  15.480  22.330   2.760
 1283BOLB   GL430784  15.250  22.460   2.620
 1283BOLB   C1C30785  15.260  22.180   3.130
 1283BOLB   C2C30786  15.290  21.970   3.510
 1283BOLB   C3C30787  15.430  21.900   4.020
 1283BOLB   C4C30788  15.250  22.050   4.370
 1283BOLB   C1D30789  14.920  22.360   2.850
 1283BOLB   C2D30790  14.820  22.270   3.280
 1283BOLB   C3D30791  14.770  22.160   3.700
 1283BOLB   C4D30792  14.950  21.890   3.900
 1284BOLB   NC130793  14.630  22.860   8.490
 1284BOLB   PO130794  14.820  22.730   8.120
 1284BOLB   GL130795  14.920  23.080   7.860
 1284BOLB   GL230796  15.190  22.990   7.690
 1284BOLB   C1A30797  14.870  23.340   7.440
 1284BOLB   C2A30798  14.640  23.620   7.340
 1284BOLB   C3A30799  14.300  23.780   7.020
 1284BOLB   C4A30800  14.100  24.120   7.090
 1284BOLB   C1B30801  15.310  23.390   7.600
 1284BOLB   C2B30802  15.150  23.780   7.430
 1284BOLB   C3B30803  14.990  23.960   7.190
 1284BOLB   C4B30804  14.910  24.210   6.820
 1284BOLB   NC230805  12.780  25.110   5.120
 1284BOLB   PO230806  13.250  25.220   5.300
 1284BOLB   GL330807  13.460  25.280   5.650
 1284BOLB   GL430808  13.730  25.380   5.670
 1284BOLB   C1C30809  13.470  25.120   6.060
 1284BOLB   C2C30810  13.680  25.040   6.450
 1284BOLB   C3C30811  13.840  24.770   6.730
 1284BOLB   C4C30812  13.850  24.460   7.130
 1284BOLB   C1D30813  13.870  25.010   5.800
 1284BOLB   C2D30814  14.040  24.720   5.520
 1284BOLB   C3D30815  13.860  24.260   5.340
 1284BOLB   C4D30816  13.820  23.880   5.080
 1285BOLB   NC130817   3.770  10.000  18.400
 1285BOLB   PO130818   3.810  10.440  18.730
 1285BOLB   GL130819   3.870  10.810  18.390
 1285BOLB   GL230820   3.730  10.600  18.130
 1285BOLB   C1A30821   4.160  11.040  18.210
 1285BOLB   C2A30822   4.390  11.350  18.010
 1285BOLB   C3A30823   4.460  11.730  17.760
 1285BOLB   C4A30824   4.230  12.010  17.440
 1285BOLB   C1B30825   4.090  10.500  17.800
 1285BOLB   C2B30826   4.370  10.750  17.520
 1285BOLB   C3B30827   4.500  11.140  17.300
 1285BOLB   C4B30828   4.520  11.180  16.830
 1285BOLB   NC230829   2.420  12.490  18.110
 1285BOLB   PO230830   2.300  12.730  17.920
 1285BOLB   GL330831   2.550  13.000  17.890
 1285BOLB   GL430832   2.400  13.360  17.780
 1285BOLB   C1C30833   2.950  13.040  17.700
 1285BOLB   C2C30834   3.260  12.860  17.400
 1285BOLB   C3C30835   3.730  12.670  17.410
 1285BOLB   C4C30836   3.980  12.370  17.300
 1285BOLB   C1D30837   2.800  13.540  17.600
 1285BOLB   C2D30838   3.190  13.400  17.430
 1285BOLB   C3D30839   3.510  13.210  17.080
 1285BOLB   C4D30840   3.810  13.020  17.110
 1286BOLB   NC130841  17.380  21.410   6.470
 1286BOLB   PO130842  16.990  21.770   6.420
 1286BOLB   GL130843  16.900  22.190   6.070
 1286BOLB   GL230844  16.910  22.460   6.230
 1286BOLB   C1A30845  16.790  22.530   5.740
 1286BOLB   C2A30846  16.650  22.950   5.780
 1286BOLB   C3A30847  16.670  23.360   5.850
 1286BOLB   C4A30848  16.550  23.700   5.720
 1286BOLB   C1B30849  16.970  22.860   6.270
 1286BOLB   C2B30850  17.040  23.110   6.080
 1286BOLB   C3B30851  17.250  23.420   5.860
 1286BOLB   C4B30852  17.240  23.650   5.480
 1286BOLB   NC230853  15.740  24.500   3.840
 1286BOLB   PO230854  15.360  24.770   3.760
 1286BOLB   GL330855  15.230  24.500   4.080
 1286BOLB   GL430856  15.230  24.200   3.950
 1286BOLB   C1C30857  15.550  24.430   4.400
 1286BOLB   C2C30858  15.590  24.410   4.910
 1286BOLB   C3C30859  15.880  24.200   5.270
 1286BOLB   C4C30860  16.170  24.090   5.620
 1286BOLB   C1D30861  15.080  24.160   4.490
 1286BOLB   C2D30862  15.360  23.990   4.690
 1286BOLB   C3D30863  15.470  23.960   5.140
 1286BOLB   C4D30864  15.590  23.770   5.560
 1287BOLB   NC130865  26.540  10.850  11.550
 1287BOLB   PO130866  26.510  10.850  11.970
 1287BOLB   GL130867  26.170  10.720  12.210
 1287BOLB   GL230868  26.130  10.950  12.440
 1287BOLB   C1A30869  25.740  10.750  12.190
 1287BOLB   C2A30870  25.480  10.440  12.180
 1287BOLB   C3A30871  25.090  10.460  12.280
 1287BOLB   C4A30872  24.700  10.340  12.200
 1287BOLB   C1B30873  26.030  11.360  12.290
 1287BOLB   C2B30874  25.650  11.590  12.200
 1287BOLB   C3B30875  25.310  11.610  11.860
 1287BOLB   C4B30876  25.270  11.850  11.450
 1287BOLB   NC230877  25.500   8.400  11.350
 1287BOLB   PO230878  25.250   8.510  10.980
 1287BOLB   GL330879  24.990   8.870  11.050
 1287BOLB   GL430880  24.680   8.830  10.760
 1287BOLB   C1C30881  24.980   9.300  10.950
 1287BOLB   C2C30882  24.750   9.600  11.200
 1287BOLB   C3C30883  24.610   9.910  11.550
 1287BOLB   C4C30884  24.520  10.200  11.820
 1287BOLB   C1D30885  24.420   9.090  11.120
 1287BOLB   C2D30886  24.260   9.470  11.210
 1287BOLB   C3D30887  24.070   9.790  11.230
 1287BOLB   C4D30888  24.090  10.120  11.420
 1288BOLB   NC130889  20.690  11.460   8.970
 1288BOLB   PO130890  20.880  11.220   8.610
 1288BOLB   GL130891  21.150  10.850   8.710
 1288BOLB   GL230892  21.030  10.570   8.760
 1288BOLB   C1A30893  21.580  10.640   8.760
 1288BOLB   C2A30894  22.000  10.710   8.440
 1288BOLB   C3A30895  22.290  10.470   8.320
 1288BOLB   C4A30896  22.420  10.090   8.060
 1288BOLB   C1B30897  21.330  10.230   8.650
 1288BOLB   C2B30898  21.390  10.080   8.230
 1288BOLB   C3B30899  21.660   9.780   7.980
 1288BOLB   C4B30900  22.000   9.670   7.750
 1288BOLB   NC230901  23.900   8.740   6.820
 1288BOLB   PO230902  24.050   8.590   7.190
 1288BOLB   GL330903  23.900   8.880   7.430
 1288BOLB   GL430904  24.030   8.930   7.740
 1288BOLB   C1C30905  23.570   9.110   7.380
 1288BOLB   C2C30906  23.250   9.390   7.550
 1288BOLB   C3C30907  22.850   9.450   7.740
 1288BOLB   C4C30908  22.460   9.630   7.890
 1288BOLB   C1D30909  23.910   9.390   7.580
 1288BOLB   C2D30910  23.720   9.630   7.660
 1288BOLB   C3D30911  23.410   9.820   7.800
 1288BOLB   C4D30912  23.250  10.140   8.040
 1289BOLB   NC130913   8.580  15.890   9.080
 1289BOLB   PO130914   8.710  16.180   9.350
 1289BOLB   GL130915   8.450  16.360   9.040
 1289BOLB   GL230916   8.570  16.660   8.860
 1289BOLB   C1A30917   8.110  16.620   8.970
 1289BOLB   C2A30918   7.750  16.600   8.810
 1289BOLB   C3A30919   7.440  16.490   8.870
 1289BOLB   C4A30920   7.040  16.450   8.920
 1289BOLB   C1B30921   8.180  16.800   8.540
 1289BOLB   C2B30922   7.830  16.740   8.220
 1289BOLB   C3B30923   7.430  16.570   8.040
 1289BOLB   C4B30924   7.010  16.420   7.890
 1289BOLB   NC230925   4.160  16.100   8.840
 1289BOLB   PO230926   4.410  16.300   8.550
 1289BOLB   GL330927   4.750  16.590   8.800
 1289BOLB   GL430928   4.840  16.370   9.090
 1289BOLB   C1C30929   5.210  16.590   8.860
 1289BOLB   C2C30930   5.600  16.560   8.940
 1289BOLB   C3C30931   6.100  16.580   9.030
 1289BOLB   C4C30932   6.610  16.550   8.870
 1289BOLB   C1D30933   5.000  16.090   9.110
 1289BOLB   C2D30934   5.380  16.230   9.250
 1289BOLB   C3D30935   5.770  16.330   9.440
 1289BOLB   C4D30936   5.980  16.040   9.640
 1290BOLB   NC130937  16.650  18.870   4.310
 1290BOLB   PO130938  16.830  19.230   4.560
 1290BOLB   GL130939  16.780  19.440   4.180
 1290BOLB   GL230940  16.650  19.210   3.940
 1290BOLB   C1A30941  16.740  19.730   3.840
 1290BOLB   C2A30942  16.450  19.660   3.440
 1290BOLB   C3A30943  16.410  19.890   3.010
 1290BOLB   C4A30944  16.330  19.980   2.590
 1290BOLB   C1B30945  16.440  19.200   3.550
 1290BOLB   C2B30946  16.190  19.210   3.210
 1290BOLB   C3B30947  16.090  19.350   2.860
 1290BOLB   C4B30948  15.930  19.590   2.520
 1290BOLB   NC230949  16.200  19.950  31.320
 1290BOLB   PO230950  16.230  20.190   0.330
 1290BOLB   GL330951  16.320  19.760   0.570
 1290BOLB   GL430952  16.200  19.570   0.260
 1290BOLB   C1C30953  16.360  19.460   1.080
 1290BOLB   C2C30954  16.550  19.530   1.470
 1290BOLB   C3C30955  16.440  19.480   1.870
 1290BOLB   C4C30956  16.340  19.780   2.250
 1290BOLB   C1D30957  15.800  19.550   0.680
 1290BOLB   C2D30958  15.870  19.500   1.200
 1290BOLB   C3D30959  16.080  19.270   1.470
 1290BOLB   C4D30960  16.010  19.070   1.780
 1291BOLB   NC130961  22.410  12.860   8.450
 1291BOLB   PO130962  22.010  12.930   8.230
 1291BOLB   GL130963  22.230  12.600   8.000
 1291BOLB   GL230964  22.200  12.260   7.990
 1291BOLB   C1A30965  22.580  12.540   7.700
 1291BOLB   C2A30966  22.980  12.240   7.580
 1291BOLB   C3A30967  23.250  11.980   7.320
 1291BOLB   C4A30968  23.430  11.770   7.090
 1291BOLB   C1B30969  22.440  11.940   7.810
 1291BOLB   C2B30970  22.770  11.740   7.520
 1291BOLB   C3B30971  23.110  11.490   7.540
 1291BOLB   C4B30972  23.410  11.340   7.820
 1291BOLB   NC230973  24.200   9.480   5.540
 1291BOLB   PO230974  23.890   9.480   5.870
 1291BOLB   GL330975  23.730   9.760   6.180
 1291BOLB   GL430976  23.640   9.590   6.480
 1291BOLB   C1C30977  23.810  10.170   6.350
 1291BOLB   C2C30978  23.670  10.510   6.570
 1291BOLB   C3C30979  23.660  10.950   6.590
 1291BOLB   C4C30980  23.710  11.410   6.860
 1291BOLB   C1D30981  23.740   9.910   6.730
 1291BOLB   C2D30982  24.000  10.120   6.810
 1291BOLB   C3D30983  23.940  10.520   6.970
 1291BOLB   C4D30984  23.820  10.880   7.090
 1292BOLB   NC130985  22.890  20.010  13.940
 1292BOLB   PO130986  23.070  20.480  13.980
 1292BOLB   GL130987  23.490  20.590  14.170
 1292BOLB   GL230988  23.850  20.700  13.920
 1292BOLB   C1A30989  23.710  20.710  14.430
 1292BOLB   C2A30990  23.930  20.460  14.800
 1292BOLB   C3A30991  24.280  20.270  15.020
 1292BOLB   C4A30992  24.720  20.020  15.180
 1292BOLB   C1B30993  24.210  20.730  14.170
 1292BOLB   C2B30994  24.170  20.890  14.580
 1292BOLB   C3B30995  24.410  20.710  14.920
 1292BOLB   C4B30996  24.790  20.630  15.040
 1292BOLB   NC230997  27.190  20.360  16.180
 1292BOLB   PO230998  26.860  20.590  15.900
 1292BOLB   GL330999  26.620  20.380  15.540
 1292BOLB   GL431000  26.610  20.110  15.590
 1292BOLB   C1C31001  26.210  20.280  15.290
 1292BOLB   C2C31002  25.820  20.210  15.480
 1292BOLB   C3C31003  25.440  19.880  15.520
 1292BOLB   C4C31004  25.130  19.870  15.200
 1292BOLB   C1D31005  26.270  20.020  15.780
 1292BOLB   C2D31006  25.820  20.020  16.080
 1292BOLB   C3D31007  25.510  20.050  16.480
 1292BOLB   C4D31008  25.240  19.780  16.800
 1293BOLB   NC131009   9.400  22.080  12.960
 1293BOLB   PO131010   9.340  21.660  12.910
 1293BOLB   GL131011   8.810  21.780  12.900
 1293BOLB   GL231012   8.800  22.130  12.960
 1293BOLB   C1A31013   8.390  21.770  12.790
 1293BOLB   C2A31014   7.950  21.890  12.800
 1293BOLB   C3A31015   7.510  21.920  12.930
 1293BOLB   C4A31016   7.440  22.200  13.110
 1293BOLB   C1B31017   8.310  22.230  13.070
 1293BOLB   C2B31018   7.880  22.410  13.020
 1293BOLB   C3B31019   7.570  22.710  12.750
 1293BOLB   C4B31020   7.310  23.110  12.720
 1293BOLB   NC231021   5.690  23.240  12.460
 1293BOLB   PO231022   5.490  23.090  12.860
 1293BOLB   GL331023   5.970  23.120  12.860
 1293BOLB   GL431024   6.090  22.890  13.090
 1293BOLB   C1C31025   6.280  23.380  13.030
 1293BOLB   C2C31026   6.640  23.140  13.150
 1293BOLB   C3C31027   7.050  22.880  13.100
 1293BOLB   C4C31028   7.320  22.570  13.170
 1293BOLB   C1D31029   6.200  22.530  12.950
 1293BOLB   C2D31030   6.420  22.120  12.980
 1293BOLB   C3D31031   6.760  21.920  12.960
 1293BOLB   C4D31032   7.100  21.700  12.890
 1294BOLB   NC131033   8.230  18.200   3.050
 1294BOLB   PO131034   8.330  17.690   3.170
 1294BOLB   GL131035   8.820  17.660   3.350
 1294BOLB   GL231036   8.870  17.310   3.500
 1294BOLB   C1A31037   9.230  17.680   3.570
 1294BOLB   C2A31038   9.350  17.780   4.000
 1294BOLB   C3A31039   9.670  17.810   4.280
 1294BOLB   C4A31040   9.680  17.890   4.640
 1294BOLB   C1B31041   9.080  17.290   3.860
 1294BOLB   C2B31042   9.480  17.330   4.100
 1294BOLB   C3B31043   9.530  17.070   4.510
 1294BOLB   C4B31044   9.600  16.660   4.770
 1294BOLB   NC231045   7.420  18.010   4.080
 1294BOLB   PO231046   7.640  18.260   4.410
 1294BOLB   GL331047   7.810  18.250   4.740
 1294BOLB   GL431048   7.930  18.550   4.790
 1294BOLB   C1C31049   8.250  18.200   4.870
 1294BOLB   C2C31050   8.660  18.190   4.940
 1294BOLB   C3C31051   9.120  18.150   5.020
 1294BOLB   C4C31052   9.400  18.030   4.910
 1294BOLB   C1D31053   7.910  18.440   5.180
 1294BOLB   C2D31054   8.010  18.600   5.600
 1294BOLB   C3D31055   7.950  18.420   6.060
 1294BOLB   C4D31056   8.040  18.240   6.450
 1295BOLB   NC131057  18.970  10.890   8.450
 1295BOLB   PO131058  19.070  10.500   8.280
 1295BOLB   GL131059  19.370  10.050   8.300
 1295BOLB   GL231060  19.300   9.770   8.060
 1295BOLB   C1A31061  19.710   9.730   8.330
 1295BOLB   C2A31062  20.120   9.720   8.180
 1295BOLB   C3A31063  20.220   9.430   7.950
 1295BOLB   C4A31064  20.380   9.040   7.980
 1295BOLB   C1B31065  19.420   9.370   8.240
 1295BOLB   C2B31066  19.760   9.110   8.360
 1295BOLB   C3B31067  20.170   9.190   8.430
 1295BOLB   C4B31068  20.520   9.050   8.560
 1295BOLB   NC231069  21.170   7.240   6.410
 1295BOLB   PO231070  21.500   7.090   6.850
 1295BOLB   GL331071  21.400   7.490   7.010
 1295BOLB   GL431072  21.120   7.600   6.730
 1295BOLB   C1C31073  21.100   7.630   7.270
 1295BOLB   C2C31074  20.870   7.980   7.410
 1295BOLB   C3C31075  20.720   8.330   7.740
 1295BOLB   C4C31076  20.520   8.580   8.030
 1295BOLB   C1D31077  20.870   7.930   6.910
 1295BOLB   C2D31078  20.630   8.300   6.770
 1295BOLB   C3D31079  20.330   8.700   6.830
 1295BOLB   C4D31080  20.210   9.140   7.100
 1296BOLB   NC131081  21.770  20.140   6.860
 1296BOLB   PO131082  22.000  19.870   7.170
 1296BOLB   GL131083  22.270  20.080   6.910
 1296BOLB   GL231084  22.240  20.490   6.810
 1296BOLB   C1A31085  22.690  20.350   6.730
 1296BOLB   C2A31086  22.860  20.750   6.610
 1296BOLB   C3A31087  23.190  20.820   6.480
 1296BOLB   C4A31088  23.490  20.950   6.190
 1296BOLB   C1B31089  22.060  20.630   6.460
 1296BOLB   C2B31090  22.030  20.770   6.080
 1296BOLB   C3B31091  22.290  20.910   5.720
 1296BOLB   C4B31092  22.810  21.070   5.600
 1296BOLB   NC231093  24.970  21.460   4.300
 1296BOLB   PO231094  24.790  21.140   4.170
 1296BOLB   GL331095  24.370  21.200   4.470
 1296BOLB   GL431096  24.200  21.480   4.370
 1296BOLB   C1C31097  24.090  21.300   4.830
 1296BOLB   C2C31098  23.720  21.340   5.000
 1296BOLB   C3C31099  23.640  21.520   5.440
 1296BOLB   C4C31100  23.720  21.250   5.840
 1296BOLB   C1D31101  23.880  21.200   4.380
 1296BOLB   C2D31102  23.760  20.810   4.690
 1296BOLB   C3D31103  23.630  20.450   4.370
 1296BOLB   C4D31104  23.810  20.210   4.040
 1297BOLB   NC131105  13.380  17.330   0.060
 1297BOLB   PO131106  13.620  17.780   0.050
 1297BOLB   GL131107  13.810  17.880   0.420
 1297BOLB   GL231108  13.630  18.090   0.680
 1297BOLB   C1A31109  13.700  17.620   0.860
 1297BOLB   C2A31110  13.370  17.570   1.130
 1297BOLB   C3A31111  13.470  17.500   1.530
 1297BOLB   C4A31112  13.470  17.220   1.830
 1297BOLB   C1B31113  13.710  17.960   1.170
 1297BOLB   C2B31114  14.110  18.030   1.460
 1297BOLB   C3B31115  14.260  18.130   1.980
 1297BOLB   C4B31116  14.200  17.810   2.220
 1297BOLB   NC231117  11.880  16.640   0.950
 1297BOLB   PO231118  11.580  16.650   1.330
 1297BOLB   GL331119  11.960  16.400   1.440
 1297BOLB   GL431120  12.120  16.190   1.120
 1297BOLB   C1C31121  12.400  16.290   1.590
 1297BOLB   C2C31122  12.710  16.300   1.980
 1297BOLB   C3C31123  13.110  16.560   2.170
 1297BOLB   C4C31124  13.370  16.900   2.170
 1297BOLB   C1D31125  12.370  15.840   1.340
 1297BOLB   C2D31126  12.820  15.850   1.600
 1297BOLB   C3D31127  13.110  15.900   1.870
 1297BOLB   C4D31128  13.130  16.070   2.310
 1298BOLB   NC131129   8.320   5.880  13.010
 1298BOLB   PO131130   8.360   6.290  12.870
 1298BOLB   GL131131   8.430   6.620  13.070
 1298BOLB   GL231132   8.570   6.670  13.430
 1298BOLB   C1A31133   8.310   7.050  13.200
 1298BOLB   C2A31134   8.170   7.450  13.400
 1298BOLB   C3A31135   7.900   7.730  13.270
 1298BOLB   C4A31136   7.830   8.240  13.260
 1298BOLB   C1B31137   8.810   6.950  13.060
 1298BOLB   C2B31138   9.120   7.070  12.730
 1298BOLB   C3B31139   9.590   7.100  12.730
 1298BOLB   C4B31140   9.890   7.430  12.980
 1298BOLB   NC231141   6.540   6.410  13.800
 1298BOLB   PO231142   6.240   6.730  14.080
 1298BOLB   GL331143   6.480   6.940  13.900
 1298BOLB   GL431144   6.420   6.940  13.630
 1298BOLB   C1C31145   6.850   7.180  13.660
 1298BOLB   C2C31146   7.110   7.550  13.700
 1298BOLB   C3C31147   7.120   8.030  13.680
 1298BOLB   C4C31148   7.320   8.380  13.390
 1298BOLB   C1D31149   6.340   7.290  13.500
 1298BOLB   C2D31150   6.380   7.690  13.640
 1298BOLB   C3D31151   6.210   7.860  13.950
 1298BOLB   C4D31152   6.000   8.070  14.370
 1299BOLB   NC131153   3.710  21.680  12.110
 1299BOLB   PO131154   3.430  21.450  12.420
 1299BOLB   GL131155   3.330  21.150  12.710
 1299BOLB   GL231156   3.350  20.770  12.580
 1299BOLB   C1A31157   3.240  20.950  13.120
 1299BOLB   C2A31158   3.470  20.660  13.460
 1299BOLB   C3A31159   3.350  20.280  13.600
 1299BOLB   C4A31160   3.390  20.230  13.960
 1299BOLB   C1B31161   3.640  20.580  12.460
 1299BOLB   C2B31162   4.050  20.760  12.380
 1299BOLB   C3B31163   4.440  20.870  12.230
 1299BOLB   C4B31164   4.830  21.180  12.300
 1299BOLB   NC231165   2.890  21.870  13.290
 1299BOLB   PO231166   3.170  22.150  13.160
 1299BOLB   GL331167   3.470  21.790  13.300
 1299BOLB   GL431168   3.390  21.770  13.620
 1299BOLB   C1C31169   3.540  21.390  13.180
 1299BOLB   C2C31170   3.740  21.060  13.400
 1299BOLB   C3C31171   3.800  20.850  13.830
 1299BOLB   C4C31172   3.790  20.330  14.020
 1299BOLB   C1D31173   3.850  21.590  13.600
 1299BOLB   C2D31174   4.150  21.510  13.220
 1299BOLB   C3D31175   4.470  21.760  13.020
 1299BOLB   C4D31176   4.600  21.650  12.620
 1300BOLB   NC131177  14.530  23.900   8.910
 1300BOLB   PO131178  14.450  24.080   9.270
 1300BOLB   GL131179  14.270  24.440   9.180
 1300BOLB   GL231180  14.100  24.320   8.910
 1300BOLB   C1A31181  14.260  24.780   9.270
 1300BOLB   C2A31182  14.190  25.210   9.240
 1300BOLB   C3A31183  14.190  25.690   9.180
 1300BOLB   C4A31184  14.120  26.180   9.130
 1300BOLB   C1B31185  14.190  24.430   8.560
 1300BOLB   C2B31186  14.380  24.720   8.250
 1300BOLB   C3B31187  14.780  24.710   8.340
 1300BOLB   C4B31188  15.060  24.350   8.420
 1300BOLB   NC231189  13.470  28.510   9.280
 1300BOLB   PO231190  13.630  28.350   8.940
 1300BOLB   GL331191  13.730  27.960   9.200
 1300BOLB   GL431192  13.990  28.030   9.160
 1300BOLB   C1C31193  13.690  27.560   9.310
 1300BOLB   C2C31194  13.740  27.130   9.270
 1300BOLB   C3C31195  13.700  26.770   9.240
 1300BOLB   C4C31196  13.920  26.470   9.070
 1300BOLB   C1D31197  14.220  27.750   9.260
 1300BOLB   C2D31198  14.240  27.350   9.630
 1300BOLB   C3D31199  14.540  27.070   9.540
 1300BOLB   C4D31200  14.770  26.750   9.650
 1301BOLB   NC131201  20.410  16.950   5.140
 1301BOLB   PO131202  20.630  17.340   5.320
 1301BOLB   GL131203  20.720  17.240   4.890
 1301BOLB   GL231204  21.000  17.430   4.870
 1301BOLB   C1A31205  20.580  17.190   4.440
 1301BOLB   C2A31206  20.770  17.370   4.010
 1301BOLB   C3A31207  20.830  17.730   3.790
 1301BOLB   C4A31208  20.650  17.860   3.420
 1301BOLB   C1B31209  21.280  17.580   4.520
 1301BOLB   C2B31210  21.210  17.640   4.060
 1301BOLB   C3B31211  21.490  17.860   3.780
 1301BOLB   C4B31212  21.700  18.120   3.490
 1301BOLB   NC231213  22.410  18.790   1.610
 1301BOLB   PO231214  22.050  18.770   1.410
 1301BOLB   GL331215  21.890  18.460   1.770
 1301BOLB   GL431216  21.870  18.280   1.560
 1301BOLB   C1C31217  21.590  18.430   2.010
 1301BOLB   C2C31218  21.290  18.190   2.320
 1301BOLB   C3C31219  21.000  18.010   2.590
 1301BOLB   C4C31220  20.740  17.760   2.950
 1301BOLB   C1D31221  21.480  18.210   1.570
 1301BOLB   C2D31222  21.110  18.360   1.800
 1301BOLB   C3D31223  20.680  18.590   1.840
 1301BOLB   C4D31224  20.210  18.550   1.840
 1302BOLB   NC131225   8.880  20.480  11.640
 1302BOLB   PO131226   9.120  20.830  11.580
 1302BOLB   GL131227   8.770  21.090  11.630
 1302BOLB   GL231228   8.520  20.870  11.570
 1302BOLB   C1A31229   8.520  21.330  11.340
 1302BOLB   C2A31230   8.170  21.670  11.220
 1302BOLB   C3A31231   7.880  21.850  11.300
 1302BOLB   C4A31232   7.520  21.950  11.100
 1302BOLB   C1B31233   8.060  21.110  11.530
 1302BOLB   C2B31234   7.660  21.430  11.520
 1302BOLB   C3B31235   7.270  21.360  11.640
 1302BOLB   C4B31236   6.960  21.230  11.340
 1302BOLB   NC231237   5.960  23.030   9.760
 1302BOLB   PO231238   5.880  22.920  10.240
 1302BOLB   GL331239   6.160  22.620  10.440
 1302BOLB   GL431240   6.050  22.290  10.650
 1302BOLB   C1C31241   6.630  22.650  10.290
 1302BOLB   C2C31242   7.040  22.520  10.320
 1302BOLB   C3C31243   7.490  22.450  10.360
 1302BOLB   C4C31244   7.560  22.280  10.720
 1302BOLB   C1D31245   6.450  22.420  10.770
 1302BOLB   C2D31246   6.970  22.530  10.800
 1302BOLB   C3D31247   7.380  22.820  10.790
 1302BOLB   C4D31248   7.790  22.910  10.910
 1303BOLB   NC131249   9.480  13.260  11.460
 1303BOLB   PO131250   9.500  12.770  11.340
 1303BOLB   GL131251   9.140  12.550  11.400
 1303BOLB   GL231252   9.260  12.490  11.640
 1303BOLB   C1A31253   8.690  12.360  11.280
 1303BOLB   C2A31254   8.180  12.340  11.200
 1303BOLB   C3A31255   7.780  12.110  11.080
 1303BOLB   C4A31256   7.460  11.910  10.870
 1303BOLB   C1B31257   8.800  12.360  11.770
 1303BOLB   C2B31258   8.370  12.180  11.660
 1303BOLB   C3B31259   7.980  12.110  11.640
 1303BOLB   C4B31260   7.640  11.850  11.500
 1303BOLB   NC231261   5.910  10.410   9.860
 1303BOLB   PO231262   5.700  10.880   9.740
 1303BOLB   GL331263   6.080  10.930  10.010
 1303BOLB   GL431264   6.210  10.820   9.800
 1303BOLB   C1C31265   6.330  11.110  10.160
 1303BOLB   C2C31266   6.550  11.340  10.440
 1303BOLB   C3C31267   6.620  11.640  10.710
 1303BOLB   C4C31268   7.030  11.860  10.810
 1303BOLB   C1D31269   6.590  10.660   9.990
 1303BOLB   C2D31270   6.840  10.940  10.330
 1303BOLB   C3D31271   7.060  11.320  10.390
 1303BOLB   C4D31272   7.360  11.520  10.610
 1304BOLB   NC131273  12.250   7.140   6.090
 1304BOLB   PO131274  12.410   7.250   5.690
 1304BOLB   GL131275  12.650   7.490   5.640
 1304BOLB   GL231276  12.910   7.350   5.640
 1304BOLB   C1A31277  12.910   7.730   5.890
 1304BOLB   C2A31278  13.310   7.910   6.050
 1304BOLB   C3A31279  13.450   8.200   6.410
 1304BOLB   C4A31280  13.200   8.460   6.590
 1304BOLB   C1B31281  13.200   7.640   5.500
 1304BOLB   C2B31282  13.430   8.040   5.580
 1304BOLB   C3B31283  13.540   8.410   5.450
 1304BOLB   C4B31284  13.660   8.810   5.580
 1304BOLB   NC231285  13.530  10.380   7.690
 1304BOLB   PO231286  13.820  10.120   7.770
 1304BOLB   GL331287  13.860   9.870   7.410
 1304BOLB   GL431288  14.160   9.950   7.210
 1304BOLB   C1C31289  13.980   9.430   7.450
 1304BOLB   C2C31290  13.650   9.160   7.420
 1304BOLB   C3C31291  13.320   8.890   7.330
 1304BOLB   C4C31292  13.150   8.750   6.870
 1304BOLB   C1D31293  14.160   9.650   6.930
 1304BOLB   C2D31294  14.140   9.250   6.650
 1304BOLB   C3D31295  14.010   8.820   6.470
 1304BOLB   C4D31296  14.110   8.370   6.310
 1305BOLB   NC131297  22.490  16.410   6.960
 1305BOLB   PO131298  22.470  16.060   7.150
 1305BOLB   GL131299  22.750  15.810   7.010
 1305BOLB   GL231300  22.730  15.770   6.760
 1305BOLB   C1A31301  23.090  15.500   6.960
 1305BOLB   C2A31302  23.310  15.320   6.580
 1305BOLB   C3A31303  23.390  15.390   6.200
 1305BOLB   C4A31304  23.680  15.190   6.050
 1305BOLB   C1B31305  23.200  15.830   6.610
 1305BOLB   C2B31306  23.430  16.100   6.460
 1305BOLB   C3B31307  23.740  16.200   6.070
 1305BOLB   C4B31308  24.130  16.360   6.080
 1305BOLB   NC231309  26.120  14.110   4.750
 1305BOLB   PO231310  25.890  14.470   4.940
 1305BOLB   GL331311  25.530  14.420   5.160
 1305BOLB   GL431312  25.400  14.140   5.370
 1305BOLB   C1C31313  25.080  14.510   5.410
 1305BOLB   C2C31314  24.650  14.470   5.460
 1305BOLB   C3C31315  24.170  14.640   5.760
 1305BOLB   C4C31316  23.910  14.920   5.720
 1305BOLB   C1D31317  25.300  14.320   5.840
 1305BOLB   C2D31318  25.300  14.470   6.200
 1305BOLB   C3D31319  25.040  14.280   6.540
 1305BOLB   C4D31320  24.610  14.250   6.580
 1306BOLB   NC131321  17.860  24.910  15.320
 1306BOLB   PO131322  17.420  25.100  15.280
 1306BOLB   GL131323  17.450  25.410  15.580
 1306BOLB   GL231324  17.250  25.490  15.550
 1306BOLB   C1A31325  17.500  25.810  15.830
 1306BOLB   C2A31326  17.800  26.050  16.010
 1306BOLB   C3A31327  18.030  26.340  16.200
 1306BOLB   C4A31328  18.110  26.710  16.320
 1306BOLB   C1B31329  17.140  25.880  15.480
 1306BOLB   C2B31330  16.880  26.170  15.600
 1306BOLB   C3B31331  16.750  26.450  15.950
 1306BOLB   C4B31332  17.120  26.630  16.240
 1306BOLB   NC231333  18.240  28.740  17.230
 1306BOLB   PO231334  17.880  28.600  17.450
 1306BOLB   GL331335  17.950  28.270  17.270
 1306BOLB   GL431336  17.670  28.150  17.060
 1306BOLB   C1C31337  18.190  27.940  17.050
 1306BOLB   C2C31338  18.330  27.670  16.970
 1306BOLB   C3C31339  18.230  27.320  16.730
 1306BOLB   C4C31340  18.230  27.040  16.450
 1306BOLB   C1D31341  17.750  27.700  16.960
 1306BOLB   C2D31342  17.670  27.420  16.660
 1306BOLB   C3D31343  17.310  27.110  16.480
 1306BOLB   C4D31344  17.190  26.710  16.830
 1307BOLB   NC131345  10.580  19.900   7.820
 1307BOLB   PO131346  10.880  19.780   7.500
 1307BOLB   GL131347  10.560  19.890   7.170
 1307BOLB   GL231348  10.550  20.250   7.410
 1307BOLB   C1A31349  10.480  19.750   6.690
 1307BOLB   C2A31350  10.400  19.970   6.290
 1307BOLB   C3A31351  10.270  20.160   6.020
 1307BOLB   C4A31352  10.350  20.370   5.670
 1307BOLB   C1B31353  10.520  20.370   6.960
 1307BOLB   C2B31354  10.370  20.360   6.570
 1307BOLB   C3B31355  10.120  20.580   6.280
 1307BOLB   C4B31356   9.710  20.740   6.270
 1307BOLB   NC231357   9.110  20.370   3.420
 1307BOLB   PO231358   8.960  20.200   3.800
 1307BOLB   GL331359   9.040  20.040   4.200
 1307BOLB   GL431360   9.360  20.010   4.050
 1307BOLB   C1C31361   9.210  20.030   4.570
 1307BOLB   C2C31362   9.300  19.960   4.950
 1307BOLB   C3C31363   9.660  20.150   5.160
 1307BOLB   C4C31364  10.040  20.330   5.300
 1307BOLB   C1D31365   9.590  19.750   4.190
 1307BOLB   C2D31366   9.960  19.530   4.440
 1307BOLB   C3D31367  10.270  19.470   4.970
 1307BOLB   C4D31368  10.480  19.770   5.040
 1308BOLB   NC131369   8.830  19.380   9.810
 1308BOLB   PO131370   8.690  19.750  10.060
 1308BOLB   GL131371   8.510  20.160   9.910
 1308BOLB   GL231372   8.730  20.410   9.810
 1308BOLB   C1A31373   8.170  20.370   9.810
 1308BOLB   C2A31374   7.920  20.500  10.040
 1308BOLB   C3A31375   7.490  20.710  10.210
 1308BOLB   C4A31376   7.240  20.780  10.540
 1308BOLB   C1B31377   8.430  20.640   9.460
 1308BOLB   C2B31378   7.940  20.700   9.420
 1308BOLB   C3B31379   7.570  20.720   9.660
 1308BOLB   C4B31380   7.190  20.870   9.660
 1308BOLB   NC231381   5.000  21.350   9.920
 1308BOLB   PO231382   5.000  20.840  10.030
 1308BOLB   GL331383   5.350  20.930  10.060
 1308BOLB   GL431384   5.510  21.250  10.000
 1308BOLB   C1C31385   5.620  20.990  10.460
 1308BOLB   C2C31386   5.880  20.910  10.680
 1308BOLB   C3C31387   6.360  20.840  10.660
 1308BOLB   C4C31388   6.750  20.700  10.550
 1308BOLB   C1D31389   5.920  20.990   9.940
 1308BOLB   C2D31390   6.200  20.920   9.640
 1308BOLB   C3D31391   6.300  21.280   9.410
 1308BOLB   C4D31392   6.350  21.690   9.240
 1309BOLB   NC131393  10.440  21.720  11.380
 1309BOLB   PO131394  10.070  21.570  11.180
 1309BOLB   GL131395   9.910  21.880  11.180
 1309BOLB   GL231396   9.730  22.110  10.900
 1309BOLB   C1A31397   9.770  22.360  11.360
 1309BOLB   C2A31398   9.330  22.640  11.410
 1309BOLB   C3A31399   8.920  22.860  11.410
 1309BOLB   C4A31400   8.470  23.000  11.350
 1309BOLB   C1B31401   9.320  22.180  11.100
 1309BOLB   C2B31402   8.930  22.210  11.100
 1309BOLB   C3B31403   8.600  22.490  11.110
 1309BOLB   C4B31404   8.240  22.700  10.920
 1309BOLB   NC231405   6.740  25.210  10.770
 1309BOLB   PO231406   7.140  24.850  10.900
 1309BOLB   GL331407   7.310  24.470  10.970
 1309BOLB   GL431408   7.630  24.480  10.870
 1309BOLB   C1C31409   7.440  24.100  11.140
 1309BOLB   C2C31410   7.760  23.800  11.120
 1309BOLB   C3C31411   7.940  23.450  11.340
 1309BOLB   C4C31412   8.080  23.060  11.390
 1309BOLB   C1D31413   8.010  24.610  10.830
 1309BOLB   C2D31414   8.450  24.530  10.920
 1309BOLB   C3D31415   8.580  24.200  11.180
 1309BOLB   C4D31416   8.820  23.820  11.330
 1310BOLB   NC131417  19.410  22.910  17.670
 1310BOLB   PO131418  19.400  22.470  17.640
 1310BOLB   GL131419  19.340  22.620  18.130
 1310BOLB   GL231420  19.400  22.930  18.200
 1310BOLB   C1A31421  19.500  22.580  18.650
 1310BOLB   C2A31422  19.720  22.930  18.920
 1310BOLB   C3A31423  19.630  23.370  19.020
 1310BOLB   C4A31424  19.870  23.630  19.260
 1310BOLB   C1B31425  19.790  23.000  18.360
 1310BOLB   C2B31426  20.000  23.290  18.650
 1310BOLB   C3B31427  20.220  23.350  19.000
 1310BOLB   C4B31428  20.270  23.460  19.480
 1310BOLB   NC231429  22.590  24.860  20.460
 1310BOLB   PO231430  22.260  24.980  20.170
 1310BOLB   GL331431  21.920  24.710  20.070
 1310BOLB   GL431432  21.820  24.870  19.790
 1310BOLB   C1C31433  21.500  24.440  19.890
 1310BOLB   C2C31434  21.030  24.290  19.790
 1310BOLB   C3C31435  20.570  24.120  19.780
 1310BOLB   C4C31436  20.170  23.990  19.480
 1310BOLB   C1D31437  21.670  25.020  19.390
 1310BOLB   C2D31438  21.430  25.040  19.040
 1310BOLB   C3D31439  20.990  25.050  18.690
 1310BOLB   C4D31440  20.840  25.300  18.380
 1311BOLB   NC131441  22.270  22.760  11.370
 1311BOLB   PO131442  22.660  22.800  11.830
 1311BOLB   GL131443  22.860  23.110  12.050
 1311BOLB   GL231444  22.870  22.980  12.350
 1311BOLB   C1A31445  23.070  23.500  12.100
 1311BOLB   C2A31446  23.270  23.750  11.770
 1311BOLB   C3A31447  23.400  24.010  11.520
 1311BOLB   C4A31448  23.190  24.300  11.500
 1311BOLB   C1B31449  23.090  23.290  12.550
 1311BOLB   C2B31450  23.430  23.520  12.540
 1311BOLB   C3B31451  23.840  23.480  12.590
 1311BOLB   C4B31452  24.220  23.350  12.430
 1311BOLB   NC231453  23.570  26.840  10.870
 1311BOLB   PO231454  23.580  26.800  11.260
 1311BOLB   GL331455  23.550  26.400  11.170
 1311BOLB   GL431456  23.640  26.180  10.860
 1311BOLB   C1C31457  23.420  25.960  11.340
 1311BOLB   C2C31458  23.220  25.640  11.150
 1311BOLB   C3C31459  23.240  25.170  11.290
 1311BOLB   C4C31460  23.360  24.700  11.320
 1311BOLB   C1D31461  24.030  25.890  10.930
 1311BOLB   C2D31462  24.030  25.490  10.850
 1311BOLB   C3D31463  24.000  25.190  10.770
 1311BOLB   C4D31464  23.730  25.010  10.550
 1312BOLB   NC131465  19.300  24.220  13.110
 1312BOLB   PO131466  19.710  24.400  13.280
 1312BOLB   GL131467  19.560  24.830  13.320
 1312BOLB   GL231468  19.560  25.120  13.590
 1312BOLB   C1A31469  19.790  25.320  13.230
 1312BOLB   C2A31470  19.910  25.640  13.350
 1312BOLB   C3A31471  20.170  25.940  13.450
 1312BOLB   C4A31472  20.170  26.320  13.410
 1312BOLB   C1B31473  19.360  25.450  13.470
 1312BOLB   C2B31474  19.420  25.900  13.560
 1312BOLB   C3B31475  19.670  26.230  13.530
 1312BOLB   C4B31476  19.750  26.580  13.380
 1312BOLB   NC231477  20.720  28.840  12.230
 1312BOLB   PO231478  20.730  28.420  12.370
 1312BOLB   GL331479  20.770  28.010  12.350
 1312BOLB   GL431480  20.600  27.860  11.960
 1312BOLB   C1C31481  20.560  27.600  12.540
 1312BOLB   C2C31482  20.380  27.200  12.540
 1312BOLB   C3C31483  20.310  26.890  12.820
 1312BOLB   C4C31484  20.210  26.630  13.140
 1312BOLB   C1D31485  20.320  27.960  12.410
 1312BOLB   C2D31486  20.060  28.060  12.700
 1312BOLB   C3D31487  19.660  28.310  12.710
 1312BOLB   C4D31488  19.230  28.280  12.710
 1313BOLB   NC131489  17.110  13.220   4.920
 1313BOLB   PO131490  17.020  13.590   4.880
 1313BOLB   GL131491  17.120  13.530   4.350
 1313BOLB   GL231492  17.490  13.480   4.190
 1313BOLB   C1A31493  17.110  13.280   3.940
 1313BOLB   C2A31494  16.880  13.280   3.580
 1313BOLB   C3A31495  16.700  13.350   3.220
 1313BOLB   C4A31496  16.340  13.080   3.000
 1313BOLB   C1B31497  17.630  13.130   3.910
 1313BOLB   C2B31498  17.390  12.870   3.540
 1313BOLB   C3B31499  17.070  12.960   3.220
 1313BOLB   C4B31500  16.870  13.060   2.790
 1313BOLB   NC231501  15.800  12.650   0.440
 1313BOLB   PO231502  16.260  12.730   0.410
 1313BOLB   GL331503  16.270  13.010   0.840
 1313BOLB   GL431504  15.940  12.840   0.960
 1313BOLB   C1C31505  16.220  13.320   1.270
 1313BOLB   C2C31506  16.130  13.310   1.720
 1313BOLB   C3C31507  16.160  13.200   2.190
 1313BOLB   C4C31508  16.160  13.200   2.630
 1313BOLB   C1D31509  15.710  12.570   1.250
 1313BOLB   C2D31510  15.430  12.470   1.570
 1313BOLB   C3D31511  15.320  12.580   1.900
 1313BOLB   C4D31512  15.360  12.470   2.250
 1314BOLB   NC131513  22.000  21.360  16.020
 1314BOLB   PO131514  22.210  21.330  15.530
 1314BOLB   GL131515  22.520  21.510  15.910
 1314BOLB   GL231516  22.780  21.350  16.110
 1314BOLB   C1A31517  22.970  21.660  15.830
 1314BOLB   C2A31518  23.270  21.870  15.680
 1314BOLB   C3A31519  23.680  21.900  15.550
 1314BOLB   C4A31520  24.090  21.910  15.610
 1314BOLB   C1B31521  23.000  21.270  16.440
 1314BOLB   C2B31522  23.170  21.490  16.730
 1314BOLB   C3B31523  23.280  21.700  17.140
 1314BOLB   C4B31524  23.280  21.810  17.560
 1314BOLB   NC231525  26.650  22.980  15.860
 1314BOLB   PO231526  26.290  22.660  15.730
 1314BOLB   GL331527  25.790  22.610  15.750
 1314BOLB   GL431528  25.750  22.850  15.700
 1314BOLB   C1C31529  25.460  22.610  15.370
 1314BOLB   C2C31530  25.070  22.430  15.310
 1314BOLB   C3C31531  24.720  22.290  15.440
 1314BOLB   C4C31532  24.460  21.980  15.620
 1314BOLB   C1D31533  25.330  22.980  15.660
 1314BOLB   C2D31534  24.900  22.760  15.680
 1314BOLB   C3D31535  24.500  22.530  15.820
 1314BOLB   C4D31536  24.200  22.230  16.020
 1315BOLB   NC131537  21.430  23.710  10.270
 1315BOLB   PO131538  20.890  23.680  10.160
 1315BOLB   GL131539  21.070  24.060  10.190
 1315BOLB   GL231540  20.820  24.150  10.430
 1315BOLB   C1A31541  21.130  24.460   9.970
 1315BOLB   C2A31542  20.810  24.770   9.960
 1315BOLB   C3A31543  20.700  25.060   9.720
 1315BOLB   C4A31544  20.730  25.440   9.450
 1315BOLB   C1B31545  20.980  24.530  10.450
 1315BOLB   C2B31546  21.270  24.820  10.260
 1315BOLB   C3B31547  21.180  25.170   9.920
 1315BOLB   C4B31548  21.190  25.570   9.710
 1315BOLB   NC231549  21.970  27.660   9.240
 1315BOLB   PO231550  21.820  27.490   8.930
 1315BOLB   GL331551  21.580  27.240   9.170
 1315BOLB   GL431552  21.470  27.380   9.470
 1315BOLB   C1C31553  21.290  26.910   9.220
 1315BOLB   C2C31554  21.050  26.680   9.220
 1315BOLB   C3C31555  20.900  26.190   9.170
 1315BOLB   C4C31556  20.860  25.770   9.310
 1315BOLB   C1D31557  21.720  27.020   9.570
 1315BOLB   C2D31558  22.110  26.800   9.410
 1315BOLB   C3D31559  22.420  26.680   9.130
 1315BOLB   C4D31560  22.590  26.550   8.690
 1316BOLB   NC131561  23.340  17.970  15.280
 1316BOLB   PO131562  23.560  18.380  15.120
 1316BOLB   GL131563  23.750  18.270  15.450
 1316BOLB   GL231564  23.740  18.540  15.570
 1316BOLB   C1A31565  24.130  18.110  15.590
 1316BOLB   C2A31566  24.500  18.040  15.380
 1316BOLB   C3A31567  24.900  18.150  15.350
 1316BOLB   C4A31568  25.280  18.220  15.300
 1316BOLB   C1B31569  24.090  18.760  15.450
 1316BOLB   C2B31570  24.410  18.990  15.120
 1316BOLB   C3B31571  24.810  19.050  14.990
 1316BOLB   C4B31572  25.120  19.250  15.020
 1316BOLB   NC231573  27.440  18.400  15.680
 1316BOLB   PO231574  27.220  18.770  15.700
 1316BOLB   GL331575  27.010  18.540  15.500
 1316BOLB   GL431576  26.970  18.210  15.560
 1316BOLB   C1C31577  26.700  18.700  15.260
 1316BOLB   C2C31578  26.400  18.590  15.110
 1316BOLB   C3C31579  26.020  18.510  14.840
 1316BOLB   C4C31580  25.580  18.440  15.040
 1316BOLB   C1D31581  26.510  18.160  15.420
 1316BOLB   C2D31582  26.210  17.970  15.120
 1316BOLB   C3D31583  25.780  17.960  15.190
 1316BOLB   C4D31584  25.380  17.730  15.150
 1317BOLB   NC131585  21.060  11.460   9.730
 1317BOLB   PO131586  21.030  11.450   9.290
 1317BOLB   GL131587  21.320  11.140   9.150
 1317BOLB   GL231588  21.300  10.760   9.240
 1317BOLB   C1A31589  21.740  10.930   9.080
 1317BOLB   C2A31590  22.090  10.720   9.020
 1317BOLB   C3A31591  22.330  10.430   8.850
 1317BOLB   C4A31592  22.620  10.350   8.650
 1317BOLB   C1B31593  21.260  10.420   9.220
 1317BOLB   C2B31594  21.330   9.970   9.150
 1317BOLB   C3B31595  21.580   9.660   8.990
 1317BOLB   C4B31596  21.670   9.810   8.580
 1317BOLB   NC231597  23.710   8.050   7.690
 1317BOLB   PO231598  23.710   8.460   7.840
 1317BOLB   GL331599  23.560   8.840   7.950
 1317BOLB   GL431600  23.250   8.810   7.690
 1317BOLB   C1C31601  23.580   9.270   7.960
 1317BOLB   C2C31602  23.260   9.450   8.150
 1317BOLB   C3C31603  22.920   9.840   8.130
 1317BOLB   C4C31604  22.830  10.240   8.310
 1317BOLB   C1D31605  23.030   9.000   8.050
 1317BOLB   C2D31606  22.650   9.240   8.180
 1317BOLB   C3D31607  22.290   9.260   8.480
 1317BOLB   C4D31608  22.080   9.490   8.790
 1318BOLB   NC131609  17.650  24.820  16.780
 1318BOLB   PO131610  17.380  25.150  16.570
 1318BOLB   GL131611  17.500  25.400  16.920
 1318BOLB   GL231612  17.790  25.340  16.870
 1318BOLB   C1A31613  17.380  25.830  16.840
 1318BOLB   C2A31614  17.400  26.120  17.100
 1318BOLB   C3A31615  17.430  26.160  17.550
 1318BOLB   C4A31616  17.640  26.440  17.910
 1318BOLB   C1B31617  17.790  25.600  17.310
 1318BOLB   C2B31618  17.930  25.900  17.630
 1318BOLB   C3B31619  17.890  25.870  18.040
 1318BOLB   C4B31620  17.530  25.910  18.370
 1318BOLB   NC231621  19.010  27.970  18.810
 1318BOLB   PO231622  19.360  27.840  19.030
 1318BOLB   GL331623  19.090  27.440  19.000
 1318BOLB   GL431624  19.150  27.270  18.830
 1318BOLB   C1C31625  18.620  27.340  18.890
 1318BOLB   C2C31626  18.340  27.150  18.730
 1318BOLB   C3C31627  17.960  27.110  18.510
 1318BOLB   C4C31628  17.770  26.720  18.170
 1318BOLB   C1D31629  18.840  26.880  18.810
 1318BOLB   C2D31630  18.710  26.630  18.870
 1318BOLB   C3D31631  18.570  26.380  19.140
 1318BOLB   C4D31632  18.380  26.000  19.150
 1319BOLB   NC131633  27.500  21.190  11.740
 1319BOLB   PO131634  27.420  21.450  12.080
 1319BOLB   GL131635  27.130  21.180  12.140
 1319BOLB   GL231636  27.240  21.120  12.480
 1319BOLB   C1A31637  26.720  20.940  12.270
 1319BOLB   C2A31638  26.440  20.620  12.500
 1319BOLB   C3A31639  26.390  20.150  12.460
 1319BOLB   C4A31640  26.150  19.750  12.590
 1319BOLB   C1B31641  26.870  21.390  12.630
 1319BOLB   C2B31642  26.520  21.350  12.580
 1319BOLB   C3B31643  26.270  21.100  12.730
 1319BOLB   C4B31644  25.790  21.110  12.740
 1319BOLB   NC231645  27.980  19.760  13.490
 1319BOLB   PO231646  27.600  19.440  13.380
 1319BOLB   GL331647  27.230  19.080  13.640
 1319BOLB   GL431648  27.330  18.930  13.970
 1319BOLB   C1C31649  26.870  18.870  13.420
 1319BOLB   C2C31650  26.560  18.870  13.220
 1319BOLB   C3C31651  26.380  18.950  12.860
 1319BOLB   C4C31652  26.330  19.320  12.630
 1319BOLB   C1D31653  26.950  18.740  13.920
 1319BOLB   C2D31654  26.540  18.700  13.760
 1319BOLB   C3D31655  26.200  18.730  13.910
 1319BOLB   C4D31656  25.940  18.890  14.210
 1320BOLB   NC131657  13.340   9.870   8.610
 1320BOLB   PO131658  12.970   9.770   8.850
 1320BOLB   GL131659  13.020   9.540   8.430
 1320BOLB   GL231660  13.410   9.580   8.210
 1320BOLB   C1A31661  12.850   9.300   8.140
 1320BOLB   C2A31662  12.590   9.170   7.750
 1320BOLB   C3A31663  12.650   8.950   7.500
 1320BOLB   C4A31664  12.830   8.610   7.450
 1320BOLB   C1B31665  13.430   9.260   7.970
 1320BOLB   C2B31666  13.580   8.780   7.780
 1320BOLB   C3B31667  13.310   8.450   7.600
 1320BOLB   C4B31668  13.350   7.940   7.430
 1320BOLB   NC231669  12.000   6.450   6.750
 1320BOLB   PO231670  12.110   6.280   7.110
 1320BOLB   GL331671  12.160   6.700   7.150
 1320BOLB   GL431672  12.310   6.760   7.540
 1320BOLB   C1C31673  12.080   7.140   7.370
 1320BOLB   C2C31674  12.020   7.610   7.370
 1320BOLB   C3C31675  12.330   7.960   7.490
 1320BOLB   C4C31676  12.780   8.090   7.510
 1320BOLB   C1D31677  12.520   7.120   7.530
 1320BOLB   C2D31678  12.860   7.020   7.250
 1320BOLB   C3D31679  12.970   7.250   7.040
 1320BOLB   C4D31680  12.980   7.730   7.060
 1321BOLB   NC131681  18.120  20.910   6.370
 1321BOLB   PO131682  18.400  20.970   6.060
 1321BOLB   GL131683  18.640  21.050   5.740
 1321BOLB   GL231684  18.980  21.220   5.840
 1321BOLB   C1A31685  18.620  21.390   5.470
 1321BOLB   C2A31686  18.530  21.670   5.160
 1321BOLB   C3A31687  18.610  21.960   4.900
 1321BOLB   C4A31688  18.610  22.310   4.630
 1321BOLB   C1B31689  19.390  21.340   5.620
 1321BOLB   C2B31690  19.600  21.380   5.260
 1321BOLB   C3B31691  19.430  21.480   4.920
 1321BOLB   C4B31692  19.170  21.230   4.630
 1321BOLB   NC231693  18.200  23.760   3.020
 1321BOLB   PO231694  17.950  24.060   3.270
 1321BOLB   GL331695  18.190  23.840   3.620
 1321BOLB   GL431696  18.320  23.570   3.470
 1321BOLB   C1C31697  18.080  23.570   3.920
 1321BOLB   C2C31698  18.150  23.240   4.060
 1321BOLB   C3C31699  18.130  22.790   4.310
 1321BOLB   C4C31700  18.440  22.560   4.420
 1321BOLB   C1D31701  18.070  23.150   3.560
 1321BOLB   C2D31702  18.180  22.790   3.640
 1321BOLB   C3D31703  18.250  22.430   3.900
 1321BOLB   C4D31704  18.430  22.030   3.980
 1322BOLB   NC131705  23.490  17.170   8.630
 1322BOLB   PO131706  23.110  17.500   8.480
 1322BOLB   GL131707  23.440  17.390   8.210
 1322BOLB   GL231708  23.400  17.550   8.030
 1322BOLB   C1A31709  23.870  17.080   8.110
 1322BOLB   C2A31710  24.060  17.070   7.770
 1322BOLB   C3A31711  24.460  17.080   7.620
 1322BOLB   C4A31712  24.770  17.310   7.550
 1322BOLB   C1B31713  23.790  17.480   7.820
 1322BOLB   C2B31714  24.150  17.540   7.540
 1322BOLB   C3B31715  24.420  17.370   7.240
 1322BOLB   C4B31716  24.690  17.220   7.010
 1322BOLB   NC231717  26.560  16.860   6.150
 1322BOLB   PO231718  26.680  17.340   5.950
 1322BOLB   GL331719  26.440  17.320   6.320
 1322BOLB   GL431720  26.600  17.190   6.660
 1322BOLB   C1C31721  26.000  17.200   6.430
 1322BOLB   C2C31722  25.680  17.290   6.660
 1322BOLB   C3C31723  25.340  17.310   6.920
 1322BOLB   C4C31724  25.150  17.470   7.350
 1322BOLB   C1D31725  26.160  17.150   6.890
 1322BOLB   C2D31726  25.850  16.980   7.030
 1322BOLB   C3D31727  25.400  16.900   7.270
 1322BOLB   C4D31728  24.920  16.840   7.250
 1323BOLB   NC131729  13.530  16.120   4.080
 1323BOLB   PO131730  13.690  15.740   4.050
 1323BOLB   GL131731  13.910  15.660   3.670
 1323BOLB   GL231732  13.540  15.760   3.540
 1323BOLB   C1A31733  14.010  15.680   3.310
 1323BOLB   C2A31734  13.970  15.560   2.860
 1323BOLB   C3A31735  13.770  15.340   2.410
 1323BOLB   C4A31736  13.720  15.120   2.020
 1323BOLB   C1B31737  13.350  15.280   3.430
 1323BOLB   C2B31738  13.420  14.880   3.180
 1323BOLB   C3B31739  13.000  14.580   3.140
 1323BOLB   C4B31740  12.580  14.530   3.120
 1323BOLB   NC231741  11.860  14.250   0.150
 1323BOLB   PO231742  12.200  14.260   0.430
 1323BOLB   GL331743  12.100  14.440   0.870
 1323BOLB   GL431744  11.890  14.360   1.110
 1323BOLB   C1C31745  12.440  14.570   1.130
 1323BOLB   C2C31746  12.580  14.870   1.450
 1323BOLB   C3C31747  13.100  14.920   1.500
 1323BOLB   C4C31748  13.470  15.080   1.660
 1323BOLB   C1D31749  12.010  14.460   1.460
 1323BOLB   C2D31750  12.290  14.450   1.710
 1323BOLB   C3D31751  12.410  14.390   2.170
 1323BOLB   C4D31752  12.590  14.590   2.590
 1324BOLB   NC131753  13.620  12.900   5.580
 1324BOLB   PO131754  13.350  13.020   5.280
 1324BOLB   GL131755  12.980  13.030   4.970
 1324BOLB   GL231756  12.760  12.830   5.170
 1324BOLB   C1A31757  12.640  12.870   4.660
 1324BOLB   C2A31758  12.260  12.750   4.310
 1324BOLB   C3A31759  11.960  12.760   4.020
 1324BOLB   C4A31760  11.970  12.580   3.540
 1324BOLB   C1B31761  12.250  12.740   4.980
 1324BOLB   C2B31762  12.100  12.430   4.720
 1324BOLB   C3B31763  11.780  12.170   4.610
 1324BOLB   C4B31764  11.840  11.850   4.800
 1324BOLB   NC231765  12.610  11.570   1.070
 1324BOLB   PO231766  12.270  11.670   1.160
 1324BOLB   GL331767  12.190  11.880   1.540
 1324BOLB   GL431768  12.260  11.670   1.730
 1324BOLB   C1C31769  12.400  12.240   1.840
 1324BOLB   C2C31770  12.420  12.350   2.250
 1324BOLB   C3C31771  12.230  12.470   2.690
 1324BOLB   C4C31772  12.050  12.500   3.070
 1324BOLB   C1D31773  12.070  11.940   2.030
 1324BOLB   C2D31774  11.980  12.150   2.470
 1324BOLB   C3D31775  11.800  12.100   2.850
 1324BOLB   C4D31776  11.620  11.960   3.290
 1325BOLB   NC131777  22.180  15.130   7.570
 1325BOLB   PO131778  22.110  14.750   7.380
 1325BOLB   GL131779  22.400  14.630   7.000
 1325BOLB   GL231780  22.650  14.400   7.060
 1325BOLB   C1A31781  22.540  14.620   6.620
 1325BOLB   C2A31782  22.600  14.680   6.180
 1325BOLB   C3A31783  22.860  14.930   5.990
 1325BOLB   C4A31784  23.290  15.030   5.690
 1325BOLB   C1B31785  23.000  14.260   7.010
 1325BOLB   C2B31786  23.320  14.060   6.860
 1325BOLB   C3B31787  23.780  13.890   6.850
 1325BOLB   C4B31788  24.120  13.620   6.800
 1325BOLB   NC231789  25.480  14.760   3.990
 1325BOLB   PO231790  25.170  14.940   4.160
 1325BOLB   GL331791  24.780  15.140   4.250
 1325BOLB   GL431792  24.590  15.350   4.060
 1325BOLB   C1C31793  24.700  15.230   4.700
 1325BOLB   C2C31794  24.360  15.300   5.010
 1325BOLB   C3C31795  23.970  15.220   5.150
 1325BOLB   C4C31796  23.610  15.270   5.510
 1325BOLB   C1D31797  24.240  15.460   4.360
 1325BOLB   C2D31798  23.850  15.320   4.640
 1325BOLB   C3D31799  23.540  15.440   4.960
 1325BOLB   C4D31800  23.370  15.050   5.180
 1326BOLB   NC131801   9.460  13.550  10.860
 1326BOLB   PO131802   9.040  13.770  10.610
 1326BOLB   GL131803   8.650  13.420  10.600
 1326BOLB   GL231804   8.580  13.300  10.900
 1326BOLB   C1A31805   8.180  13.280  10.570
 1326BOLB   C2A31806   7.810  13.180  10.490
 1326BOLB   C3A31807   7.380  13.360  10.200
 1326BOLB   C4A31808   6.990  13.160  10.130
 1326BOLB   C1B31809   8.310  13.050  11.180
 1326BOLB   C2B31810   7.940  12.760  11.350
 1326BOLB   C3B31811   7.580  12.410  11.510
 1326BOLB   C4B31812   7.330  12.100  11.860
 1326BOLB   NC231813   5.190  12.000   9.380
 1326BOLB   PO231814   5.010  12.250   9.640
 1326BOLB   GL331815   5.360  12.260   9.820
 1326BOLB   GL431816   5.660  12.060   9.680
 1326BOLB   C1C31817   5.730  12.500  10.060
 1326BOLB   C2C31818   5.950  12.730  10.300
 1326BOLB   C3C31819   6.220  13.060  10.170
 1326BOLB   C4C31820   6.600  13.010  10.020
 1326BOLB   C1D31821   6.050  11.820   9.870
 1326BOLB   C2D31822   6.410  11.730   9.910
 1326BOLB   C3D31823   6.740  11.670  10.120
 1326BOLB   C4D31824   7.080  11.860  10.320
 1327BOLB   NC131825  17.480  24.780  11.520
 1327BOLB   PO131826  17.820  25.190  11.290
 1327BOLB   GL131827  17.890  25.530  11.040
 1327BOLB   GL231828  18.040  25.390  10.840
 1327BOLB   C1A31829  17.850  25.970  10.870
 1327BOLB   C2A31830  17.870  26.310  10.850
 1327BOLB   C3A31831  18.000  26.690  10.930
 1327BOLB   C4A31832  18.240  27.110  10.860
 1327BOLB   C1B31833  18.330  25.770  10.670
 1327BOLB   C2B31834  18.290  26.160  10.590
 1327BOLB   C3B31835  18.450  26.640  10.410
 1327BOLB   C4B31836  18.550  26.880  10.020
 1327BOLB   NC231837  17.630  28.850   8.820
 1327BOLB   PO231838  17.710  28.660   9.250
 1327BOLB   GL331839  17.760  28.200   9.380
 1327BOLB   GL431840  17.620  27.920   9.210
 1327BOLB   C1C31841  18.000  28.110   9.660
 1327BOLB   C2C31842  18.300  27.960   9.970
 1327BOLB   C3C31843  18.330  27.950  10.490
 1327BOLB   C4C31844  18.200  27.500  10.660
 1327BOLB   C1D31845  17.730  27.610   9.370
 1327BOLB   C2D31846  17.720  27.240   9.540
 1327BOLB   C3D31847  17.710  26.780   9.480
 1327BOLB   C4D31848  17.810  26.340   9.630
 1328BOLB   NC131849  11.260  14.840   5.600
 1328BOLB   PO131850  11.180  14.600   5.890
 1328BOLB   GL131851  10.890  14.220   5.870
 1328BOLB   GL231852  10.650  14.150   6.130
 1328BOLB   C1A31853  10.650  14.260   5.540
 1328BOLB   C2A31854  10.670  14.200   5.140
 1328BOLB   C3A31855  10.560  14.290   4.810
 1328BOLB   C4A31856  10.520  14.540   4.420
 1328BOLB   C1B31857  10.300  14.090   5.920
 1328BOLB   C2B31858   9.930  14.080   5.900
 1328BOLB   C3B31859   9.650  14.170   5.610
 1328BOLB   C4B31860   9.430  14.160   5.230
 1328BOLB   NC231861   9.490  14.070   1.980
 1328BOLB   PO231862   9.710  14.440   1.920
 1328BOLB   GL331863   9.940  14.150   2.340
 1328BOLB   GL431864  10.220  14.000   2.330
 1328BOLB   C1C31865   9.990  14.200   2.800
 1328BOLB   C2C31866   9.990  14.270   3.270
 1328BOLB   C3C31867  10.200  14.440   3.640
 1328BOLB   C4C31868  10.480  14.590   3.950
 1328BOLB   C1D31869  10.530  14.080   2.670
 1328BOLB   C2D31870  10.890  14.230   2.930
 1328BOLB   C3D31871  10.870  14.490   3.260
 1328BOLB   C4D31872  10.790  14.590   3.640
 1329BOLB   NC131873  11.220  22.250  11.090
 1329BOLB   PO131874  11.150  22.590  10.740
 1329BOLB   GL131875  10.830  22.910  10.510
 1329BOLB   GL231876  10.840  23.160  10.720
 1329BOLB   C1A31877  10.420  23.060  10.430
 1329BOLB   C2A31878  10.080  23.270  10.300
 1329BOLB   C3A31879   9.670  23.400  10.120
 1329BOLB   C4A31880   9.250  23.390  10.090
 1329BOLB   C1B31881  10.580  23.560  10.510
 1329BOLB   C2B31882  10.540  23.890  10.360
 1329BOLB   C3B31883  10.340  24.210  10.360
 1329BOLB   C4B31884  10.590  24.690  10.280
 1329BOLB   NC231885   8.520  25.330   9.450
 1329BOLB   PO231886   8.200  25.240   9.790
 1329BOLB   GL331887   8.040  24.800   9.940
 1329BOLB   GL431888   7.810  24.660   9.580
 1329BOLB   C1C31889   8.130  24.400   9.990
 1329BOLB   C2C31890   8.380  24.160  10.150
 1329BOLB   C3C31891   8.560  23.790  10.240
 1329BOLB   C4C31892   8.800  23.480  10.010
 1329BOLB   C1D31893   8.050  24.310   9.360
 1329BOLB   C2D31894   8.210  23.880   9.130
 1329BOLB   C3D31895   8.400  23.530   9.190
 1329BOLB   C4D31896   8.730  23.330   9.180
 1330BOLB   NC131897   9.650  12.840   9.030
 1330BOLB   PO131898   9.320  12.980   9.440
 1330BOLB   GL131899   9.000  12.730   9.420
 1330BOLB   GL231900   8.690  12.840   9.370
 1330BOLB   C1A31901   8.650  12.370   9.390
 1330BOLB   C2A31902   8.410  12.290   9.140
 1330BOLB   C3A31903   8.010  12.240   9.000
 1330BOLB   C4A31904   7.540  12.360   9.130
 1330BOLB   C1B31905   8.300  12.720   9.360
 1330BOLB   C2B31906   8.010  12.290   9.530
 1330BOLB   C3B31907   7.700  12.160   9.700
 1330BOLB   C4B31908   7.270  11.980   9.820
 1330BOLB   NC231909   5.560  12.500   7.880
 1330BOLB   PO231910   5.530  12.120   8.030
 1330BOLB   GL331911   5.910  12.210   8.050
 1330BOLB   GL431912   5.960  12.510   8.180
 1330BOLB   C1C31913   6.330  12.200   8.090
 1330BOLB   C2C31914   6.580  12.080   8.360
 1330BOLB   C3C31915   6.980  12.140   8.520
 1330BOLB   C4C31916   7.070  12.290   8.920
 1330BOLB   C1D31917   6.360  12.710   8.220
 1330BOLB   C2D31918   6.640  13.000   8.390
 1330BOLB   C3D31919   7.090  13.170   8.380
 1330BOLB   C4D31920   7.400  13.210   8.720
 1331BOLB   NC131921  11.950  11.100  27.000
 1331BOLB   PO131922  12.110  11.570  27.070
 1331BOLB   GL131923  12.290  11.740  26.830
 1331BOLB   GL231924  12.570  11.710  26.740
 1331BOLB   C1A31925  12.250  11.890  26.420
 1331BOLB   C2A31926  12.550  12.210  26.170
 1331BOLB   C3A31927  12.730  12.460  25.870
 1331BOLB   C4A31928  13.170  12.410  25.580
 1331BOLB   C1B31929  12.630  11.630  26.250
 1331BOLB   C2B31930  12.480  11.770  25.830
 1331BOLB   C3B31931  12.410  11.990  25.590
 1331BOLB   C4B31932  12.420  12.280  25.320
 1331BOLB   NC231933  12.820  10.770  27.260
 1331BOLB   PO231934  13.200  11.000  27.250
 1331BOLB   GL331935  13.370  11.140  26.890
 1331BOLB   GL431936  13.700  11.040  26.910
 1331BOLB   C1C31937  13.470  11.300  26.440
 1331BOLB   C2C31938  13.520  11.420  25.950
 1331BOLB   C3C31939  13.390  11.660  25.580
 1331BOLB   C4C31940  13.380  12.120  25.340
 1331BOLB   C1D31941  14.130  11.010  26.840
 1331BOLB   C2D31942  14.620  10.820  26.730
 1331BOLB   C3D31943  14.930  10.510  26.610
 1331BOLB   C4D31944  15.260  10.620  26.400
 1332BOLB   NC131945   6.680   7.380  19.960
 1332BOLB   PO131946   6.830   7.700  20.360
 1332BOLB   GL131947   6.960   8.010  20.220
 1332BOLB   GL231948   7.220   8.100  19.960
 1332BOLB   C1A31949   6.820   8.460  20.120
 1332BOLB   C2A31950   6.890   8.790  19.930
 1332BOLB   C3A31951   7.010   9.040  19.550
 1332BOLB   C4A31952   7.040   9.350  19.230
 1332BOLB   C1B31953   7.610   8.180  19.750
 1332BOLB   C2B31954   7.880   8.170  19.540
 1332BOLB   C3B31955   8.180   8.410  19.300
 1332BOLB   C4B31956   8.630   8.350  19.230
 1332BOLB   NC231957   5.380   8.810  20.490
 1332BOLB   PO231958   5.420   8.940  20.030
 1332BOLB   GL331959   5.750   9.000  19.720
 1332BOLB   GL431960   6.070   9.060  19.860
 1332BOLB   C1C31961   5.910   9.160  19.240
 1332BOLB   C2C31962   6.260   9.030  18.910
 1332BOLB   C3C31963   6.560   9.270  18.630
 1332BOLB   C4C31964   6.800   9.440  18.890
 1332BOLB   C1D31965   6.070   9.410  19.610
 1332BOLB   C2D31966   5.610   9.570  19.470
 1332BOLB   C3D31967   5.450   9.960  19.310
 1332BOLB   C4D31968   5.500  10.270  19.060
 1333BOLB   NC131969  23.090  21.220   8.920
 1333BOLB   PO131970  22.820  20.810   8.890
 1333BOLB   GL131971  23.350  20.780   8.720
 1333BOLB   GL231972  23.350  20.690   8.390
 1333BOLB   C1A31973  23.790  20.860   8.490
 1333BOLB   C2A31974  24.130  21.040   8.400
 1333BOLB   C3A31975  24.410  21.060   8.070
 1333BOLB   C4A31976  24.680  21.100   7.720
 1333BOLB   C1B31977  23.570  20.720   8.050
 1333BOLB   C2B31978  24.060  20.730   7.950
 1333BOLB   C3B31979  24.290  20.840   7.620
 1333BOLB   C4B31980  24.600  20.880   7.300
 1333BOLB   NC231981  26.760  22.360   7.500
 1333BOLB   PO231982  26.650  22.430   7.100
 1333BOLB   GL331983  26.350  22.260   7.290
 1333BOLB   GL431984  26.340  22.210   7.670
 1333BOLB   C1C31985  25.960  21.930   7.160
 1333BOLB   C2C31986  25.770  21.500   7.230
 1333BOLB   C3C31987  25.420  21.310   7.330
 1333BOLB   C4C31988  24.940  21.250   7.380
 1333BOLB   C1D31989  26.110  21.920   7.650
 1333BOLB   C2D31990  25.970  21.510   7.700
 1333BOLB   C3D31991  25.750  21.270   7.810
 1333BOLB   C4D31992  25.860  20.930   8.120
 1334BOLB   NC131993   9.060  15.640   8.550
 1334BOLB   PO131994   8.800  15.450   8.750
 1334BOLB   GL131995   8.470  15.300   8.530
 1334BOLB   GL231996   8.450  15.350   8.220
 1334BOLB   C1A31997   8.050  15.010   8.580
 1334BOLB   C2A31998   7.630  14.950   8.710
 1334BOLB   C3A31999   7.220  14.960   8.560
 1334BOLB   C4A32000   6.890  15.050   8.410
 1334BOLB   C1B32001   8.460  15.250   7.790
 1334BOLB   C2B32002   7.990  15.380   7.590
 1334BOLB   C3B32003   7.760  15.520   7.450
 1334BOLB   C4B32004   7.360  15.680   7.580
 1334BOLB   NC232005   5.640  15.490   6.260
 1334BOLB   PO232006   5.420  15.210   6.350
 1334BOLB   GL332007   5.800  15.170   6.600
 1334BOLB   GL432008   5.800  15.380   6.840
 1334BOLB   C1C32009   6.160  14.950   6.780
 1334BOLB   C2C32010   6.430  15.060   7.090
 1334BOLB   C3C32011   6.420  15.030   7.530
 1334BOLB   C4C32012   6.690  15.060   7.970
 1334BOLB   C1D32013   6.040  15.420   7.250
 1334BOLB   C2D32014   6.490  15.530   7.310
 1334BOLB   C3D32015   6.710  15.960   7.370
 1334BOLB   C4D32016   7.070  16.060   7.560
 1335BOLB   NC132017  12.300  20.850   7.060
 1335BOLB   PO132018  11.860  20.950   7.100
 1335BOLB   GL132019  11.610  21.370   7.060
 1335BOLB   GL232020  11.340  21.370   7.260
 1335BOLB   C1A32021  11.400  21.490   6.740
 1335BOLB   C2A32022  11.480  21.760   6.350
 1335BOLB   C3A32023  11.280  22.030   6.050
 1335BOLB   C4A32024  10.900  22.300   5.970
 1335BOLB   C1B32025  10.940  21.640   7.130
 1335BOLB   C2B32026  10.980  21.950   6.840
 1335BOLB   C3B32027  11.030  22.200   6.440
 1335BOLB   C4B32028  11.270  22.530   6.230
 1335BOLB   NC232029  10.560  24.450   4.460
 1335BOLB   PO232030  10.310  24.070   4.700
 1335BOLB   GL332031  10.370  23.820   5.100
 1335BOLB   GL432032  10.640  23.690   5.130
 1335BOLB   C1C32033  10.240  23.390   5.140
 1335BOLB   C2C32034  10.280  23.010   5.000
 1335BOLB   C3C32035  10.580  22.750   5.350
 1335BOLB   C4C32036  10.590  22.420   5.690
 1335BOLB   C1D32037  10.860  23.420   4.870
 1335BOLB   C2D32038  10.830  23.060   4.720
 1335BOLB   C3D32039  11.090  22.750   4.400
 1335BOLB   C4D32040  11.110  22.250   4.260
 1336BOLB   NC132041  21.180  18.020   5.650
 1336BOLB   PO132042  20.860  18.160   5.510
 1336BOLB   GL132043  21.210  18.240   5.190
 1336BOLB   GL232044  21.220  18.450   4.960
 1336BOLB   C1A32045  21.290  18.000   4.740
 1336BOLB   C2A32046  21.480  17.990   4.320
 1336BOLB   C3A32047  21.630  18.400   3.960
 1336BOLB   C4A32048  21.620  18.800   3.970
 1336BOLB   C1B32049  21.350  18.890   4.770
 1336BOLB   C2B32050  21.540  19.040   4.450
 1336BOLB   C3B32051  21.910  19.080   4.410
 1336BOLB   C4B32052  22.350  19.090   4.330
 1336BOLB   NC232053  22.960  20.320   1.910
 1336BOLB   PO232054  22.940  19.920   2.020
 1336BOLB   GL332055  22.880  19.940   2.510
 1336BOLB   GL432056  22.760  19.580   2.380
 1336BOLB   C1C32057  22.710  19.700   2.870
 1336BOLB   C2C32058  22.500  19.410   3.150
 1336BOLB   C3C32059  22.170  19.340   3.470
 1336BOLB   C4C32060  22.020  19.140   3.890
 1336BOLB   C1D32061  22.410  19.360   2.550
 1336BOLB   C2D32062  22.150  19.150   2.940
 1336BOLB   C3D32063  21.790  19.240   3.190
 1336BOLB   C4D32064  21.610  19.190   3.570
 1337BOLB   NC132065  14.200  10.370   7.470
 1337BOLB   PO132066  13.840  10.580   7.320
 1337BOLB   GL132067  13.740  10.280   7.090
 1337BOLB   GL232068  13.550  10.250   6.810
 1337BOLB   C1A32069  13.640   9.800   7.000
 1337BOLB   C2A32070  13.640   9.370   6.900
 1337BOLB   C3A32071  13.660   8.970   6.720
 1337BOLB   C4A32072  13.580   8.690   6.310
 1337BOLB   C1B32073  13.220  10.010   6.580
 1337BOLB   C2B32074  13.220   9.600   6.700
 1337BOLB   C3B32075  13.200   9.150   6.560
 1337BOLB   C4B32076  12.950   8.920   6.380
 1337BOLB   NC232077  13.290   6.410   5.560
 1337BOLB   PO232078  12.850   6.560   5.380
 1337BOLB   GL332079  13.150   6.920   5.550
 1337BOLB   GL432080  13.150   6.980   5.990
 1337BOLB   C1C32081  13.520   7.170   5.710
 1337BOLB   C2C32082  13.600   7.560   5.840
 1337BOLB   C3C32083  13.800   8.070   5.900
 1337BOLB   C4C32084  13.700   8.370   5.980
 1337BOLB   C1D32085  13.250   7.390   6.140
 1337BOLB   C2D32086  13.480   7.550   6.600
 1337BOLB   C3D32087  13.530   7.880   6.880
 1337BOLB   C4D32088  13.880   8.070   7.110
 1338BOLB   NC132089  23.610  19.900  10.160
 1338BOLB   PO132090  23.850  19.840   9.820
 1338BOLB   GL132091  24.160  19.700   9.540
 1338BOLB   GL232092  24.170  20.020   9.340
 1338BOLB   C1A32093  24.510  19.580   9.500
 1338BOLB   C2A32094  24.910  19.670   9.620
 1338BOLB   C3A32095  25.260  19.730   9.450
 1338BOLB   C4A32096  25.650  19.890   9.200
 1338BOLB   C1B32097  24.370  20.360   9.290
 1338BOLB   C2B32098  24.620  20.560   8.990
 1338BOLB   C3B32099  24.660  20.930   8.560
 1338BOLB   C4B32100  24.860  21.210   8.210
 1338BOLB   NC232101  27.700  20.450   8.450
 1338BOLB   PO232102  27.600  20.170   8.130
 1338BOLB   GL332103  27.210  20.270   8.170
 1338BOLB   GL432104  26.930  20.340   8.020
 1338BOLB   C1C32105  26.990  20.160   8.540
 1338BOLB   C2C32106  26.700  19.960   8.610
 1338BOLB   C3C32107  26.240  20.060   8.500
 1338BOLB   C4C32108  25.880  20.040   8.830
 1338BOLB   C1D32109  26.540  20.230   8.120
 1338BOLB   C2D32110  26.140  20.180   7.930
 1338BOLB   C3D32111  26.070  19.880   7.760
 1338BOLB   C4D32112  25.670  19.940   7.720
 1339BOLB   NC132113  10.790  14.580   6.230
 1339BOLB   PO132114  10.590  14.900   6.430
 1339BOLB   GL132115  10.210  14.990   6.270
 1339BOLB   GL232116  10.140  15.350   6.390
 1339BOLB   C1A32117   9.990  15.020   5.930
 1339BOLB   C2A32118   9.930  15.320   5.680
 1339BOLB   C3A32119   9.740  15.360   5.290
 1339BOLB   C4A32120   9.650  15.070   4.900
 1339BOLB   C1B32121  10.180  15.610   6.040
 1339BOLB   C2B32122  10.040  15.820   5.620
 1339BOLB   C3B32123   9.890  15.950   5.150
 1339BOLB   C4B32124   9.750  15.780   4.770
 1339BOLB   NC232125   8.070  15.720   3.070
 1339BOLB   PO232126   8.030  15.880   3.500
 1339BOLB   GL332127   8.160  15.720   3.860
 1339BOLB   GL432128   8.090  15.390   4.030
 1339BOLB   C1C32129   8.570  15.490   3.990
 1339BOLB   C2C32130   8.940  15.230   4.030
 1339BOLB   C3C32131   9.330  15.070   4.170
 1339BOLB   C4C32132   9.640  14.920   4.520
 1339BOLB   C1D32133   8.360  15.450   4.410
 1339BOLB   C2D32134   8.180  15.430   4.860
 1339BOLB   C3D32135   8.140  15.570   5.250
 1339BOLB   C4D32136   8.220  15.890   5.500
 1340BOLB   NC132137  18.510   9.300  23.480
 1340BOLB   PO132138  18.110   9.160  23.380
 1340BOLB   GL132139  17.680   9.010  23.330
 1340BOLB   GL232140  17.700   8.830  23.060
 1340BOLB   C1A32141  17.210   9.210  23.400
 1340BOLB   C2A32142  16.850   9.430  23.430
 1340BOLB   C3A32143  16.410   9.540  23.570
 1340BOLB   C4A32144  16.020   9.840  23.680
 1340BOLB   C1B32145  17.430   8.960  22.830
 1340BOLB   C2B32146  17.520   9.040  22.370
 1340BOLB   C3B32147  17.500   9.070  21.970
 1340BOLB   C4B32148  17.680   9.080  21.610
 1340BOLB   NC232149  16.050   8.390  25.940
 1340BOLB   PO232150  15.670   8.560  25.650
 1340BOLB   GL332151  15.650   8.960  25.580
 1340BOLB   GL432152  16.000   9.110  25.500
 1340BOLB   C1C32153  15.460   9.240  25.210
 1340BOLB   C2C32154  15.290   9.350  24.860
 1340BOLB   C3C32155  15.590   9.480  24.480
 1340BOLB   C4C32156  15.830   9.710  24.150
 1340BOLB   C1D32157  15.950   9.170  25.030
 1340BOLB   C2D32158  15.960   9.180  24.600
 1340BOLB   C3D32159  16.090   8.960  24.240
 1340BOLB   C4D32160  16.020   8.830  23.770
 1341BOLB   NC132161  22.250  22.980  10.900
 1341BOLB   PO132162  22.550  23.130  11.180
 1341BOLB   GL132163  22.820  23.320  11.530
 1341BOLB   GL232164  22.860  23.530  11.360
 1341BOLB   C1A32165  23.260  23.260  11.680
 1341BOLB   C2A32166  23.640  23.350  11.570
 1341BOLB   C3A32167  23.790  23.690  11.430
 1341BOLB   C4A32168  23.790  24.070  11.170
 1341BOLB   C1B32169  23.300  23.570  11.290
 1341BOLB   C2B32170  23.690  23.480  11.010
 1341BOLB   C3B32171  24.130  23.170  10.810
 1341BOLB   C4B32172  24.150  22.860  10.860
 1341BOLB   NC232173  24.090  26.220  11.920
 1341BOLB   PO232174  24.000  26.450  11.480
 1341BOLB   GL332175  23.950  26.020  11.430
 1341BOLB   GL432176  23.760  25.870  11.690
 1341BOLB   C1C32177  23.780  25.650  11.240
 1341BOLB   C2C32178  23.640  25.370  11.100
 1341BOLB   C3C32179  23.690  24.960  11.040
 1341BOLB   C4C32180  23.730  24.490  11.080
 1341BOLB   C1D32181  23.530  25.390  11.670
 1341BOLB   C2D32182  23.210  25.070  11.780
 1341BOLB   C3D32183  23.240  24.650  11.870
 1341BOLB   C4D32184  23.170  24.280  11.960
 1342BOLB   NC132185  11.030  11.090   8.400
 1342BOLB   PO132186  10.860  11.290   8.060
 1342BOLB   GL132187  10.550  11.110   7.790
 1342BOLB   GL232188  10.710  11.170   7.550
 1342BOLB   C1A32189  10.410  10.700   7.820
 1342BOLB   C2A32190  10.430  10.580   7.510
 1342BOLB   C3A32191  10.680  10.440   7.070
 1342BOLB   C4A32192  10.680  10.200   6.740
 1342BOLB   C1B32193  10.780  10.910   7.190
 1342BOLB   C2B32194  11.060  10.700   6.950
 1342BOLB   C3B32195  11.150  10.300   6.660
 1342BOLB   C4B32196  11.370  10.390   6.240
 1342BOLB   NC232197   9.230   8.930   6.320
 1342BOLB   PO232198   8.810   8.840   6.530
 1342BOLB   GL332199   8.980   9.330   6.490
 1342BOLB   GL432200   8.810   9.590   6.330
 1342BOLB   C1C32201   9.320   9.590   6.470
 1342BOLB   C2C32202   9.680   9.740   6.340
 1342BOLB   C3C32203   9.970  10.090   6.460
 1342BOLB   C4C32204  10.290  10.310   6.450
 1342BOLB   C1D32205   9.120   9.810   6.080
 1342BOLB   C2D32206   9.210  10.230   5.860
 1342BOLB   C3D32207   9.240  10.700   5.750
 1342BOLB   C4D32208   9.460  11.080   5.750
 1343BOLB   NC132209  13.800  22.030   7.890
 1343BOLB   PO132210  13.350  22.090   8.010
 1343BOLB   GL132211  12.970  22.160   7.750
 1343BOLB   GL232212  12.810  22.270   7.980
 1343BOLB   C1A32213  12.790  22.230   7.360
 1343BOLB   C2A32214  12.740  22.540   7.100
 1343BOLB   C3A32215  12.520  22.630   6.800
 1343BOLB   C4A32216  12.220  22.900   6.490
 1343BOLB   C1B32217  12.780  22.710   7.680
 1343BOLB   C2B32218  12.740  22.950   7.380
 1343BOLB   C3B32219  12.650  23.350   7.370
 1343BOLB   C4B32220  12.660  23.770   7.370
 1343BOLB   NC232221  11.470  24.830   5.090
 1343BOLB   PO232222  11.840  24.500   5.060
 1343BOLB   GL332223  12.090  24.280   5.280
 1343BOLB   GL432224  12.370  24.300   5.470
 1343BOLB   C1C32225  12.070  23.850   5.470
 1343BOLB   C2C32226  11.980  23.690   5.750
 1343BOLB   C3C32227  11.940  23.280   5.760
 1343BOLB   C4C32228  12.060  23.000   6.040
 1343BOLB   C1D32229  12.490  24.060   5.770
 1343BOLB   C2D32230  12.410  23.700   6.060
 1343BOLB   C3D32231  12.570  23.300   6.370
 1343BOLB   C4D32232  13.040  23.330   6.570
 1344BOLB   NC132233  19.680  24.290  14.160
 1344BOLB   PO132234  19.660  24.760  14.110
 1344BOLB   GL132235  19.900  25.190  13.990
 1344BOLB   GL232236  20.290  25.210  14.180
 1344BOLB   C1A32237  20.150  25.500  13.820
 1344BOLB   C2A32238  20.420  25.860  13.970
 1344BOLB   C3A32239  20.630  26.050  14.280
 1344BOLB   C4A32240  20.950  26.080  14.500
 1344BOLB   C1B32241  20.740  25.570  14.210
 1344BOLB   C2B32242  21.120  25.640  14.100
 1344BOLB   C3B32243  21.650  25.690  13.930
 1344BOLB   C4B32244  21.780  25.980  13.710
 1344BOLB   NC232245  21.890  28.220  14.320
 1344BOLB   PO232246  22.240  27.930  14.290
 1344BOLB   GL332247  22.190  27.490  14.200
 1344BOLB   GL432248  22.450  27.210  14.170
 1344BOLB   C1C32249  21.810  27.140  14.200
 1344BOLB   C2C32250  21.720  26.720  14.340
 1344BOLB   C3C32251  21.650  26.250  14.190
 1344BOLB   C4C32252  21.380  26.050  14.150
 1344BOLB   C1D32253  22.220  27.080  14.490
 1344BOLB   C2D32254  22.310  26.960  14.890
 1344BOLB   C3D32255  22.710  26.800  15.140
 1344BOLB   C4D32256  22.480  26.590  15.350
 1345BOLB   NC132257  13.930  10.580   6.790
 1345BOLB   PO132258  14.340  10.360   6.980
 1345BOLB   GL132259  14.160  10.150   6.730
 1345BOLB   GL232260  14.490   9.970   6.760
 1345BOLB   C1A32261  13.930   9.770   6.500
 1345BOLB   C2A32262  13.720   9.380   6.330
 1345BOLB   C3A32263  13.530   9.230   6.080
 1345BOLB   C4A32264  13.270   8.990   6.000
 1345BOLB   C1B32265  14.510   9.610   6.540
 1345BOLB   C2B32266  14.590   9.240   6.410
 1345BOLB   C3B32267  14.460   8.860   6.750
 1345BOLB   C4B32268  14.240   8.480   6.880
 1345BOLB   NC232269  11.330   7.310   5.850
 1345BOLB   PO232270  11.590   7.370   6.240
 1345BOLB   GL332271  11.690   7.810   6.340
 1345BOLB   GL432272  11.430   7.980   6.560
 1345BOLB   C1C32273  12.090   8.040   6.450
 1345BOLB   C2C32274  12.460   8.130   6.430
 1345BOLB   C3C32275  12.800   8.220   6.170
 1345BOLB   C4C32276  13.190   8.520   6.110
 1345BOLB   C1D32277  11.730   8.190   6.820
 1345BOLB   C2D32278  11.700   8.550   6.980
 1345BOLB   C3D32279  11.920   8.940   6.790
 1345BOLB   C4D32280  11.900   9.290   6.620
 1346BOLB   NC132281  11.420  20.910   7.450
 1346BOLB   PO132282  11.730  21.200   7.590
 1346BOLB   GL132283  11.690  21.630   7.550
 1346BOLB   GL232284  11.950  21.880   7.480
 1346BOLB   C1A32285  11.410  21.870   7.350
 1346BOLB   C2A32286  11.050  22.090   7.290
 1346BOLB   C3A32287  10.590  22.210   7.210
 1346BOLB   C4A32288  10.500  22.340   6.860
 1346BOLB   C1B32289  11.760  22.240   7.240
 1346BOLB   C2B32290  11.750  22.630   7.250
 1346BOLB   C3B32291  11.680  23.050   7.390
 1346BOLB   C4B32292  11.410  23.380   7.220
 1346BOLB   NC232293   8.770  22.710   5.300
 1346BOLB   PO232294   9.110  23.090   5.390
 1346BOLB   GL332295   9.300  23.060   5.830
 1346BOLB   GL432296   9.090  23.020   6.060
 1346BOLB   C1C32297   9.390  22.620   6.070
 1346BOLB   C2C32298   9.470  22.610   6.490
 1346BOLB   C3C32299   9.880  22.670   6.710
 1346BOLB   C4C32300  10.320  22.570   6.680
 1346BOLB   C1D32301   9.260  23.090   6.410
 1346BOLB   C2D32302   9.380  22.980   6.810
 1346BOLB   C3D32303   9.360  23.180   7.130
 1346BOLB   C4D32304   9.360  23.410   7.420
 1347BOLB   NC132305  16.500   9.780  14.620
 1347BOLB   PO132306  16.300   9.460  14.910
 1347BOLB   GL132307  16.070   9.160  15.170
 1347BOLB   GL232308  16.280   9.010  15.430
 1347BOLB   C1A32309  15.970   8.710  15.240
 1347BOLB   C2A32310  16.060   8.370  15.040
 1347BOLB   C3A32311  16.150   7.840  15.130
 1347BOLB   C4A32312  16.360   7.530  15.340
 1347BOLB   C1B32313  16.380   8.600  15.530
 1347BOLB   C2B32314  16.380   8.250  15.550
 1347BOLB   C3B32315  16.210   7.870  15.730
 1347BOLB   C4B32316  16.160   7.680  16.150
 1347BOLB   NC232317  16.780   5.380  15.940
 1347BOLB   PO232318  16.330   5.250  16.100
 1347BOLB   GL332319  16.270   5.520  15.770
 1347BOLB   GL432320  15.940   5.630  15.620
 1347BOLB   C1C32321  16.440   5.930  15.780
 1347BOLB   C2C32322  16.420   6.290  15.500
 1347BOLB   C3C32323  16.290   6.740  15.550
 1347BOLB   C4C32324  16.340   7.060  15.420
 1347BOLB   C1D32325  15.920   6.080  15.630
 1347BOLB   C2D32326  15.850   6.490  15.510
 1347BOLB   C3D32327  15.850   6.950  15.700
 1347BOLB   C4D32328  16.110   7.270  15.910
 1348BOLB   NC132329   8.820  17.550   9.570
 1348BOLB   PO132330   8.410  17.470   9.540
 1348BOLB   GL132331   8.090  17.700   9.400
 1348BOLB   GL232332   8.120  18.050   9.350
 1348BOLB   C1A32333   7.830  17.630   9.050
 1348BOLB   C2A32334   7.460  17.510   8.810
 1348BOLB   C3A32335   7.160  17.390   8.650
 1348BOLB   C4A32336   6.840  17.350   8.380
 1348BOLB   C1B32337   7.760  18.130   9.090
 1348BOLB   C2B32338   7.400  18.290   9.320
 1348BOLB   C3B32339   7.000  18.500   9.370
 1348BOLB   C4B32340   6.690  18.440   9.300
 1348BOLB   NC232341   4.720  16.930   7.550
 1348BOLB   PO232342   4.830  16.780   7.930
 1348BOLB   GL332343   5.090  16.640   8.290
 1348BOLB   GL432344   4.980  16.290   8.490
 1348BOLB   C1C32345   5.520  16.530   8.370
 1348BOLB   C2C32346   5.900  16.560   8.500
 1348BOLB   C3C32347   6.270  16.680   8.450
 1348BOLB   C4C32348   6.600  16.960   8.480
 1348BOLB   C1D32349   5.420  16.110   8.590
 1348BOLB   C2D32350   5.730  16.100   8.780
 1348BOLB   C3D32351   6.070  16.040   9.070
 1348BOLB   C4D32352   6.400  16.250   9.260
 1349BOLB   NC132353  26.770  23.690   7.780
 1349BOLB   PO132354  26.520  23.390   8.150
 1349BOLB   GL132355  26.230  22.960   8.260
 1349BOLB   GL232356  26.090  23.160   8.550
 1349BOLB   C1A32357  25.950  22.680   8.430
 1349BOLB   C2A32358  25.510  22.710   8.640
 1349BOLB   C3A32359  25.150  22.460   8.830
 1349BOLB   C4A32360  24.950  22.050   8.950
 1349BOLB   C1B32361  25.730  23.250   8.270
 1349BOLB   C2B32362  25.280  23.120   8.330
 1349BOLB   C3B32363  24.910  23.290   8.400
 1349BOLB   C4B32364  24.600  23.240   8.770
 1349BOLB   NC232365  23.160  20.590   9.690
 1349BOLB   PO232366  23.440  20.460   9.410
 1349BOLB   GL332367  23.710  20.730   9.390
 1349BOLB   GL432368  23.990  20.600   9.440
 1349BOLB   C1C32369  23.790  21.000   9.070
 1349BOLB   C2C32370  23.810  21.350   8.730
 1349BOLB   C3C32371  24.130  21.740   8.800
 1349BOLB   C4C32372  24.530  22.010   9.010
 1349BOLB   C1D32373  24.320  20.660   9.760
 1349BOLB   C2D32374  24.710  20.830  10.070
 1349BOLB   C3D32375  25.180  20.880  10.150
 1349BOLB   C4D32376  25.570  20.930  10.260
 1350BOLB   NC132377   7.720  17.480  11.620
 1350BOLB   PO132378   7.850  17.140  11.470
 1350BOLB   GL132379   7.450  17.120  11.410
 1350BOLB   GL232380   7.440  17.300  11.140
 1350BOLB   C1A32381   7.030  17.310  11.420
 1350BOLB   C2A32382   6.560  17.330  11.530
 1350BOLB   C3A32383   6.070  17.230  11.640
 1350BOLB   C4A32384   5.670  17.230  11.640
 1350BOLB   C1B32385   7.110  17.420  10.860
 1350BOLB   C2B32386   6.740  17.600  11.070
 1350BOLB   C3B32387   6.360  17.720  11.170
 1350BOLB   C4B32388   5.950  17.590  11.370
 1350BOLB   NC232389   3.530  17.940  10.940
 1350BOLB   PO232390   3.660  18.110  10.580
 1350BOLB   GL332391   4.070  17.940  10.670
 1350BOLB   GL432392   4.070  18.000  11.110
 1350BOLB   C1C32393   4.500  17.880  10.930
 1350BOLB   C2C32394   4.670  17.860  11.380
 1350BOLB   C3C32395   5.130  17.720  11.430
 1350BOLB   C4C32396   5.310  17.480  11.680
 1350BOLB   C1D32397   4.160  17.940  11.440
 1350BOLB   C2D32398   4.460  18.070  11.740
 1350BOLB   C3D32399   4.890  17.880  11.940
 1350BOLB   C4D32400   5.300  17.830  12.050
 1351BOLB   NC132401  18.440  23.600  17.680
 1351BOLB   PO132402  18.100  23.810  17.800
 1351BOLB   GL132403  18.260  24.020  18.120
 1351BOLB   GL232404  18.170  23.870  18.430
 1351BOLB   C1A32405  18.530  24.230  18.440
 1351BOLB   C2A32406  18.900  24.290  18.670
 1351BOLB   C3A32407  19.210  24.620  18.760
 1351BOLB   C4A32408  19.540  25.140  18.820
 1351BOLB   C1B32409  18.400  23.940  18.850
 1351BOLB   C2B32410  18.710  24.030  19.060
 1351BOLB   C3B32411  19.060  24.190  19.160
 1351BOLB   C4B32412  19.400  24.350  19.330
 1351BOLB   NC232413  18.800  27.170  19.950
 1351BOLB   PO232414  19.050  27.260  19.620
 1351BOLB   GL332415  18.870  26.970  19.350
 1351BOLB   GL432416  18.620  26.810  19.450
 1351BOLB   C1C32417  18.990  26.590  19.270
 1351BOLB   C2C32418  19.210  26.290  19.070
 1351BOLB   C3C32419  19.460  26.000  18.880
 1351BOLB   C4C32420  19.460  25.590  18.830
 1351BOLB   C1D32421  18.430  26.890  19.190
 1351BOLB   C2D32422  18.210  26.690  18.860
 1351BOLB   C3D32423  18.380  26.300  18.660
 1351BOLB   C4D32424  18.790  26.140  18.740
 1352BOLB   NC132425  11.870  16.960   5.430
 1352BOLB   PO132426  12.340  16.950   5.360
 1352BOLB   GL132427  12.160  16.970   4.900
 1352BOLB   GL232428  11.830  16.990   4.870
 1352BOLB   C1A32429  12.090  16.740   4.550
 1352BOLB   C2A32430  11.930  16.370   4.380
 1352BOLB   C3A32431  11.700  16.170   4.020
 1352BOLB   C4A32432  11.610  15.870   3.650
 1352BOLB   C1B32433  11.380  16.950   5.050
 1352BOLB   C2B32434  11.100  16.780   4.830
 1352BOLB   C3B32435  10.910  16.940   4.500
 1352BOLB   C4B32436  11.120  16.980   4.150
 1352BOLB   NC232437  11.200  15.170   0.820
 1352BOLB   PO232438  11.130  14.900   1.160
 1352BOLB   GL332439  11.320  14.920   1.650
 1352BOLB   GL432440  11.210  14.750   1.770
 1352BOLB   C1C32441  11.270  15.250   1.990
 1352BOLB   C2C32442  11.470  15.400   2.280
 1352BOLB   C3C32443  11.450  15.550   2.780
 1352BOLB   C4C32444  11.510  15.700   3.210
 1352BOLB   C1D32445  11.360  14.830   2.200
 1352BOLB   C2D32446  11.360  15.020   2.590
 1352BOLB   C3D32447  11.470  15.130   3.080
 1352BOLB   C4D32448  11.630  15.190   3.510
 1353BOLB   NC132449   2.570  19.230  11.610
 1353BOLB   PO132450   2.770  19.340  11.960
 1353BOLB   GL132451   3.050  19.650  12.280
 1353BOLB   GL232452   3.120  20.070  12.300
 1353BOLB   C1A32453   3.140  19.620  12.720
 1353BOLB   C2A32454   3.570  19.620  12.880
 1353BOLB   C3A32455   3.830  19.330  13.070
 1353BOLB   C4A32456   3.710  18.870  12.910
 1353BOLB   C1B32457   3.470  20.050  12.630
 1353BOLB   C2B32458   3.870  20.030  12.850
 1353BOLB   C3B32459   4.180  19.980  13.180
 1353BOLB   C4B32460   4.180  19.540  13.410
 1353BOLB   NC232461   1.210  18.870  12.550
 1353BOLB   PO232462   1.570  18.580  12.370
 1353BOLB   GL332463   1.860  18.400  12.570
 1353BOLB   GL432464   2.060  18.130  12.470
 1353BOLB   C1C32465   2.140  18.660  12.780
 1353BOLB   C2C32466   2.640  18.690  12.820
 1353BOLB   C3C32467   3.070  18.470  12.730
 1353BOLB   C4C32468   3.410  18.470  12.960
 1353BOLB   C1D32469   2.260  18.210  12.890
 1353BOLB   C2D32470   2.460  18.440  13.240
 1353BOLB   C3D32471   3.010  18.540  13.240
 1353BOLB   C4D32472   3.210  18.280  13.330
 1354BOLB   NC132473  14.890  17.100   4.260
 1354BOLB   PO132474  14.570  16.760   4.280
 1354BOLB   GL132475  14.480  16.910   3.870
 1354BOLB   GL232476  14.400  16.610   3.720
 1354BOLB   C1A32477  14.550  17.010   3.470
 1354BOLB   C2A32478  14.280  17.050   3.090
 1354BOLB   C3A32479  14.000  17.090   2.730
 1354BOLB   C4A32480  13.600  17.300   2.640
 1354BOLB   C1B32481  14.070  16.560   3.360
 1354BOLB   C2B32482  13.930  16.630   2.980
 1354BOLB   C3B32483  14.080  16.360   2.570
 1354BOLB   C4B32484  14.340  16.360   2.230
 1354BOLB   NC232485  12.720  18.390   0.880
 1354BOLB   PO232486  12.300  18.310   0.940
 1354BOLB   GL332487  12.370  18.040   1.110
 1354BOLB   GL432488  12.730  17.920   1.100
 1354BOLB   C1C32489  12.410  17.850   1.490
 1354BOLB   C2C32490  12.730  17.760   1.720
 1354BOLB   C3C32491  13.170  17.720   1.980
 1354BOLB   C4C32492  13.310  17.520   2.380
 1354BOLB   C1D32493  12.830  18.160   1.480
 1354BOLB   C2D32494  12.870  18.220   1.890
 1354BOLB   C3D32495  13.050  18.160   2.290
 1354BOLB   C4D32496  13.170  18.220   2.690
 1355BOLB   NC132497  18.270  16.070   4.210
 1355BOLB   PO132498  18.080  15.800   4.340
 1355BOLB   GL132499  18.200  15.610   3.920
 1355BOLB   GL232500  18.230  15.870   3.760
 1355BOLB   C1A32501  18.070  15.380   3.670
 1355BOLB   C2A32502  18.180  15.190   3.290
 1355BOLB   C3A32503  18.230  15.230   2.840
 1355BOLB   C4A32504  18.390  15.570   2.520
 1355BOLB   C1B32505  18.380  15.760   3.390
 1355BOLB   C2B32506  18.530  15.570   3.110
 1355BOLB   C3B32507  18.690  15.330   2.870
 1355BOLB   C4B32508  18.950  15.110   2.510
 1355BOLB   NC232509  18.650  14.910   0.360
 1355BOLB   PO232510  19.040  15.000   0.530
 1355BOLB   GL332511  18.820  14.890   0.770
 1355BOLB   GL432512  18.860  14.930   1.060
 1355BOLB   C1C32513  18.500  15.240   0.920
 1355BOLB   C2C32514  18.650  15.320   1.320
 1355BOLB   C3C32515  18.660  15.630   1.710
 1355BOLB   C4C32516  18.440  15.820   2.170
 1355BOLB   C1D32517  18.910  14.930   1.480
 1355BOLB   C2D32518  18.800  14.700   1.830
 1355BOLB   C3D32519  18.660  14.770   2.270
 1355BOLB   C4D32520  18.510  14.870   2.720
 1356BOLB   NC132521  19.170  17.140  19.300
 1356BOLB   PO132522  19.450  16.890  19.290
 1356BOLB   GL132523  19.800  16.880  19.480
 1356BOLB   GL232524  20.030  16.730  19.380
 1356BOLB   C1A32525  20.050  16.940  19.820
 1356BOLB   C2A32526  20.280  17.250  20.070
 1356BOLB   C3A32527  20.610  17.210  20.330
 1356BOLB   C4A32528  20.870  17.090  20.690
 1356BOLB   C1B32529  20.320  16.510  19.680
 1356BOLB   C2B32530  20.520  16.680  20.050
 1356BOLB   C3B32531  20.700  16.650  20.340
 1356BOLB   C4B32532  21.100  16.650  20.520
 1356BOLB   NC232533  23.120  17.600  21.890
 1356BOLB   PO232534  22.880  17.150  21.840
 1356BOLB   GL332535  22.500  17.150  21.700
 1356BOLB   GL432536  22.540  17.450  21.560
 1356BOLB   C1C32537  22.070  17.220  21.620
 1356BOLB   C2C32538  21.900  16.950  21.390
 1356BOLB   C3C32539  21.440  16.890  21.350
 1356BOLB   C4C32540  21.230  16.910  20.970
 1356BOLB   C1D32541  22.400  17.140  21.220
 1356BOLB   C2D32542  22.190  17.000  20.890
 1356BOLB   C3D32543  21.950  16.910  20.480
 1356BOLB   C4D32544  21.840  16.970  20.060
 1357BOLB   NC132545  17.380   9.910   9.180
 1357BOLB   PO132546  17.700   9.710   8.890
 1357BOLB   GL132547  17.820   9.270   8.740
 1357BOLB   GL232548  18.060   9.180   8.680
 1357BOLB   C1A32549  17.680   8.810   8.720
 1357BOLB   C2A32550  17.480   8.400   8.550
 1357BOLB   C3A32551  17.610   7.950   8.520
 1357BOLB   C4A32552  17.720   7.550   8.650
 1357BOLB   C1B32553  18.140   8.720   8.580
 1357BOLB   C2B32554  18.000   8.340   8.460
 1357BOLB   C3B32555  18.000   8.190   8.000
 1357BOLB   C4B32556  18.490   8.140   7.800
 1357BOLB   NC232557  18.370   4.950   9.440
 1357BOLB   PO232558  18.530   5.290   9.070
 1357BOLB   GL332559  18.230   5.610   9.080
 1357BOLB   GL432560  17.970   5.770   8.830
 1357BOLB   C1C32561  18.220   6.030   9.150
 1357BOLB   C2C32562  18.240   6.440   9.040
 1357BOLB   C3C32563  18.030   6.890   9.140
 1357BOLB   C4C32564  17.910   7.250   8.950
 1357BOLB   C1D32565  18.160   6.090   8.640
 1357BOLB   C2D32566  18.110   6.330   8.280
 1357BOLB   C3D32567  17.820   6.760   8.190
 1357BOLB   C4D32568  17.400   6.780   8.090
 1358BOLB   NC132569  10.780  22.150  10.930
 1358BOLB   PO132570  10.520  22.260  11.270
 1358BOLB   GL132571  10.190  22.620  11.230
 1358BOLB   GL232572  10.130  22.930  11.390
 1358BOLB   C1A32573   9.730  22.790  11.100
 1358BOLB   C2A32574   9.400  23.110  11.210
 1358BOLB   C3A32575   8.990  23.360  11.210
 1358BOLB   C4A32576   8.540  23.490  11.140
 1358BOLB   C1B32577   9.960  23.240  11.220
 1358BOLB   C2B32578   9.600  23.560  11.200
 1358BOLB   C3B32579   9.380  23.740  10.970
 1358BOLB   C4B32580   8.980  23.960  10.920
 1358BOLB   NC232581   6.740  25.180  12.190
 1358BOLB   PO232582   7.200  25.210  12.060
 1358BOLB   GL332583   7.520  25.010  11.930
 1358BOLB   GL432584   7.770  25.160  11.950
 1358BOLB   C1C32585   7.700  24.660  11.700
 1358BOLB   C2C32586   7.760  24.580  11.310
 1358BOLB   C3C32587   8.050  24.210  11.130
 1358BOLB   C4C32588   8.240  23.790  11.110
 1358BOLB   C1D32589   8.040  24.920  12.120
 1358BOLB   C2D32590   7.900  24.470  12.140
 1358BOLB   C3D32591   8.060  24.310  11.770
 1358BOLB   C4D32592   8.230  23.960  11.620
 1359BOLB   NC132593  16.990  17.960   4.000
 1359BOLB   PO132594  16.600  17.820   4.050
 1359BOLB   GL132595  16.750  17.540   3.720
 1359BOLB   GL232596  16.940  17.390   3.880
 1359BOLB   C1A32597  16.820  17.700   3.360
 1359BOLB   C2A32598  16.750  17.790   3.020
 1359BOLB   C3A32599  16.600  17.520   2.590
 1359BOLB   C4A32600  16.680  17.150   2.470
 1359BOLB   C1B32601  17.200  17.400   3.440
 1359BOLB   C2B32602  17.480  17.540   3.210
 1359BOLB   C3B32603  17.160  17.850   2.870
 1359BOLB   C4B32604  17.190  18.340   2.810
 1359BOLB   NC232605  17.030  16.220  31.310
 1359BOLB   PO232606  17.120  16.260   0.350
 1359BOLB   GL332607  17.020  16.460   0.730
 1359BOLB   GL432608  16.710  16.490   0.770
 1359BOLB   C1C32609  17.460  16.510   0.990
 1359BOLB   C2C32610  17.390  16.470   1.530
 1359BOLB   C3C32611  17.320  16.740   1.920
 1359BOLB   C4C32612  16.940  16.900   2.280
 1359BOLB   C1D32613  16.730  16.310   1.190
 1359BOLB   C2D32614  16.630  16.340   1.660
 1359BOLB   C3D32615  16.650  16.120   2.090
 1359BOLB   C4D32616  16.590  16.190   2.540
 1360BOLB   NC132617  17.190   9.680   1.660
 1360BOLB   PO132618  17.200  10.080   1.880
 1360BOLB   GL132619  17.310  10.300   2.240
 1360BOLB   GL232620  17.640  10.480   2.280
 1360BOLB   C1A32621  17.150  10.580   2.490
 1360BOLB   C2A32622  17.070  10.910   2.720
 1360BOLB   C3A32623  17.040  11.200   3.030
 1360BOLB   C4A32624  17.250  11.450   3.260
 1360BOLB   C1B32625  17.650  10.820   2.560
 1360BOLB   C2B32626  17.500  11.100   2.890
 1360BOLB   C3B32627  17.600  11.050   3.310
 1360BOLB   C4B32628  17.800  11.210   3.610
 1360BOLB   NC232629  18.500  11.190   1.190
 1360BOLB   PO232630  18.880  11.280   1.250
 1360BOLB   GL332631  18.750  11.480   1.600
 1360BOLB   GL432632  18.760  11.880   1.540
 1360BOLB   C1C32633  18.520  11.680   2.020
 1360BOLB   C2C32634  18.300  11.710   2.380
 1360BOLB   C3C32635  17.970  11.720   2.770
 1360BOLB   C4C32636  17.670  11.590   3.140
 1360BOLB   C1D32637  18.990  11.980   1.930
 1360BOLB   C2D32638  19.120  12.300   2.120
 1360BOLB   C3D32639  18.820  12.720   2.310
 1360BOLB   C4D32640  18.950  13.150   2.100
 1361BOLB   NC132641  11.100  10.250  12.570
 1361BOLB   PO132642  10.700  10.260  12.580
 1361BOLB   GL132643  10.730   9.850  12.590
 1361BOLB   GL232644  10.870   9.790  12.840
 1361BOLB   C1A32645  10.490   9.420  12.770
 1361BOLB   C2A32646  10.330   8.990  12.700
 1361BOLB   C3A32647  10.290   8.570  12.610
 1361BOLB   C4A32648  10.420   8.230  12.770
 1361BOLB   C1B32649  10.960   9.340  12.860
 1361BOLB   C2B32650  10.810   8.930  12.820
 1361BOLB   C3B32651  10.590   8.630  13.000
 1361BOLB   C4B32652  10.190   8.570  13.160
 1361BOLB   NC232653  10.150   5.630  13.290
 1361BOLB   PO232654   9.940   5.920  12.950
 1361BOLB   GL332655   9.890   6.490  12.880
 1361BOLB   GL432656   9.540   6.590  12.820
 1361BOLB   C1C32657  10.120   6.790  12.780
 1361BOLB   C2C32658  10.320   7.030  13.100
 1361BOLB   C3C32659  10.330   7.520  13.170
 1361BOLB   C4C32660  10.360   8.020  13.110
 1361BOLB   C1D32661   9.600   6.880  13.130
 1361BOLB   C2D32662   9.770   7.030  13.540
 1361BOLB   C3D32663  10.040   7.140  13.730
 1361BOLB   C4D32664  10.220   7.430  13.950
 1362BOLB   NC132665  16.110  22.420  19.340
 1362BOLB   PO132666  16.030  22.180  19.700
 1362BOLB   GL132667  15.960  22.260  20.150
 1362BOLB   GL232668  15.650  22.400  20.230
 1362BOLB   C1A32669  16.220  22.140  20.550
 1362BOLB   C2A32670  16.680  22.280  20.740
 1362BOLB   C3A32671  17.010  22.280  21.000
 1362BOLB   C4A32672  17.310  22.010  21.290
 1362BOLB   C1B32673  15.860  22.550  20.590
 1362BOLB   C2B32674  15.620  22.730  21.050
 1362BOLB   C3B32675  15.670  22.680  21.460
 1362BOLB   C4B32676  15.660  22.630  21.920
 1362BOLB   NC232677  18.530  23.630  22.860
 1362BOLB   PO232678  18.720  23.230  22.990
 1362BOLB   GL332679  18.530  22.830  22.800
 1362BOLB   GL432680  18.480  23.150  22.560
 1362BOLB   C1C32681  18.260  22.640  22.450
 1362BOLB   C2C32682  18.080  22.400  22.090
 1362BOLB   C3C32683  17.780  22.130  21.920
 1362BOLB   C4C32684  17.670  22.150  21.410
 1362BOLB   C1D32685  18.680  22.830  22.260
 1362BOLB   C2D32686  18.590  22.400  22.070
 1362BOLB   C3D32687  18.580  22.290  21.630
 1362BOLB   C4D32688  18.640  22.320  21.160
 1363BOLB   NC132689  13.270  15.530   4.730
 1363BOLB   PO132690  12.900  15.600   4.580
 1363BOLB   GL132691  12.620  15.470   4.220
 1363BOLB   GL232692  12.450  15.680   4.100
 1363BOLB   C1A32693  12.540  15.410   3.750
 1363BOLB   C2A32694  12.180  15.370   3.520
 1363BOLB   C3A32695  11.920  15.350   3.160
 1363BOLB   C4A32696  11.840  15.280   2.750
 1363BOLB   C1B32697  12.150  15.810   3.750
 1363BOLB   C2B32698  12.010  15.810   3.330
 1363BOLB   C3B32699  11.860  15.880   2.880
 1363BOLB   C4B32700  11.510  16.010   2.550
 1363BOLB   NC232701  12.390  15.780   0.530
 1363BOLB   PO232702  12.630  15.420   0.580
 1363BOLB   GL332703  12.620  15.530   0.990
 1363BOLB   GL432704  12.830  15.760   0.980
 1363BOLB   C1C32705  12.670  15.360   1.400
 1363BOLB   C2C32706  12.630  15.430   1.810
 1363BOLB   C3C32707  12.340  15.270   2.090
 1363BOLB   C4C32708  12.060  15.220   2.340
 1363BOLB   C1D32709  12.750  16.170   1.170
 1363BOLB   C2D32710  13.020  16.370   1.570
 1363BOLB   C3D32711  13.120  16.850   1.700
 1363BOLB   C4D32712  12.970  17.300   1.680
 1364BOLB   NC132713  15.200  10.790   6.300
 1364BOLB   PO132714  15.260  10.450   6.690
 1364BOLB   GL132715  15.420  10.220   6.300
 1364BOLB   GL232716  15.470  10.410   6.050
 1364BOLB   C1A32717  15.370   9.870   6.070
 1364BOLB   C2A32718  15.350   9.620   5.740
 1364BOLB   C3A32719  15.260   9.470   5.230
 1364BOLB   C4A32720  15.370   9.070   5.060
 1364BOLB   C1B32721  15.580  10.200   5.820
 1364BOLB   C2B32722  15.670   9.910   5.500
 1364BOLB   C3B32723  15.880   9.760   5.210
 1364BOLB   C4B32724  15.630   9.510   4.890
 1364BOLB   NC232725  14.550   7.280   3.750
 1364BOLB   PO232726  14.760   7.700   3.710
 1364BOLB   GL332727  14.970   7.740   4.100
 1364BOLB   GL432728  14.830   8.020   4.230
 1364BOLB   C1C32729  15.330   7.780   4.250
 1364BOLB   C2C32730  15.630   7.900   4.430
 1364BOLB   C3C32731  15.800   8.310   4.630
 1364BOLB   C4C32732  15.600   8.700   5.000
 1364BOLB   C1D32733  15.050   7.940   4.640
 1364BOLB   C2D32734  15.320   8.100   4.890
 1364BOLB   C3D32735  15.220   8.470   5.220
 1364BOLB   C4D32736  14.930   8.810   5.250
 1365BOLB   NC132737  23.190  16.380  14.120
 1365BOLB   PO132738  23.590  16.280  14.230
 1365BOLB   GL132739  23.960  16.130  14.440
 1365BOLB   GL232740  24.190  15.840  14.290
 1365BOLB   C1A32741  24.230  15.870  14.810
 1365BOLB   C2A32742  24.570  16.070  14.850
 1365BOLB   C3A32743  24.980  16.150  14.600
 1365BOLB   C4A32744  25.410  16.290  14.510
 1365BOLB   C1B32745  24.580  16.170  14.310
 1365BOLB   C2B32746  24.550  16.500  14.580
 1365BOLB   C3B32747  24.750  16.570  15.020
 1365BOLB   C4B32748  25.040  16.800  15.260
 1365BOLB   NC232749  27.800  16.290  14.400
 1365BOLB   PO232750  27.800  15.870  14.320
 1365BOLB   GL332751  27.450  16.090  14.070
 1365BOLB   GL432752  27.320  15.960  13.750
 1365BOLB   C1C32753  26.990  16.040  14.210
 1365BOLB   C2C32754  26.560  16.040  14.400
 1365BOLB   C3C32755  26.290  16.180  14.340
 1365BOLB   C4C32756  25.820  16.160  14.360
 1365BOLB   C1D32757  26.870  16.090  13.600
 1365BOLB   C2D32758  26.400  15.940  13.470
 1365BOLB   C3D32759  26.090  15.630  13.570
 1365BOLB   C4D32760  25.840  15.260  13.760
 1366BOLB   NC132761  21.070  19.410   5.820
 1366BOLB   PO132762  20.820  19.030   5.650
 1366BOLB   GL132763  21.040  19.310   5.310
 1366BOLB   GL232764  21.310  19.190   5.180
 1366BOLB   C1A32765  20.900  19.640   5.040
 1366BOLB   C2A32766  21.070  20.020   4.870
 1366BOLB   C3A32767  21.260  20.190   4.620
 1366BOLB   C4A32768  21.310  20.330   4.160
 1366BOLB   C1B32769  21.470  19.520   4.800
 1366BOLB   C2B32770  21.730  19.690   4.390
 1366BOLB   C3B32771  22.100  19.570   4.260
 1366BOLB   C4B32772  22.530  19.440   4.020
 1366BOLB   NC232773  23.480  21.410   3.040
 1366BOLB   PO232774  23.380  20.890   2.990
 1366BOLB   GL332775  22.940  20.910   3.130
 1366BOLB   GL432776  22.910  20.960   3.370
 1366BOLB   C1C32777  22.540  20.630   3.120
 1366BOLB   C2C32778  22.190  20.490   3.350
 1366BOLB   C3C32779  21.940  20.460   3.710
 1366BOLB   C4C32780  21.540  20.400   3.750
 1366BOLB   C1D32781  22.670  20.810   3.610
 1366BOLB   C2D32782  22.350  20.730   3.820
 1366BOLB   C3D32783  22.140  20.860   4.080
 1366BOLB   C4D32784  22.120  21.350   4.170
 1367BOLB   NC132785  20.660  17.120   5.800
 1367BOLB   PO132786  20.650  16.810   5.550
 1367BOLB   GL132787  20.900  16.780   5.240
 1367BOLB   GL232788  21.150  17.000   5.150
 1367BOLB   C1A32789  21.240  16.600   4.900
 1367BOLB   C2A32790  21.320  16.640   4.500
 1367BOLB   C3A32791  21.370  16.720   4.160
 1367BOLB   C4A32792  21.580  16.910   3.670
 1367BOLB   C1B32793  21.510  17.070   4.790
 1367BOLB   C2B32794  21.620  17.150   4.350
 1367BOLB   C3B32795  21.640  17.440   3.950
 1367BOLB   C4B32796  21.930  17.540   3.580
 1367BOLB   NC232797  22.460  17.230   1.420
 1367BOLB   PO232798  22.680  17.590   1.670
 1367BOLB   GL332799  22.540  17.340   2.010
 1367BOLB   GL432800  22.870  17.320   2.210
 1367BOLB   C1C32801  22.410  17.210   2.400
 1367BOLB   C2C32802  22.180  17.320   2.730
 1367BOLB   C3C32803  22.050  17.270   3.090
 1367BOLB   C4C32804  21.910  16.970   3.430
 1367BOLB   C1D32805  22.820  17.230   2.640
 1367BOLB   C2D32806  22.660  17.230   3.040
 1367BOLB   C3D32807  22.440  17.250   3.470
 1367BOLB   C4D32808  22.390  17.540   3.780
 1368BOLB   NC132809  23.480   7.760  14.160
 1368BOLB   PO132810  23.290   7.810  14.610
 1368BOLB   GL132811  23.050   8.090  14.330
 1368BOLB   GL232812  23.170   8.250  14.210
 1368BOLB   C1A32813  22.650   8.010  14.100
 1368BOLB   C2A32814  22.480   8.360  13.870
 1368BOLB   C3A32815  22.360   8.660  13.530
 1368BOLB   C4A32816  22.030   8.830  13.270
 1368BOLB   C1B32817  22.820   8.490  14.300
 1368BOLB   C2B32818  22.710   8.800  14.570
 1368BOLB   C3B32819  22.750   9.200  14.750
 1368BOLB   C4B32820  22.450   9.560  14.890
 1368BOLB   NC232821  19.560   9.850  12.060
 1368BOLB   PO232822  19.800   9.630  11.840
 1368BOLB   GL332823  20.210   9.420  11.940
 1368BOLB   GL432824  20.460   9.460  11.630
 1368BOLB   C1C32825  20.690   9.310  12.010
 1368BOLB   C2C32826  21.020   9.300  12.370
 1368BOLB   C3C32827  21.430   9.040  12.690
 1368BOLB   C4C32828  21.830   8.920  12.880
 1368BOLB   C1D32829  20.650   9.120  11.520
 1368BOLB   C2D32830  20.870   8.840  11.660
 1368BOLB   C3D32831  21.150   8.550  11.740
 1368BOLB   C4D32832  21.580   8.400  11.620
 1369BOLB   NC132833  11.350  19.940   7.570
 1369BOLB   PO132834  11.350  19.600   7.260
 1369BOLB   GL132835  11.080  19.730   6.940
 1369BOLB   GL232836  11.010  19.630   6.500
 1369BOLB   C1A32837  10.910  20.080   6.730
 1369BOLB   C2A32838  10.840  20.330   6.450
 1369BOLB   C3A32839  10.710  20.570   6.130
 1369BOLB   C4A32840  10.470  20.870   6.050
 1369BOLB   C1B32841  10.910  19.920   6.220
 1369BOLB   C2B32842  10.830  20.120   5.900
 1369BOLB   C3B32843  10.870  20.400   5.590
 1369BOLB   C4B32844  10.740  20.870   5.630
 1369BOLB   NC232845   8.290  20.930   4.360
 1369BOLB   PO232846   8.480  21.320   4.480
 1369BOLB   GL332847   8.860  21.070   4.770
 1369BOLB   GL432848   9.070  21.190   5.060
 1369BOLB   C1C32849   9.320  20.940   4.750
 1369BOLB   C2C32850   9.670  21.160   4.990
 1369BOLB   C3C32851  10.100  21.110   5.240
 1369BOLB   C4C32852  10.190  20.970   5.670
 1369BOLB   C1D32853   9.210  20.890   5.400
 1369BOLB   C2D32854   9.550  20.860   5.810
 1369BOLB   C3D32855   9.920  20.520   5.820
 1369BOLB   C4D32856   9.900  20.070   5.760
 1370BOLB   NC132857  11.610  12.670   6.640
 1370BOLB   PO132858  11.900  12.880   6.410
 1370BOLB   GL132859  11.660  12.620   6.130
 1370BOLB   GL232860  11.420  12.810   5.970
 1370BOLB   C1A32861  11.230  12.340   6.080
 1370BOLB   C2A32862  11.040  11.930   6.080
 1370BOLB   C3A32863  10.760  11.700   5.740
 1370BOLB   C4A32864  10.550  11.580   5.390
 1370BOLB   C1B32865  11.050  12.860   5.730
 1370BOLB   C2B32866  10.740  12.750   5.530
 1370BOLB   C3B32867  10.620  12.540   5.130
 1370BOLB   C4B32868  10.330  12.530   4.690
 1370BOLB   NC232869   8.610   9.800   5.090
 1370BOLB   PO232870   9.060   9.690   5.060
 1370BOLB   GL332871   9.320   9.910   5.290
 1370BOLB   GL432872   9.280   9.740   5.550
 1370BOLB   C1C32873   9.390  10.300   5.440
 1370BOLB   C2C32874   9.730  10.610   5.720
 1370BOLB   C3C32875  10.030  10.890   5.610
 1370BOLB   C4C32876  10.250  11.210   5.440
 1370BOLB   C1D32877   9.660   9.800   5.770
 1370BOLB   C2D32878   9.710  10.050   6.000
 1370BOLB   C3D32879   9.710  10.420   6.210
 1370BOLB   C4D32880   9.470  10.730   6.200
 1371BOLB   NC132881  16.910   9.890  16.350
 1371BOLB   PO132882  16.760   9.580  16.140
 1371BOLB   GL132883  16.920   9.160  15.960
 1371BOLB   GL232884  16.680   9.030  15.770
 1371BOLB   C1A32885  17.160   8.870  16.130
 1371BOLB   C2A32886  17.280   8.630  16.560
 1371BOLB   C3A32887  17.520   8.340  16.860
 1371BOLB   C4A32888  17.520   7.940  16.990
 1371BOLB   C1B32889  16.710   8.580  15.980
 1371BOLB   C2B32890  16.780   8.440  16.410
 1371BOLB   C3B32891  16.650   8.080  16.490
 1371BOLB   C4B32892  16.670   7.730  16.260
 1371BOLB   NC232893  16.950   6.140  18.040
 1371BOLB   PO232894  17.160   6.080  17.580
 1371BOLB   GL332895  17.150   6.520  17.770
 1371BOLB   GL432896  17.470   6.560  17.610
 1371BOLB   C1C32897  17.000   6.970  17.900
 1371BOLB   C2C32898  16.970   7.270  17.700
 1371BOLB   C3C32899  17.120   7.620  17.560
 1371BOLB   C4C32900  17.190   7.830  17.240
 1371BOLB   C1D32901  17.120   6.810  17.380
 1371BOLB   C2D32902  16.950   7.220  17.140
 1371BOLB   C3D32903  16.680   7.560  17.330
 1371BOLB   C4D32904  16.170   7.640  17.200
 1372BOLB   NC132905  14.930  12.040   5.940
 1372BOLB   PO132906  15.140  11.760   5.540
 1372BOLB   GL132907  14.930  11.660   5.120
 1372BOLB   GL232908  15.150  11.880   4.980
 1372BOLB   C1A32909  14.750  11.660   4.750
 1372BOLB   C2A32910  14.900  11.440   4.400
 1372BOLB   C3A32911  14.940  11.410   3.890
 1372BOLB   C4A32912  14.860  11.330   3.470
 1372BOLB   C1B32913  15.250  11.760   4.510
 1372BOLB   C2B32914  15.340  11.630   4.180
 1372BOLB   C3B32915  15.420  11.570   3.780
 1372BOLB   C4B32916  15.560  11.690   3.500
 1372BOLB   NC232917  13.910  10.560   1.390
 1372BOLB   PO232918  13.560  10.380   1.560
 1372BOLB   GL332919  13.680  10.630   1.900
 1372BOLB   GL432920  14.050  10.690   1.800
 1372BOLB   C1C32921  13.780  10.740   2.360
 1372BOLB   C2C32922  14.020  10.750   2.660
 1372BOLB   C3C32923  14.270  10.820   3.060
 1372BOLB   C4C32924  14.500  11.150   3.240
 1372BOLB   C1D32925  14.180  10.930   2.110
 1372BOLB   C2D32926  14.120  11.190   2.440
 1372BOLB   C3D32927  14.070  11.270   2.760
 1372BOLB   C4D32928  14.180  11.610   3.120
 1373BOLB   NC132929  10.410  15.750   6.590
 1373BOLB   PO132930  10.300  15.670   7.090
 1373BOLB   GL132931   9.960  15.850   6.760
 1373BOLB   GL232932   9.600  15.860   6.860
 1373BOLB   C1A32933   9.770  15.790   6.390
 1373BOLB   C2A32934   9.720  15.830   6.010
 1373BOLB   C3A32935   9.510  15.630   5.630
 1373BOLB   C4A32936   9.400  15.670   5.220
 1373BOLB   C1B32937   9.300  15.880   6.510
 1373BOLB   C2B32938   9.240  15.760   6.020
 1373BOLB   C3B32939   9.040  15.450   5.760
 1373BOLB   C4B32940   8.820  15.010   5.970
 1373BOLB   NC232941   8.180  16.630   2.710
 1373BOLB   PO232942   8.440  16.710   3.010
 1373BOLB   GL332943   8.670  16.470   3.330
 1373BOLB   GL432944   8.850  16.160   3.240
 1373BOLB   C1C32945   8.930  16.480   3.700
 1373BOLB   C2C32946   9.140  16.280   4.150
 1373BOLB   C3C32947   9.340  16.040   4.380
 1373BOLB   C4C32948   9.210  15.760   4.800
 1373BOLB   C1D32949   9.000  15.940   3.610
 1373BOLB   C2D32950   9.340  15.840   3.850
 1373BOLB   C3D32951   9.390  15.530   4.150
 1373BOLB   C4D32952   9.440  15.400   4.560
 1374BOLB   NC132953  20.590  23.730  16.480
 1374BOLB   PO132954  20.680  23.700  16.030
 1374BOLB   GL132955  20.980  23.760  16.160
 1374BOLB   GL232956  21.230  23.610  16.100
 1374BOLB   C1A32957  21.210  23.980  16.500
 1374BOLB   C2A32958  21.560  23.860  16.790
 1374BOLB   C3A32959  21.650  24.000  17.200
 1374BOLB   C4A32960  21.620  24.160  17.650
 1374BOLB   C1B32961  21.500  23.900  16.080
 1374BOLB   C2B32962  21.940  23.960  15.970
 1374BOLB   C3B32963  22.240  24.110  16.180
 1374BOLB   C4B32964  22.540  24.130  16.540
 1374BOLB   NC232965  23.450  24.180  20.080
 1374BOLB   PO232966  23.280  24.310  19.610
 1374BOLB   GL332967  22.990  24.270  19.400
 1374BOLB   GL432968  22.920  23.980  19.490
 1374BOLB   C1C32969  22.750  24.170  19.040
 1374BOLB   C2C32970  22.540  24.180  18.620
 1374BOLB   C3C32971  22.300  24.060  18.250
 1374BOLB   C4C32972  22.010  24.050  17.940
 1374BOLB   C1D32973  22.680  23.560  19.470
 1374BOLB   C2D32974  22.470  23.210  19.360
 1374BOLB   C3D32975  22.060  22.960  19.520
 1374BOLB   C4D32976  21.660  23.030  19.510
 1375BOLB   NC132977  10.240  12.180   8.740
 1375BOLB   PO132978  10.090  12.470   8.400
 1375BOLB   GL132979   9.860  12.390   8.040
 1375BOLB   GL232980   9.790  12.070   7.980
 1375BOLB   C1A32981   9.620  12.330   7.640
 1375BOLB   C2A32982   9.420  12.290   7.320
 1375BOLB   C3A32983   9.190  12.100   6.910
 1375BOLB   C4A32984   9.090  11.760   6.540
 1375BOLB   C1B32985   9.540  11.840   7.760
 1375BOLB   C2B32986   9.250  11.550   7.600
 1375BOLB   C3B32987   8.800  11.450   7.480
 1375BOLB   C4B32988   8.490  11.830   7.410
 1375BOLB   NC232989   7.320   9.760   6.750
 1375BOLB   PO232990   7.370  10.170   6.620
 1375BOLB   GL332991   7.890  10.200   6.730
 1375BOLB   GL432992   7.790  10.550   6.580
 1375BOLB   C1C32993   8.250  10.370   6.820
 1375BOLB   C2C32994   8.230  10.760   6.750
 1375BOLB   C3C32995   8.440  11.140   6.700
 1375BOLB   C4C32996   8.820  11.390   6.470
 1375BOLB   C1D32997   7.730  10.790   6.950
 1375BOLB   C2D32998   7.820  10.870   7.400
 1375BOLB   C3D32999   7.610  11.010   7.710
 1375BOLB   C4D33000   7.240  10.800   7.900
 1376BOLB   NC133001  21.650  16.780  17.780
 1376BOLB   PO133002  21.280  16.740  18.030
 1376BOLB   GL133003  21.440  16.730  18.470
 1376BOLB   GL233004  21.680  16.590  18.580
 1376BOLB   C1A33005  21.420  16.770  18.970
 1376BOLB   C2A33006  21.610  16.710  19.360
 1376BOLB   C3A33007  21.550  16.650  19.850
 1376BOLB   C4A33008  21.450  16.490  20.210
 1376BOLB   C1B33009  21.950  16.680  18.900
 1376BOLB   C2B33010  22.080  16.760  19.270
 1376BOLB   C3B33011  22.160  16.780  19.670
 1376BOLB   C4B33012  22.350  17.000  20.120
 1376BOLB   NC233013  22.410  16.850  22.640
 1376BOLB   PO233014  22.760  16.620  22.400
 1376BOLB   GL333015  22.370  16.720  22.010
 1376BOLB   GL433016  22.060  16.900  21.970
 1376BOLB   C1C33017  22.410  16.610  21.610
 1376BOLB   C2C33018  22.270  16.600  21.210
 1376BOLB   C3C33019  21.890  16.620  20.950
 1376BOLB   C4C33020  21.740  16.440  20.550
 1376BOLB   C1D33021  21.600  17.090  21.800
 1376BOLB   C2D33022  21.560  17.400  21.600
 1376BOLB   C3D33023  21.340  17.370  21.230
 1376BOLB   C4D33024  21.300  17.490  20.840
 1377BOLB   NC133025  13.500  20.060   6.310
 1377BOLB   PO133026  13.120  20.210   6.430
 1377BOLB   GL133027  12.700  20.310   6.170
 1377BOLB   GL233028  12.630  20.720   6.000
 1377BOLB   C1A33029  12.310  20.310   5.940
 1377BOLB   C2A33030  12.040  20.570   5.660
 1377BOLB   C3A33031  11.590  20.720   5.570
 1377BOLB   C4A33032  11.200  20.720   5.400
 1377BOLB   C1B33033  12.640  20.640   5.600
 1377BOLB   C2B33034  12.440  20.740   5.220
 1377BOLB   C3B33035  12.470  21.060   4.880
 1377BOLB   C4B33036  12.340  21.290   4.630
 1377BOLB   NC233037  10.150  21.500   3.270
 1377BOLB   PO233038   9.780  21.230   3.350
 1377BOLB   GL333039  10.150  21.200   3.680
 1377BOLB   GL433040  10.370  21.100   3.440
 1377BOLB   C1C33041  10.360  21.000   4.020
 1377BOLB   C2C33042  10.380  20.880   4.420
 1377BOLB   C3C33043  10.750  20.800   4.710
 1377BOLB   C4C33044  10.900  20.660   5.100
 1377BOLB   C1D33045  10.650  20.790   3.480
 1377BOLB   C2D33046  10.760  20.480   3.740
 1377BOLB   C3D33047  10.690  20.070   3.950
 1377BOLB   C4D33048  10.880  19.850   4.200
 1378BOLB   NC133049  22.380  13.060   9.360
 1378BOLB   PO133050  22.550  13.010   8.880
 1378BOLB   GL133051  22.890  12.900   8.630
 1378BOLB   GL233052  22.850  12.600   8.710
 1378BOLB   C1A33053  23.320  13.130   8.650
 1378BOLB   C2A33054  23.730  13.210   8.380
 1378BOLB   C3A33055  23.960  13.160   8.040
 1378BOLB   C4A33056  24.380  12.920   8.030
 1378BOLB   C1B33057  23.140  12.380   8.440
 1378BOLB   C2B33058  23.250  11.980   8.400
 1378BOLB   C3B33059  23.170  11.550   8.330
 1378BOLB   C4B33060  22.850  11.380   8.030
 1378BOLB   NC233061  26.290  11.960   7.150
 1378BOLB   PO233062  26.260  12.320   6.840
 1378BOLB   GL333063  26.140  12.440   7.170
 1378BOLB   GL433064  25.980  12.240   7.400
 1378BOLB   C1C33065  25.680  12.670   7.180
 1378BOLB   C2C33066  25.400  13.000   7.380
 1378BOLB   C3C33067  25.060  13.040   7.640
 1378BOLB   C4C33068  24.720  13.050   8.010
 1378BOLB   C1D33069  25.590  12.370   7.560
 1378BOLB   C2D33070  25.360  12.530   7.850
 1378BOLB   C3D33071  25.110  12.830   8.210
 1378BOLB   C4D33072  24.720  12.840   8.500
 1379BOLB   NC133073  19.010  18.710   4.950
 1379BOLB   PO133074  18.470  18.800   4.910
 1379BOLB   GL133075  18.390  19.090   4.510
 1379BOLB   GL233076  18.060  18.960   4.300
 1379BOLB   C1A33077  18.650  19.320   4.200
 1379BOLB   C2A33078  18.810  19.600   3.890
 1379BOLB   C3A33079  18.730  19.930   3.620
 1379BOLB   C4A33080  18.640  20.160   3.250
 1379BOLB   C1B33081  18.450  18.810   4.100
 1379BOLB   C2B33082  18.660  19.030   3.680
 1379BOLB   C3B33083  18.710  19.350   3.310
 1379BOLB   C4B33084  18.410  19.670   3.140
 1379BOLB   NC233085  18.130  19.670   0.920
 1379BOLB   PO233086  18.140  20.190   0.920
 1379BOLB   GL333087  18.050  20.310   1.360
 1379BOLB   GL433088  17.720  20.270   1.440
 1379BOLB   C1C33089  18.130  20.470   1.770
 1379BOLB   C2C33090  18.080  20.410   2.240
 1379BOLB   C3C33091  18.360  20.270   2.540
 1379BOLB   C4C33092  18.440  20.240   2.970
 1379BOLB   C1D33093  17.610  20.460   1.960
 1379BOLB   C2D33094  17.520  20.680   2.310
 1379BOLB   C3D33095  17.230  21.010   2.470
 1379BOLB   C4D33096  17.170  21.500   2.620
 1380BOLB   NC133097  23.440  17.760  12.670
 1380BOLB   PO133098  23.890  17.550  12.780
 1380BOLB   GL133099  24.240  17.420  12.900
 1380BOLB   GL233100  24.480  17.370  12.610
 1380BOLB   C1A33101  24.720  17.510  12.970
 1380BOLB   C2A33102  25.090  17.630  12.930
 1380BOLB   C3A33103  25.390  17.830  12.610
 1380BOLB   C4A33104  25.770  17.990  12.440
 1380BOLB   C1B33105  24.790  16.970  12.480
 1380BOLB   C2B33106  25.210  16.760  12.600
 1380BOLB   C3B33107  25.590  16.800  12.930
 1380BOLB   C4B33108  25.910  16.470  12.840
 1380BOLB   NC233109  27.830  18.640  13.910
 1380BOLB   PO233110  27.910  18.560  13.450
 1380BOLB   GL333111  27.640  18.440  13.210
 1380BOLB   GL433112  27.600  18.110  13.110
 1380BOLB   C1C33113  27.260  18.570  13.140
 1380BOLB   C2C33114  26.890  18.570  13.030
 1380BOLB   C3C33115  26.440  18.450  12.900
 1380BOLB   C4C33116  26.150  18.220  12.590
 1380BOLB   C1D33117  27.170  18.150  12.870
 1380BOLB   C2D33118  26.810  18.260  12.600
 1380BOLB   C3D33119  26.500  18.500  12.400
 1380BOLB   C4D33120  26.150  18.890  12.350
 1381BOLB   NC133121  19.110  24.850  12.550
 1381BOLB   PO133122  19.200  24.700  12.950
 1381BOLB   GL133123  19.110  25.200  12.950
 1381BOLB   GL233124  19.360  25.500  12.860
 1381BOLB   C1A33125  19.050  25.740  13.150
 1381BOLB   C2A33126  19.160  26.230  13.280
 1381BOLB   C3A33127  19.270  26.630  13.530
 1381BOLB   C4A33128  19.380  26.960  13.650
 1381BOLB   C1B33129  19.560  25.890  13.080
 1381BOLB   C2B33130  19.580  26.270  13.010
 1381BOLB   C3B33131  19.360  26.680  13.060
 1381BOLB   C4B33132  19.080  26.820  12.810
 1381BOLB   NC233133  21.210  28.590  13.840
 1381BOLB   PO233134  20.750  28.710  13.710
 1381BOLB   GL333135  20.820  28.300  13.650
 1381BOLB   GL433136  20.810  28.210  13.990
 1381BOLB   C1C33137  20.530  28.010  13.580
 1381BOLB   C2C33138  20.220  27.820  13.680
 1381BOLB   C3C33139  20.110  27.390  13.650
 1381BOLB   C4C33140  19.750  27.070  13.610
 1381BOLB   C1D33141  20.500  28.020  14.110
 1381BOLB   C2D33142  20.230  27.900  14.450
 1381BOLB   C3D33143  20.120  27.760  14.810
 1381BOLB   C4D33144  19.810  27.550  14.970
 1382BOLB   NC133145  19.450  24.020  16.770
 1382BOLB   PO133146  19.640  23.830  17.100
 1382BOLB   GL133147  19.880  24.210  17.120
 1382BOLB   GL233148  20.100  24.190  17.240
 1382BOLB   C1A33149  19.850  24.670  17.170
 1382BOLB   C2A33150  20.010  24.980  17.290
 1382BOLB   C3A33151  20.310  25.260  17.390
 1382BOLB   C4A33152  20.710  25.380  17.280
 1382BOLB   C1B33153  20.400  24.490  17.470
 1382BOLB   C2B33154  20.460  24.800  17.650
 1382BOLB   C3B33155  20.110  25.000  17.810
 1382BOLB   C4B33156  20.050  25.390  18.020
 1382BOLB   NC233157  22.030  26.810  18.230
 1382BOLB   PO233158  21.780  27.090  17.930
 1382BOLB   GL333159  21.580  26.870  18.250
 1382BOLB   GL433160  21.350  26.880  18.520
 1382BOLB   C1C33161  21.400  26.490  18.280
 1382BOLB   C2C33162  21.160  26.160  18.240
 1382BOLB   C3C33163  20.960  26.010  17.840
 1382BOLB   C4C33164  20.880  25.620  17.580
 1382BOLB   C1D33165  20.980  26.790  18.140
 1382BOLB   C2D33166  20.910  26.610  17.670
 1382BOLB   C3D33167  20.960  26.320  17.300
 1382BOLB   C4D33168  21.080  25.920  17.230
 1383BOLB   NC133169  11.540  20.380   7.770
 1383BOLB   PO133170  11.490  20.410   7.380
 1383BOLB   GL133171  11.340  20.630   7.020
 1383BOLB   GL233172  11.370  20.910   6.930
 1383BOLB   C1A33173  11.000  20.620   6.790
 1383BOLB   C2A33174  10.680  20.810   6.690
 1383BOLB   C3A33175  10.500  21.170   6.510
 1383BOLB   C4A33176  10.470  21.590   6.630
 1383BOLB   C1B33177  10.950  21.100   6.930
 1383BOLB   C2B33178  10.900  21.410   6.710
 1383BOLB   C3B33179  10.890  21.660   6.380
 1383BOLB   C4B33180  10.600  21.790   6.050
 1383BOLB   NC233181   9.330  23.510   5.530
 1383BOLB   PO233182   9.570  23.410   5.070
 1383BOLB   GL333183   9.650  23.090   5.450
 1383BOLB   GL433184   9.610  22.760   5.390
 1383BOLB   C1C33185   9.750  22.900   5.830
 1383BOLB   C2C33186  10.170  22.690   5.850
 1383BOLB   C3C33187  10.390  22.320   6.160
 1383BOLB   C4C33188  10.440  21.980   6.540
 1383BOLB   C1D33189   9.730  22.370   5.760
 1383BOLB   C2D33190   9.900  22.390   6.150
 1383BOLB   C3D33191   9.990  22.210   6.550
 1383BOLB   C4D33192  10.030  22.270   6.980
 1384BOLB   NC133193  20.280  10.930   9.820
 1384BOLB   PO133194  20.420  10.510   9.990
 1384BOLB   GL133195  20.640  10.170   9.890
 1384BOLB   GL233196  20.380   9.980   9.610
 1384BOLB   C1A33197  20.910   9.850  10.100
 1384BOLB   C2A33198  21.250   9.660  10.250
 1384BOLB   C3A33199  21.510   9.370  10.340
 1384BOLB   C4A33200  21.490   8.920  10.220
 1384BOLB   C1B33201  20.660   9.660   9.650
 1384BOLB   C2B33202  20.870   9.330   9.750
 1384BOLB   C3B33203  21.350   9.180   9.790
 1384BOLB   C4B33204  21.800   9.220   9.910
 1384BOLB   NC233205  22.120   6.170   9.520
 1384BOLB   PO233206  21.880   6.440   9.660
 1384BOLB   GL333207  21.710   6.770   9.840
 1384BOLB   GL433208  21.710   6.910   9.560
 1384BOLB   C1C33209  21.530   7.180   9.960
 1384BOLB   C2C33210  21.600   7.610  10.020
 1384BOLB   C3C33211  21.500   8.080  10.020
 1384BOLB   C4C33212  21.430   8.540  10.200
 1384BOLB   C1D33213  21.740   7.420   9.530
 1384BOLB   C2D33214  21.730   7.850   9.560
 1384BOLB   C3D33215  21.620   8.340   9.550
 1384BOLB   C4D33216  21.620   8.780   9.690
 1385BOLB   NC133217  11.050  19.030   8.060
 1385BOLB   PO133218  10.610  18.890   7.900
 1385BOLB   GL133219  10.340  18.920   7.500
 1385BOLB   GL233220  10.410  19.040   7.290
 1385BOLB   C1A33221   9.930  19.080   7.380
 1385BOLB   C2A33222   9.570  19.290   7.240
 1385BOLB   C3A33223   9.210  19.480   7.100
 1385BOLB   C4A33224   8.840  19.400   7.100
 1385BOLB   C1B33225  10.150  19.470   7.140
 1385BOLB   C2B33226  10.060  19.810   6.980
 1385BOLB   C3B33227   9.970  20.220   6.780
 1385BOLB   C4B33228   9.730  20.460   6.690
 1385BOLB   NC233229   6.400  18.970   5.420
 1385BOLB   PO233230   6.690  19.410   5.470
 1385BOLB   GL333231   7.090  19.380   5.800
 1385BOLB   GL433232   7.330  19.170   5.700
 1385BOLB   C1C33233   7.260  19.250   6.170
 1385BOLB   C2C33234   7.650  19.260   6.480
 1385BOLB   C3C33235   8.000  19.120   6.860
 1385BOLB   C4C33236   8.420  19.250   7.180
 1385BOLB   C1D33237   7.420  18.810   5.930
 1385BOLB   C2D33238   7.450  18.830   6.450
 1385BOLB   C3D33239   7.730  18.700   6.850
 1385BOLB   C4D33240   7.960  18.380   7.110
 1386BOLB   NC133241  14.660  21.130   6.780
 1386BOLB   PO133242  14.600  21.370   6.480
 1386BOLB   GL133243  14.620  21.780   6.240
 1386BOLB   GL233244  14.490  21.710   6.030
 1386BOLB   C1A33245  14.460  22.160   6.240
 1386BOLB   C2A33246  14.350  22.500   6.040
 1386BOLB   C3A33247  14.330  22.840   5.710
 1386BOLB   C4A33248  14.510  22.710   5.280
 1386BOLB   C1B33249  14.270  22.070   5.790
 1386BOLB   C2B33250  14.170  22.250   5.440
 1386BOLB   C3B33251  14.190  22.310   5.050
 1386BOLB   C4B33252  14.220  22.220   4.590
 1386BOLB   NC233253  14.620  24.320   3.940
 1386BOLB   PO233254  14.270  24.040   3.920
 1386BOLB   GL333255  14.610  23.820   4.020
 1386BOLB   GL433256  14.530  23.890   4.310
 1386BOLB   C1C33257  14.570  23.400   3.950
 1386BOLB   C2C33258  14.600  22.980   4.110
 1386BOLB   C3C33259  14.770  23.040   4.490
 1386BOLB   C4C33260  14.620  22.960   4.960
 1386BOLB   C1D33261  14.500  23.470   4.400
 1386BOLB   C2D33262  14.200  23.190   4.570
 1386BOLB   C3D33263  13.780  23.420   4.620
 1386BOLB   C4D33264  13.500  23.550   4.890
 1387BOLB   NC133265  10.810  20.750   8.380
 1387BOLB   PO133266  11.040  20.610   8.000
 1387BOLB   GL133267  10.930  20.840   7.620
 1387BOLB   GL233268  10.990  20.670   7.380
 1387BOLB   C1A33269  10.740  21.260   7.440
 1387BOLB   C2A33270  10.450  21.600   7.290
 1387BOLB   C3A33271  10.250  21.760   7.140
 1387BOLB   C4A33272   9.970  21.790   6.790
 1387BOLB   C1B33273  10.560  20.840   7.180
 1387BOLB   C2B33274  10.440  21.140   7.050
 1387BOLB   C3B33275  10.060  21.200   6.950
 1387BOLB   C4B33276   9.630  21.390   6.740
 1387BOLB   NC233277   9.120  22.410   4.550
 1387BOLB   PO233278   8.950  22.130   4.830
 1387BOLB   GL333279   9.270  21.770   4.980
 1387BOLB   GL433280   9.390  21.550   4.660
 1387BOLB   C1C33281   9.650  21.640   5.150
 1387BOLB   C2C33282   9.810  21.790   5.490
 1387BOLB   C3C33283   9.980  21.860   5.920
 1387BOLB   C4C33284  10.000  21.680   6.310
 1387BOLB   C1D33285   9.640  21.290   4.490
 1387BOLB   C2D33286   9.910  20.960   4.630
 1387BOLB   C3D33287  10.230  20.830   4.870
 1387BOLB   C4D33288  10.430  20.700   5.300
 1388BOLB   NC133289  18.290   8.960  12.410
 1388BOLB   PO133290  18.450   9.050  11.980
 1388BOLB   GL133291  18.790   8.800  12.320
 1388BOLB   GL233292  19.130   8.940  12.300
 1388BOLB   C1A33293  18.890   8.480  12.590
 1388BOLB   C2A33294  19.210   8.320  12.740
 1388BOLB   C3A33295  19.670   8.270  12.980
 1388BOLB   C4A33296  20.010   8.490  13.140
 1388BOLB   C1B33297  19.170   8.500  12.220
 1388BOLB   C2B33298  19.150   8.120  12.290
 1388BOLB   C3B33299  19.130   7.830  11.940
 1388BOLB   C4B33300  19.400   7.790  11.450
 1388BOLB   NC233301  21.920   6.490  12.830
 1388BOLB   PO233302  21.750   6.550  13.200
 1388BOLB   GL333303  21.460   6.820  13.140
 1388BOLB   GL433304  21.250   6.770  13.000
 1388BOLB   C1C33305  21.370   7.250  12.910
 1388BOLB   C2C33306  21.030   7.590  12.920
 1388BOLB   C3C33307  20.690   7.940  12.990
 1388BOLB   C4C33308  20.340   8.180  13.110
 1388BOLB   C1D33309  20.890   6.750  12.750
 1388BOLB   C2D33310  20.380   6.780  12.700
 1388BOLB   C3D33311  19.990   7.030  12.830
 1388BOLB   C4D33312  19.570   7.340  12.790
 1389BOLB   NC133313  13.900  20.720   6.120
 1389BOLB   PO133314  13.590  20.410   5.950
 1389BOLB   GL133315  13.550  20.300   5.490
 1389BOLB   GL233316  13.440  20.140   5.190
 1389BOLB   C1A33317  13.110  20.450   5.320
 1389BOLB   C2A33318  12.840  20.610   5.010
 1389BOLB   C3A33319  12.500  20.630   4.670
 1389BOLB   C4A33320  12.210  20.540   4.330
 1389BOLB   C1B33321  13.300  20.260   4.760
 1389BOLB   C2B33322  13.020  20.500   4.530
 1389BOLB   C3B33323  13.160  20.810   4.320
 1389BOLB   C4B33324  13.020  21.120   4.100
 1389BOLB   NC233325  11.030  21.580   2.790
 1389BOLB   PO233326  10.910  21.620   3.110
 1389BOLB   GL333327  11.090  21.190   3.290
 1389BOLB   GL433328  10.960  20.910   3.180
 1389BOLB   C1C33329  11.390  21.110   3.550
 1389BOLB   C2C33330  11.720  20.740   3.560
 1389BOLB   C3C33331  12.130  20.490   3.530
 1389BOLB   C4C33332  12.260  20.320   3.910
 1389BOLB   C1D33333  11.230  20.620   3.550
 1389BOLB   C2D33334  11.220  20.350   3.760
 1389BOLB   C3D33335  11.260  20.210   4.180
 1389BOLB   C4D33336  11.670  20.060   4.390
 1390BOLB   NC133337  22.430  20.460   8.610
 1390BOLB   PO133338  22.580  20.260   8.220
 1390BOLB   GL133339  22.950  20.360   7.960
 1390BOLB   GL233340  23.200  20.310   8.030
 1390BOLB   C1A33341  23.060  20.550   7.570
 1390BOLB   C2A33342  23.410  20.710   7.370
 1390BOLB   C3A33343  23.720  20.550   7.050
 1390BOLB   C4A33344  23.720  20.730   6.640
 1390BOLB   C1B33345  23.530  20.340   7.700
 1390BOLB   C2B33346  23.910  20.490   7.500
 1390BOLB   C3B33347  24.120  20.760   7.150
 1390BOLB   C4B33348  24.060  21.010   6.880
 1390BOLB   NC233349  24.810  21.980   4.760
 1390BOLB   PO233350  24.680  22.270   5.050
 1390BOLB   GL333351  24.760  22.050   5.430
 1390BOLB   GL433352  24.870  22.200   5.710
 1390BOLB   C1C33353  24.490  21.690   5.610
 1390BOLB   C2C33354  24.500  21.360   5.820
 1390BOLB   C3C33355  24.280  21.070   6.070
 1390BOLB   C4C33356  23.960  20.890   6.350
 1390BOLB   C1D33357  24.430  22.130   5.860
 1390BOLB   C2D33358  24.030  22.130   6.110
 1390BOLB   C3D33359  23.910  21.900   6.460
 1390BOLB   C4D33360  23.700  21.870   6.750
 1391BOLB   NC133361  20.940  19.910   1.360
 1391BOLB   PO133362  21.290  19.620   1.330
 1391BOLB   GL133363  20.840  19.600   1.700
 1391BOLB   GL233364  20.550  19.600   1.620
 1391BOLB   C1A33365  20.850  19.360   1.990
 1391BOLB   C2A33366  20.640  19.450   2.470
 1391BOLB   C3A33367  20.630  19.670   2.840
 1391BOLB   C4A33368  20.700  20.010   3.120
 1391BOLB   C1B33369  20.410  19.570   2.010
 1391BOLB   C2B33370  20.300  19.790   2.360
 1391BOLB   C3B33371  20.600  20.070   2.510
 1391BOLB   C4B33372  20.590  20.560   2.480
 1391BOLB   NC233373  20.410  21.960   2.230
 1391BOLB   PO233374  20.090  21.770   2.090
 1391BOLB   GL333375  20.330  21.380   2.320
 1391BOLB   GL433376  20.310  21.350   2.750
 1391BOLB   C1C33377  20.710  21.230   2.440
 1391BOLB   C2C33378  20.870  20.990   2.750
 1391BOLB   C3C33379  20.900  20.760   3.030
 1391BOLB   C4C33380  20.670  20.400   2.970
 1391BOLB   C1D33381  19.960  21.130   3.020
 1391BOLB   C2D33382  19.510  20.960   3.180
 1391BOLB   C3D33383  19.110  21.130   3.230
 1391BOLB   C4D33384  19.130  21.520   3.170
 1392BOLB   NC133385  16.180  25.290  15.510
 1392BOLB   PO133386  15.900  25.030  15.820
 1392BOLB   GL133387  15.820  25.430  15.980
 1392BOLB   GL233388  15.530  25.500  16.060
 1392BOLB   C1A33389  16.080  25.870  15.990
 1392BOLB   C2A33390  16.110  26.320  16.090
 1392BOLB   C3A33391  16.300  26.610  16.320
 1392BOLB   C4A33392  16.230  26.970  16.550
 1392BOLB   C1B33393  15.690  25.980  16.250
 1392BOLB   C2B33394  15.860  26.440  16.530
 1392BOLB   C3B33395  15.680  26.840  16.840
 1392BOLB   C4B33396  15.640  26.860  17.260
 1392BOLB   NC233397  15.480  28.670  18.200
 1392BOLB   PO233398  15.370  28.430  18.060
 1392BOLB   GL333399  15.340  28.040  17.990
 1392BOLB   GL433400  15.190  27.910  18.170
 1392BOLB   C1C33401  15.470  27.830  17.610
 1392BOLB   C2C33402  15.730  27.550  17.400
 1392BOLB   C3C33403  15.710  27.370  16.960
 1392BOLB   C4C33404  16.050  27.320  16.770
 1392BOLB   C1D33405  14.960  27.770  17.810
 1392BOLB   C2D33406  14.950  27.470  17.580
 1392BOLB   C3D33407  14.870  27.060  17.580
 1392BOLB   C4D33408  14.770  26.630  17.460
 1393BOLB   NC133409  22.670  13.520   8.860
 1393BOLB   PO133410  22.580  13.290   8.410
 1393BOLB   GL133411  22.970  13.210   8.180
 1393BOLB   GL233412  22.940  13.060   7.790
 1393BOLB   C1A33413  23.340  13.040   8.090
 1393BOLB   C2A33414  23.540  12.680   8.140
 1393BOLB   C3A33415  23.940  12.660   8.000
 1393BOLB   C4A33416  24.400  12.450   8.240
 1393BOLB   C1B33417  23.130  12.780   7.530
 1393BOLB   C2B33418  23.290  12.500   7.290
 1393BOLB   C3B33419  23.620  12.300   7.100
 1393BOLB   C4B33420  23.710  12.020   6.710
 1393BOLB   NC233421  26.000  11.040   8.070
 1393BOLB   PO233422  26.210  11.360   7.770
 1393BOLB   GL333423  25.830  11.510   7.810
 1393BOLB   GL433424  25.640  11.300   7.680
 1393BOLB   C1C33425  25.590  11.850   7.700
 1393BOLB   C2C33426  25.290  12.000   7.520
 1393BOLB   C3C33427  24.950  12.330   7.580
 1393BOLB   C4C33428  24.860  12.450   8.060
 1393BOLB   C1D33429  25.230  11.400   7.770
 1393BOLB   C2D33430  25.050  11.730   7.940
 1393BOLB   C3D33431  25.240  12.100   8.020
 1393BOLB   C4D33432  25.410  12.340   8.310
 1394BOLB   NC133433  10.510  22.880  14.840
 1394BOLB   PO133434  10.640  23.080  14.530
 1394BOLB   GL133435  10.300  23.270  14.690
 1394BOLB   GL233436  10.090  23.220  14.880
 1394BOLB   C1A33437  10.050  23.700  14.690
 1394BOLB   C2A33438   9.770  23.980  14.770
 1394BOLB   C3A33439   9.390  24.150  14.760
 1394BOLB   C4A33440   9.100  24.450  14.710
 1394BOLB   C1B33441   9.800  23.510  15.050
 1394BOLB   C2B33442   9.540  23.770  15.190
 1394BOLB   C3B33443   9.420  23.990  15.500
 1394BOLB   C4B33444   9.510  23.770  15.990
 1394BOLB   NC233445   7.420  25.120  14.470
 1394BOLB   PO233446   6.980  25.170  14.300
 1394BOLB   GL333447   7.180  24.740  14.180
 1394BOLB   GL433448   7.340  24.650  14.440
 1394BOLB   C1C33449   7.640  24.630  14.000
 1394BOLB   C2C33450   8.000  24.530  13.970
 1394BOLB   C3C33451   8.370  24.530  14.150
 1394BOLB   C4C33452   8.700  24.670  14.470
 1394BOLB   C1D33453   7.560  24.360  14.700
 1394BOLB   C2D33454   7.510  24.150  15.150
 1394BOLB   C3D33455   7.610  23.720  15.340
 1394BOLB   C4D33456   7.680  23.380  15.620
 1395BOLB   NC133457  16.410  20.580   5.970
 1395BOLB   PO133458  16.130  20.580   5.670
 1395BOLB   GL133459  16.220  20.970   5.630
 1395BOLB   GL233460  16.340  21.040   5.240
 1395BOLB   C1A33461  15.950  21.380   5.530
 1395BOLB   C2A33462  15.820  21.640   5.240
 1395BOLB   C3A33463  15.750  22.090   5.020
 1395BOLB   C4A33464  15.600  22.370   4.720
 1395BOLB   C1B33465  16.160  21.260   4.940
 1395BOLB   C2B33466  15.820  21.440   4.680
 1395BOLB   C3B33467  15.670  21.730   4.440
 1395BOLB   C4B33468  15.270  21.500   4.210
 1395BOLB   NC233469  15.140  24.120   3.060
 1395BOLB   PO233470  15.140  23.730   2.790
 1395BOLB   GL333471  15.200  23.320   3.010
 1395BOLB   GL433472  15.450  23.070   2.870
 1395BOLB   C1C33473  15.270  23.250   3.310
 1395BOLB   C2C33474  15.340  23.030   3.630
 1395BOLB   C3C33475  15.500  22.800   4.040
 1395BOLB   C4C33476  15.630  22.510   4.310
 1395BOLB   C1D33477  15.300  22.720   3.110
 1395BOLB   C2D33478  15.250  22.460   3.520
 1395BOLB   C3D33479  15.440  22.360   3.770
 1395BOLB   C4D33480  15.930  22.410   3.720
 1396BOLB   NC133481  14.080  24.790  16.680
 1396BOLB   PO133482  14.410  24.750  16.760
 1396BOLB   GL133483  14.190  25.130  16.970
 1396BOLB   GL233484  14.030  25.250  16.640
 1396BOLB   C1A33485  13.860  25.460  17.110
 1396BOLB   C2A33486  13.700  25.870  17.120
 1396BOLB   C3A33487  13.470  26.250  17.440
 1396BOLB   C4A33488  13.520  26.560  17.700
 1396BOLB   C1B33489  14.210  25.580  16.810
 1396BOLB   C2B33490  14.190  25.820  17.140
 1396BOLB   C3B33491  14.070  26.030  17.440
 1396BOLB   C4B33492  13.930  26.410  17.500
 1396BOLB   NC233493  14.160  28.730  17.710
 1396BOLB   PO233494  13.770  28.600  18.160
 1396BOLB   GL333495  13.900  28.160  17.980
 1396BOLB   GL433496  14.180  28.230  17.790
 1396BOLB   C1C33497  13.630  27.770  18.040
 1396BOLB   C2C33498  13.640  27.460  18.270
 1396BOLB   C3C33499  13.490  27.040  18.370
 1396BOLB   C4C33500  13.470  26.720  18.100
 1396BOLB   C1D33501  14.230  27.860  17.810
 1396BOLB   C2D33502  14.460  27.430  17.720
 1396BOLB   C3D33503  14.360  27.080  17.460
 1396BOLB   C4D33504  13.920  26.910  17.210
 1397BOLB   NC133505  11.900  13.940   5.690
 1397BOLB   PO133506  12.170  13.900   5.340
 1397BOLB   GL133507  11.910  13.820   5.090
 1397BOLB   GL233508  11.970  13.840   4.810
 1397BOLB   C1A33509  11.520  13.720   4.660
 1397BOLB   C2A33510  11.360  13.700   4.190
 1397BOLB   C3A33511  11.190  13.750   3.810
 1397BOLB   C4A33512  10.810  13.680   3.610
 1397BOLB   C1B33513  11.920  13.490   4.450
 1397BOLB   C2B33514  11.890  13.210   4.170
 1397BOLB   C3B33515  11.550  13.310   3.860
 1397BOLB   C4B33516  11.140  13.200   3.680
 1397BOLB   NC233517   9.810  12.370   2.560
 1397BOLB   PO233518   9.470  12.600   2.330
 1397BOLB   GL333519   9.520  12.970   2.560
 1397BOLB   GL433520   9.660  12.820   2.810
 1397BOLB   C1C33521   9.870  13.210   2.590
 1397BOLB   C2C33522  10.310  13.120   2.690
 1397BOLB   C3C33523  10.390  13.240   3.050
 1397BOLB   C4C33524  10.480  13.510   3.430
 1397BOLB   C1D33525  10.040  12.880   3.120
 1397BOLB   C2D33526  10.080  13.120   3.510
 1397BOLB   C3D33527  10.080  13.440   3.930
 1397BOLB   C4D33528  10.060  13.620   4.210
 1398BOLB   NC133529  14.690  25.700   4.490
 1398BOLB   PO133530  14.380  25.490   4.770
 1398BOLB   GL133531  14.750  25.320   4.850
 1398BOLB   GL233532  14.930  25.330   5.150
 1398BOLB   C1A33533  14.820  24.840   4.850
 1398BOLB   C2A33534  15.090  24.520   4.830
 1398BOLB   C3A33535  14.990  24.140   5.010
 1398BOLB   C4A33536  14.670  24.020   5.400
 1398BOLB   C1B33537  14.660  25.120   5.460
 1398BOLB   C2B33538  14.530  24.640   5.590
 1398BOLB   C3B33539  14.260  24.270   5.600
 1398BOLB   C4B33540  13.850  24.210   5.860
 1398BOLB   NC233541  14.850  26.230   5.110
 1398BOLB   PO233542  15.260  25.910   5.080
 1398BOLB   GL333543  15.380  25.600   5.320
 1398BOLB   GL433544  15.680  25.750   5.340
 1398BOLB   C1C33545  15.150  25.280   5.650
 1398BOLB   C2C33546  15.050  24.860   5.710
 1398BOLB   C3C33547  15.100  24.510   5.840
 1398BOLB   C4C33548  14.770  24.170   5.790
 1398BOLB   C1D33549  15.810  25.580   5.690
 1398BOLB   C2D33550  15.890  25.190   5.930
 1398BOLB   C3D33551  15.740  25.130   6.350
 1398BOLB   C4D33552  15.910  25.050   6.780
 1399BOLB   NC133553  17.010  10.330  17.120
 1399BOLB   PO133554  17.100  10.240  16.680
 1399BOLB   GL133555  17.080   9.800  16.840
 1399BOLB   GL233556  16.710   9.780  17.090
 1399BOLB   C1A33557  17.020   9.400  16.890
 1399BOLB   C2A33558  17.010   8.970  16.990
 1399BOLB   C3A33559  17.050   8.580  17.130
 1399BOLB   C4A33560  17.060   8.290  17.390
 1399BOLB   C1B33561  16.650   9.300  17.200
 1399BOLB   C2B33562  16.610   8.930  17.370
 1399BOLB   C3B33563  16.520   8.400  17.490
 1399BOLB   C4B33564  16.500   7.990  17.190
 1399BOLB   NC233565  17.940   6.720  18.680
 1399BOLB   PO233566  17.820   6.490  18.320
 1399BOLB   GL333567  17.620   6.840  18.330
 1399BOLB   GL433568  17.450   6.800  18.170
 1399BOLB   C1C33569  17.540   7.310  18.410
 1399BOLB   C2C33570  17.220   7.420  18.110
 1399BOLB   C3C33571  16.770   7.720  17.940
 1399BOLB   C4C33572  16.770   8.010  17.570
 1399BOLB   C1D33573  17.590   7.020  17.910
 1399BOLB   C2D33574  17.500   7.230  17.670
 1399BOLB   C3D33575  17.430   7.290  17.280
 1399BOLB   C4D33576  17.370   7.500  16.940
 1400BOLB   NC133577  17.260  25.100  12.370
 1400BOLB   PO133578  17.180  25.430  12.070
 1400BOLB   GL133579  17.200  25.880  11.970
 1400BOLB   GL233580  17.310  25.970  12.170
 1400BOLB   C1A33581  17.160  26.320  11.820
 1400BOLB   C2A33582  17.260  26.750  11.870
 1400BOLB   C3A33583  16.950  27.060  11.970
 1400BOLB   C4A33584  16.870  27.480  11.920
 1400BOLB   C1B33585  17.300  26.410  12.330
 1400BOLB   C2B33586  17.230  26.820  12.360
 1400BOLB   C3B33587  17.140  27.300  12.520
 1400BOLB   C4B33588  17.040  27.620  12.740
 1400BOLB   NC233589  16.180  29.750  11.050
 1400BOLB   PO233590  15.790  29.440  11.010
 1400BOLB   GL333591  15.930  29.090  11.240
 1400BOLB   GL433592  15.680  28.970  11.450
 1400BOLB   C1C33593  16.200  28.760  11.490
 1400BOLB   C2C33594  16.610  28.550  11.480
 1400BOLB   C3C33595  16.930  28.270  11.760
 1400BOLB   C4C33596  16.800  27.870  11.850
 1400BOLB   C1D33597  15.740  28.680  11.870
 1400BOLB   C2D33598  15.850  28.270  11.800
 1400BOLB   C3D33599  15.980  27.860  11.820
 1400BOLB   C4D33600  15.790  27.520  12.080
 1401BOLB   NC133601  20.370  20.680  17.710
 1401BOLB   PO133602  20.660  20.860  17.820
 1401BOLB   GL133603  21.000  21.090  18.020
 1401BOLB   GL233604  21.130  21.400  17.950
 1401BOLB   C1A33605  21.370  21.100  18.230
 1401BOLB   C2A33606  21.650  21.480  18.500
 1401BOLB   C3A33607  22.050  21.540  18.740
 1401BOLB   C4A33608  22.430  21.490  19.080
 1401BOLB   C1B33609  21.540  21.610  18.060
 1401BOLB   C2B33610  21.920  21.770  18.220
 1401BOLB   C3B33611  22.290  21.930  18.360
 1401BOLB   C4B33612  22.670  22.110  18.190
 1401BOLB   NC233613  23.200  23.200  21.300
 1401BOLB   PO233614  23.300  23.090  20.850
 1401BOLB   GL333615  22.950  23.010  20.420
 1401BOLB   GL433616  22.730  23.240  20.430
 1401BOLB   C1C33617  22.760  22.730  20.190
 1401BOLB   C2C33618  22.800  22.330  19.900
 1401BOLB   C3C33619  22.850  21.900  19.730
 1401BOLB   C4C33620  22.650  21.660  19.510
 1401BOLB   C1D33621  22.320  22.940  20.410
 1401BOLB   C2D33622  22.240  22.820  20.020
 1401BOLB   C3D33623  22.270  22.420  19.780
 1401BOLB   C4D33624  22.370  22.110  19.460
 1402BOLB   NC133625   9.110  20.120  11.260
 1402BOLB   PO133626   9.070  20.510  11.160
 1402BOLB   GL133627   8.800  20.900  11.170
 1402BOLB   GL233628   8.510  20.760  11.050
 1402BOLB   C1A33629   8.790  21.290  10.930
 1402BOLB   C2A33630   8.370  21.540  10.810
 1402BOLB   C3A33631   8.020  21.730  10.580
 1402BOLB   C4A33632   7.590  21.740  10.710
 1402BOLB   C1B33633   8.180  21.120  11.050
 1402BOLB   C2B33634   7.780  21.370  11.030
 1402BOLB   C3B33635   7.370  21.410  11.120
 1402BOLB   C4B33636   7.100  21.720  11.320
 1402BOLB   NC233637   5.590  22.400  10.390
 1402BOLB   PO233638   5.460  22.450  10.860
 1402BOLB   GL333639   5.760  22.160  11.070
 1402BOLB   GL433640   5.420  21.980  11.150
 1402BOLB   C1C33641   6.090  22.070  11.240
 1402BOLB   C2C33642   6.500  22.110  11.140
 1402BOLB   C3C33643   6.900  22.120  11.060
 1402BOLB   C4C33644   7.150  21.850  10.790
 1402BOLB   C1D33645   5.630  21.680  11.280
 1402BOLB   C2D33646   6.010  21.680  11.600
 1402BOLB   C3D33647   6.310  21.920  11.630
 1402BOLB   C4D33648   6.620  22.110  11.950
 1403BOLB   NC133649  14.870  15.170   3.650
 1403BOLB   PO133650  14.590  14.880   3.600
 1403BOLB   GL133651  14.720  14.760   3.270
 1403BOLB   GL233652  14.910  15.040   3.190
 1403BOLB   C1A33653  14.550  14.710   2.860
 1403BOLB   C2A33654  14.560  14.860   2.460
 1403BOLB   C3A33655  14.740  14.710   2.220
 1403BOLB   C4A33656  14.770  14.700   1.800
 1403BOLB   C1B33657  15.070  14.920   2.820
 1403BOLB   C2B33658  15.090  14.520   2.620
 1403BOLB   C3B33659  15.190  14.090   2.590
 1403BOLB   C4B33660  15.500  13.740   2.480
 1403BOLB   NC233661  14.860  15.770  31.350
 1403BOLB   PO233662  14.550  15.490  31.140
 1403BOLB   GL333663  14.510  15.420   0.260
 1403BOLB   GL433664  14.520  15.720   0.370
 1403BOLB   C1C33665  14.750  15.290   0.480
 1403BOLB   C2C33666  15.040  15.330   0.840
 1403BOLB   C3C33667  15.140  15.330   1.240
 1403BOLB   C4C33668  15.050  14.940   1.490
 1403BOLB   C1D33669  14.500  15.450   0.850
 1403BOLB   C2D33670  14.170  15.200   1.090
 1403BOLB   C3D33671  14.170  15.060   1.640
 1403BOLB   C4D33672  14.270  14.940   2.080
 1404BOLB   NC133673   7.150  25.900  16.160
 1404BOLB   PO133674   7.010  25.600  16.340
 1404BOLB   GL133675   7.330  25.300  16.240
 1404BOLB   GL233676   7.450  25.040  16.030
 1404BOLB   C1A33677   7.530  25.070  16.600
 1404BOLB   C2A33678   7.320  24.960  17.090
 1404BOLB   C3A33679   7.370  24.800  17.480
 1404BOLB   C4A33680   7.480  24.580  17.820
 1404BOLB   C1B33681   7.530  24.610  16.040
 1404BOLB   C2B33682   7.840  24.520  16.160
 1404BOLB   C3B33683   8.240  24.330  16.350
 1404BOLB   C4B33684   8.650  24.200  16.340
 1404BOLB   NC233685   6.080  26.070  18.360
 1404BOLB   PO233686   5.630  26.070  18.400
 1404BOLB   GL333687   5.920  25.620  18.350
 1404BOLB   GL433688   5.800  25.350  18.140
 1404BOLB   C1C33689   6.320  25.340  18.390
 1404BOLB   C2C33690   6.710  25.210  18.360
 1404BOLB   C3C33691   6.970  24.900  18.510
 1404BOLB   C4C33692   7.140  24.630  18.320
 1404BOLB   C1D33693   5.710  25.070  17.750
 1404BOLB   C2D33694   5.520  24.770  17.760
 1404BOLB   C3D33695   5.180  24.550  17.590
 1404BOLB   C4D33696   4.820  24.820  17.500
 1405BOLB   NC133697  14.670  21.470  19.670
 1405BOLB   PO133698  14.790  21.420  20.210
 1405BOLB   GL133699  15.080  21.650  20.410
 1405BOLB   GL233700  15.330  21.440  20.640
 1405BOLB   C1A33701  15.120  22.080  20.500
 1405BOLB   C2A33702  15.250  22.550  20.630
 1405BOLB   C3A33703  15.240  22.960  20.830
 1405BOLB   C4A33704  14.920  23.300  20.850
 1405BOLB   C1B33705  15.240  21.780  20.940
 1405BOLB   C2B33706  15.060  22.230  20.960
 1405BOLB   C3B33707  15.120  22.540  21.410
 1405BOLB   C4B33708  15.130  22.520  21.840
 1405BOLB   NC233709  15.240  25.500  22.130
 1405BOLB   PO233710  15.670  25.300  22.250
 1405BOLB   GL333711  15.450  24.920  22.130
 1405BOLB   GL433712  15.640  24.510  22.260
 1405BOLB   C1C33713  15.400  24.490  21.820
 1405BOLB   C2C33714  15.410  24.200  21.470
 1405BOLB   C3C33715  15.230  23.870  21.180
 1405BOLB   C4C33716  15.000  23.660  20.870
 1405BOLB   C1D33717  15.720  24.150  22.010
 1405BOLB   C2D33718  15.620  23.750  21.810
 1405BOLB   C3D33719  15.790  23.410  21.980
 1405BOLB   C4D33720  15.950  23.040  21.760
 1406BOLB   NC133721  18.020  25.020   4.220
 1406BOLB   PO133722  17.780  24.800   3.910
 1406BOLB   GL133723  17.740  24.490   4.210
 1406BOLB   GL233724  17.450  24.310   3.970
 1406BOLB   C1A33725  17.570  24.240   4.510
 1406BOLB   C2A33726  17.510  24.120   5.010
 1406BOLB   C3A33727  17.400  24.070   5.420
 1406BOLB   C4A33728  17.050  24.200   5.550
 1406BOLB   C1B33729  17.760  23.970   4.160
 1406BOLB   C2B33730  18.040  23.570   4.480
 1406BOLB   C3B33731  18.170  23.260   4.550
 1406BOLB   C4B33732  18.230  22.890   4.800
 1406BOLB   NC233733  16.130  25.470   4.190
 1406BOLB   PO233734  16.530  25.440   4.340
 1406BOLB   GL333735  16.330  25.060   4.430
 1406BOLB   GL433736  16.030  25.160   4.670
 1406BOLB   C1C33737  16.020  24.680   4.510
 1406BOLB   C2C33738  16.120  24.490   4.890
 1406BOLB   C3C33739  16.360  24.140   5.140
 1406BOLB   C4C33740  16.680  24.110   5.390
 1406BOLB   C1D33741  16.340  24.910   4.970
 1406BOLB   C2D33742  16.450  24.620   5.300
 1406BOLB   C3D33743  16.730  24.620   5.640
 1406BOLB   C4D33744  17.110  24.580   5.950
 1407BOLB   NC133745  15.360  24.460  16.690
 1407BOLB   PO133746  15.250  24.820  16.690
 1407BOLB   GL133747  15.300  25.050  17.020
 1407BOLB   GL233748  15.530  25.300  17.120
 1407BOLB   C1A33749  15.070  25.200  17.290
 1407BOLB   C2A33750  15.050  25.580  17.500
 1407BOLB   C3A33751  14.980  26.090  17.600
 1407BOLB   C4A33752  14.800  26.370  17.910
 1407BOLB   C1B33753  15.560  25.620  17.380
 1407BOLB   C2B33754  15.410  25.860  17.730
 1407BOLB   C3B33755  15.380  26.240  17.900
 1407BOLB   C4B33756  15.640  26.490  18.060
 1407BOLB   NC233757  14.840  28.280  19.670
 1407BOLB   PO233758  14.690  28.050  19.360
 1407BOLB   GL333759  14.620  27.630  19.260
 1407BOLB   GL433760  14.440  27.670  19.030
 1407BOLB   C1C33761  14.800  27.180  19.120
 1407BOLB   C2C33762  14.430  27.020  18.850
 1407BOLB   C3C33763  14.380  26.730  18.580
 1407BOLB   C4C33764  14.570  26.590  18.190
 1407BOLB   C1D33765  14.610  27.550  18.640
 1407BOLB   C2D33766  14.530  27.180  18.400
 1407BOLB   C3D33767  14.350  27.010  18.040
 1407BOLB   C4D33768  13.960  26.870  17.870
 1408BOLB   NC133769  17.760   9.600   7.880
 1408BOLB   PO133770  17.710   9.550   8.360
 1408BOLB   GL133771  17.540   9.110   8.340
 1408BOLB   GL233772  17.570   9.140   8.060
 1408BOLB   C1A33773  17.270   8.750   8.280
 1408BOLB   C2A33774  16.920   8.510   8.010
 1408BOLB   C3A33775  16.830   8.140   7.910
 1408BOLB   C4A33776  16.950   7.780   7.900
 1408BOLB   C1B33777  17.800   9.010   7.680
 1408BOLB   C2B33778  18.060   8.600   7.650
 1408BOLB   C3B33779  17.980   8.130   7.450
 1408BOLB   C4B33780  17.730   7.700   7.510
 1408BOLB   NC233781  16.730   5.320   7.240
 1408BOLB   PO233782  16.820   5.750   6.970
 1408BOLB   GL333783  16.800   6.120   6.930
 1408BOLB   GL433784  17.060   6.200   6.660
 1408BOLB   C1C33785  16.690   6.550   6.890
 1408BOLB   C2C33786  16.620   6.980   7.100
 1408BOLB   C3C33787  16.700   7.020   7.520
 1408BOLB   C4C33788  16.830   7.390   7.770
 1408BOLB   C1D33789  17.140   6.460   7.050
 1408BOLB   C2D33790  17.140   6.830   7.260
 1408BOLB   C3D33791  17.070   6.820   7.730
 1408BOLB   C4D33792  16.850   6.740   8.230
 1409BOLB   NC133793  22.450  22.530   8.960
 1409BOLB   PO133794  22.710  22.420   9.350
 1409BOLB   GL133795  22.710  22.810   9.300
 1409BOLB   GL233796  22.890  22.750   8.910
 1409BOLB   C1A33797  22.960  23.180   9.150
 1409BOLB   C2A33798  23.240  23.460   9.210
 1409BOLB   C3A33799  23.320  23.860   9.080
 1409BOLB   C4A33800  23.130  24.160   9.140
 1409BOLB   C1B33801  22.760  23.250   8.600
 1409BOLB   C2B33802  22.660  23.650   8.440
 1409BOLB   C3B33803  22.640  24.060   8.490
 1409BOLB   C4B33804  22.590  24.500   8.230
 1409BOLB   NC233805  24.280  26.650   9.170
 1409BOLB   PO233806  23.930  26.510   9.020
 1409BOLB   GL333807  23.770  26.180   9.170
 1409BOLB   GL433808  23.920  25.830   9.320
 1409BOLB   C1C33809  23.530  25.750   8.990
 1409BOLB   C2C33810  23.490  25.400   9.060
 1409BOLB   C3C33811  23.320  24.960   9.270
 1409BOLB   C4C33812  23.160  24.510   9.340
 1409BOLB   C1D33813  23.860  25.370   9.460
 1409BOLB   C2D33814  23.770  24.930   9.520
 1409BOLB   C3D33815  23.650  24.490   9.430
 1409BOLB   C4D33816  23.610  24.070   9.410
 1410BOLB   NC133817  22.080  13.560   7.620
 1410BOLB   PO133818  22.430  13.820   7.400
 1410BOLB   GL133819  22.800  13.910   7.210
 1410BOLB   GL233820  22.890  13.560   7.400
 1410BOLB   C1A33821  22.870  13.710   6.870
 1410BOLB   C2A33822  23.210  13.410   6.800
 1410BOLB   C3A33823  23.660  13.320   6.890
 1410BOLB   C4A33824  23.850  12.830   6.900
 1410BOLB   C1B33825  23.240  13.240   7.400
 1410BOLB   C2B33826  23.470  13.050   7.240
 1410BOLB   C3B33827  23.640  12.710   7.550
 1410BOLB   C4B33828  24.010  12.910   7.590
 1410BOLB   NC233829  25.730  11.910   6.420
 1410BOLB   PO233830  25.730  11.840   6.810
 1410BOLB   GL333831  25.470  12.080   7.070
 1410BOLB   GL433832  25.230  11.930   6.950
 1410BOLB   C1C33833  25.280  12.450   7.090
 1410BOLB   C2C33834  24.970  12.730   7.240
 1410BOLB   C3C33835  24.630  12.850   7.150
 1410BOLB   C4C33836  24.330  12.680   6.950
 1410BOLB   C1D33837  24.880  12.110   6.990
 1410BOLB   C2D33838  24.590  12.330   7.220
 1410BOLB   C3D33839  24.060  12.460   7.340
 1410BOLB   C4D33840  23.820  12.230   7.520
 1411BOLB   NC133841  10.740  22.940  13.980
 1411BOLB   PO133842  10.490  23.020  13.590
 1411BOLB   GL133843  10.430  23.470  13.390
 1411BOLB   GL233844  10.740  23.640  13.320
 1411BOLB   C1A33845  10.240  23.860  13.280
 1411BOLB   C2A33846  10.130  24.200  12.990
 1411BOLB   C3A33847  10.120  24.680  12.790
 1411BOLB   C4A33848  10.180  25.140  12.820
 1411BOLB   C1B33849  10.670  24.050  13.220
 1411BOLB   C2B33850  10.760  24.440  13.470
 1411BOLB   C3B33851  10.530  24.690  13.680
 1411BOLB   C4B33852  10.510  25.040  13.630
 1411BOLB   NC233853   9.650  27.150  11.680
 1411BOLB   PO233854   9.470  27.410  12.090
 1411BOLB   GL333855   9.520  26.950  12.170
 1411BOLB   GL433856   9.740  26.810  11.970
 1411BOLB   C1C33857   9.560  26.480  12.300
 1411BOLB   C2C33858   9.830  26.190  12.560
 1411BOLB   C3C33859  10.140  26.000  12.770
 1411BOLB   C4C33860  10.170  25.590  12.810
 1411BOLB   C1D33861   9.880  26.370  11.950
 1411BOLB   C2D33862   9.850  25.900  12.110
 1411BOLB   C3D33863   9.980  25.520  12.280
 1411BOLB   C4D33864  10.290  25.150  12.330
 1412BOLB   NC133865  15.940  10.330   7.190
 1412BOLB   PO133866  15.440  10.230   7.100
 1412BOLB   GL133867  15.250   9.900   6.660
 1412BOLB   GL233868  15.510   9.790   6.560
 1412BOLB   C1A33869  15.030   9.750   6.360
 1412BOLB   C2A33870  14.990   9.320   6.100
 1412BOLB   C3A33871  14.710   9.070   5.970
 1412BOLB   C4A33872  14.660   8.850   5.660
 1412BOLB   C1B33873  15.430   9.430   6.220
 1412BOLB   C2B33874  15.480   9.130   5.920
 1412BOLB   C3B33875  15.570   8.660   5.810
 1412BOLB   C4B33876  15.680   8.260   6.110
 1412BOLB   NC233877  14.110   7.900   3.280
 1412BOLB   PO233878  14.250   7.870   3.670
 1412BOLB   GL333879  14.260   8.140   3.870
 1412BOLB   GL433880  14.560   8.280   3.830
 1412BOLB   C1C33881  14.370   8.220   4.270
 1412BOLB   C2C33882  14.630   8.180   4.690
 1412BOLB   C3C33883  14.760   8.260   5.090
 1412BOLB   C4C33884  14.590   8.500   5.410
 1412BOLB   C1D33885  14.780   8.500   4.160
 1412BOLB   C2D33886  15.210   8.770   4.240
 1412BOLB   C3D33887  15.270   9.010   4.520
 1412BOLB   C4D33888  14.960   9.220   4.810
 1413BOLB   NC133889  11.960  23.410  15.380
 1413BOLB   PO133890  11.750  23.730  15.300
 1413BOLB   GL133891  11.450  23.930  15.580
 1413BOLB   GL233892  11.110  23.810  15.500
 1413BOLB   C1A33893  11.200  24.300  15.600
 1413BOLB   C2A33894  11.010  24.640  15.610
 1413BOLB   C3A33895  10.690  24.870  15.850
 1413BOLB   C4A33896  10.260  24.800  15.900
 1413BOLB   C1B33897  10.840  24.100  15.260
 1413BOLB   C2B33898  10.820  24.440  15.140
 1413BOLB   C3B33899  10.590  24.850  15.270
 1413BOLB   C4B33900  10.330  25.140  15.580
 1413BOLB   NC233901   8.480  26.380  16.370
 1413BOLB   PO233902   8.420  26.750  16.130
 1413BOLB   GL333903   8.860  26.410  16.090
 1413BOLB   GL433904   8.800  26.170  15.730
 1413BOLB   C1C33905   9.180  26.230  16.370
 1413BOLB   C2C33906   9.410  25.730  16.280
 1413BOLB   C3C33907   9.610  25.460  16.190
 1413BOLB   C4C33908   9.890  25.140  16.050
 1413BOLB   C1D33909   9.210  26.000  15.880
 1413BOLB   C2D33910   9.630  25.780  15.800
 1413BOLB   C3D33911  10.010  25.560  15.720
 1413BOLB   C4D33912  10.440  25.750  15.540
 1414BOLB   NC133913  14.790  11.510   5.840
 1414BOLB   PO133914  14.510  11.800   5.800
 1414BOLB   GL133915  14.370  11.540   5.490
 1414BOLB   GL233916  14.370  11.650   5.110
 1414BOLB   C1A33917  14.210  11.100   5.290
 1414BOLB   C2A33918  13.950  10.940   5.020
 1414BOLB   C3A33919  13.520  10.870   4.890
 1414BOLB   C4A33920  13.260  10.600   4.990
 1414BOLB   C1B33921  14.550  11.320   5.000
 1414BOLB   C2B33922  14.530  11.150   4.650
 1414BOLB   C3B33923  14.200  10.870   4.590
 1414BOLB   C4B33924  13.820  10.770   4.460
 1414BOLB   NC233925  12.830   8.670   3.150
 1414BOLB   PO233926  13.060   8.490   3.510
 1414BOLB   GL333927  12.920   9.010   3.500
 1414BOLB   GL433928  12.590   8.990   3.470
 1414BOLB   C1C33929  13.090   9.510   3.710
 1414BOLB   C2C33930  13.070   9.930   3.950
 1414BOLB   C3C33931  13.010  10.010   4.450
 1414BOLB   C4C33932  13.020  10.290   4.680
 1414BOLB   C1D33933  12.670   9.360   3.300
 1414BOLB   C2D33934  12.990   9.630   3.170
 1414BOLB   C3D33935  13.110   9.990   3.410
 1414BOLB   C4D33936  13.450  10.240   3.750
 1415BOLB   NC133937  21.820  21.890   7.790
 1415BOLB   PO133938  22.140  21.850   7.990
 1415BOLB   GL133939  22.260  22.290   7.840
 1415BOLB   GL233940  22.460  22.360   8.080
 1415BOLB   C1A33941  22.440  22.760   7.790
 1415BOLB   C2A33942  22.710  23.090   7.700
 1415BOLB   C3A33943  23.170  23.380   7.700
 1415BOLB   C4A33944  23.310  23.700   8.030
 1415BOLB   C1B33945  22.730  22.360   7.790
 1415BOLB   C2B33946  22.990  22.660   7.560
 1415BOLB   C3B33947  23.080  22.740   7.080
 1415BOLB   C4B33948  23.290  22.700   6.680
 1415BOLB   NC233949  26.200  24.460   8.840
 1415BOLB   PO233950  25.820  24.550   8.750
 1415BOLB   GL333951  25.480  24.340   8.590
 1415BOLB   GL433952  25.180  24.320   8.840
 1415BOLB   C1C33953  25.050  24.060   8.420
 1415BOLB   C2C33954  24.500  24.170   8.330
 1415BOLB   C3C33955  24.070  24.170   8.210
 1415BOLB   C4C33956  23.750  23.830   8.210
 1415BOLB   C1D33957  24.800  24.030   8.960
 1415BOLB   C2D33958  24.470  23.790   9.180
 1415BOLB   C3D33959  24.320  23.410   9.350
 1415BOLB   C4D33960  24.500  22.960   9.150
 1416BOLB   NC133961  12.050  17.590   5.980
 1416BOLB   PO133962  11.710  17.700   6.110
 1416BOLB   GL133963  11.470  17.800   5.810
 1416BOLB   GL233964  11.360  18.060   5.800
 1416BOLB   C1A33965  11.330  17.800   5.390
 1416BOLB   C2A33966  11.100  17.880   5.100
 1416BOLB   C3A33967  10.900  17.820   4.700
 1416BOLB   C4A33968  10.880  17.730   4.230
 1416BOLB   C1B33969  11.100  18.290   5.460
 1416BOLB   C2B33970  10.710  18.280   5.140
 1416BOLB   C3B33971  10.450  18.060   4.810
 1416BOLB   C4B33972  10.140  18.010   4.660
 1416BOLB   NC233973   8.670  17.580   2.840
 1416BOLB   PO233974   9.060  17.410   2.620
 1416BOLB   GL333975   9.310  17.320   2.950
 1416BOLB   GL433976   9.240  17.350   3.160
 1416BOLB   C1C33977   9.760  17.440   3.010
 1416BOLB   C2C33978   9.920  17.420   3.330
 1416BOLB   C3C33979  10.300  17.650   3.570
 1416BOLB   C4C33980  10.630  17.600   3.890
 1416BOLB   C1D33981   9.450  17.240   3.520
 1416BOLB   C2D33982   9.910  17.240   3.770
 1416BOLB   C3D33983  10.160  17.180   4.200
 1416BOLB   C4D33984  10.630  17.160   4.150
 1417BOLB   NC133985   5.770  25.020  22.870
 1417BOLB   PO133986   5.760  24.660  22.590
 1417BOLB   GL133987   5.900  24.430  22.300
 1417BOLB   GL233988   5.750  24.030  22.380
 1417BOLB   C1A33989   6.110  24.090  22.040
 1417BOLB   C2A33990   6.280  23.780  21.780
 1417BOLB   C3A33991   6.600  23.620  21.480
 1417BOLB   C4A33992   6.800  23.580  21.280
 1417BOLB   C1B33993   5.870  23.590  22.080
 1417BOLB   C2B33994   6.160  23.330  21.920
 1417BOLB   C3B33995   6.550  23.150  21.840
 1417BOLB   C4B33996   6.920  23.290  21.750
 1417BOLB   NC233997   5.720  24.790  22.030
 1417BOLB   PO233998   5.740  24.910  21.560
 1417BOLB   GL333999   5.790  24.620  21.250
 1417BOLB   GL434000   6.110  24.510  21.280
 1417BOLB   C1C34001   5.760  24.220  21.010
 1417BOLB   C2C34002   6.060  24.100  20.720
 1417BOLB   C3C34003   6.500  23.970  20.660
 1417BOLB   C4C34004   6.800  23.860  20.960
 1417BOLB   C1D34005   6.380  24.230  21.580
 1417BOLB   C2D34006   6.770  24.060  21.550
 1417BOLB   C3D34007   7.150  23.760  21.580
 1417BOLB   C4D34008   7.430  23.530  21.650
 1418BOLB   NC134009  18.300  11.830  17.770
 1418BOLB   PO134010  18.000  11.570  17.800
 1418BOLB   GL134011  18.220  11.400  18.050
 1418BOLB   GL234012  18.030  11.290  18.290
 1418BOLB   C1A34013  18.410  11.560  18.420
 1418BOLB   C2A34014  18.280  11.450  18.850
 1418BOLB   C3A34015  18.320  11.060  19.150
 1418BOLB   C4A34016  18.450  10.550  19.220
 1418BOLB   C1B34017  18.120  11.020  18.610
 1418BOLB   C2B34018  17.990  10.700  19.010
 1418BOLB   C3B34019  18.000  10.500  19.390
 1418BOLB   C4B34020  17.770  10.310  19.740
 1418BOLB   NC234021  18.510   8.560  20.310
 1418BOLB   PO234022  18.520   8.510  19.960
 1418BOLB   GL334023  18.130   8.730  20.090
 1418BOLB   GL434024  17.830   8.690  20.150
 1418BOLB   C1C34025  18.040   9.060  19.880
 1418BOLB   C2C34026  18.060   9.490  19.510
 1418BOLB   C3C34027  18.410   9.720  19.340
 1418BOLB   C4C34028  18.540  10.100  19.240
 1418BOLB   C1D34029  17.790   8.670  19.710
 1418BOLB   C2D34030  17.640   8.510  19.460
 1418BOLB   C3D34031  17.530   8.770  19.140
 1418BOLB   C4D34032  17.240   8.840  18.960
 1419BOLB   NC134033  16.600  16.090   4.420
 1419BOLB   PO134034  17.080  16.230   4.510
 1419BOLB   GL134035  17.110  16.300   4.080
 1419BOLB   GL234036  17.310  16.150   3.970
 1419BOLB   C1A34037  17.080  16.460   3.690
 1419BOLB   C2A34038  17.080  16.510   3.220
 1419BOLB   C3A34039  17.120  16.710   2.770
 1419BOLB   C4A34040  17.440  16.530   2.570
 1419BOLB   C1B34041  17.410  15.970   3.600
 1419BOLB   C2B34042  17.540  16.060   3.150
 1419BOLB   C3B34043  17.790  16.150   2.870
 1419BOLB   C4B34044  18.110  16.300   2.460
 1419BOLB   NC234045  17.900  16.080   0.340
 1419BOLB   PO234046  18.020  15.570   0.390
 1419BOLB   GL334047  18.180  15.650   0.760
 1419BOLB   GL434048  18.410  15.790   0.730
 1419BOLB   C1C34049  17.910  15.490   1.090
 1419BOLB   C2C34050  17.740  15.730   1.500
 1419BOLB   C3C34051  17.610  16.080   1.720
 1419BOLB   C4C34052  17.540  16.270   2.180
 1419BOLB   C1D34053  18.680  15.800   1.070
 1419BOLB   C2D34054  18.730  15.960   1.350
 1419BOLB   C3D34055  18.450  16.100   1.660
 1419BOLB   C4D34056  18.060  16.130   1.840
 1420BOLB   NC134057  10.640  10.060  11.580
 1420BOLB   PO134058  10.980  10.060  11.610
 1420BOLB   GL134059  10.830   9.690  11.420
 1420BOLB   GL234060  10.980   9.400  11.310
 1420BOLB   C1A34061  10.440   9.470  11.290
 1420BOLB   C2A34062  10.070   9.220  11.280
 1420BOLB   C3A34063   9.700   9.220  11.080
 1420BOLB   C4A34064   9.240   9.310  11.000
 1420BOLB   C1B34065  10.820   9.160  11.330
 1420BOLB   C2B34066  10.820   8.620  11.350
 1420BOLB   C3B34067  10.860   8.110  11.480
 1420BOLB   C4B34068  11.240   7.820  11.330
 1420BOLB   NC234069   6.830   8.600   9.560
 1420BOLB   PO234070   7.030   9.000   9.670
 1420BOLB   GL334071   7.210   8.940  10.030
 1420BOLB   GL434072   7.020   9.190  10.180
 1420BOLB   C1C34073   7.690   8.750  10.110
 1420BOLB   C2C34074   8.150   8.830  10.180
 1420BOLB   C3C34075   8.480   9.230  10.360
 1420BOLB   C4C34076   8.790   9.430  10.660
 1420BOLB   C1D34077   7.260   9.020  10.480
 1420BOLB   C2D34078   7.420   9.150  10.850
 1420BOLB   C3D34079   7.590   9.340  11.240
 1420BOLB   C4D34080   7.690   9.750  11.400
 1421BOLB   NC134081  14.780  22.710  19.070
 1421BOLB   PO134082  14.920  23.040  19.370
 1421BOLB   GL134083  15.020  23.070  19.690
 1421BOLB   GL234084  15.280  23.260  19.690
 1421BOLB   C1A34085  14.860  23.400  19.970
 1421BOLB   C2A34086  14.860  23.730  20.390
 1421BOLB   C3A34087  14.570  23.810  20.720
 1421BOLB   C4A34088  14.110  24.020  20.740
 1421BOLB   C1B34089  15.670  23.370  19.980
 1421BOLB   C2B34090  15.830  23.550  20.380
 1421BOLB   C3B34091  15.860  23.960  20.700
 1421BOLB   C4B34092  15.690  24.090  21.130
 1421BOLB   NC234093  14.020  26.490  20.990
 1421BOLB   PO234094  13.590  26.460  20.880
 1421BOLB   GL334095  13.530  26.100  20.580
 1421BOLB   GL434096  13.510  25.950  20.280
 1421BOLB   C1C34097  13.480  25.710  20.740
 1421BOLB   C2C34098  13.580  25.260  20.690
 1421BOLB   C3C34099  13.760  24.930  20.580
 1421BOLB   C4C34100  13.980  24.500  20.690
 1421BOLB   C1D34101  13.530  25.990  19.810
 1421BOLB   C2D34102  13.710  26.210  19.410
 1421BOLB   C3D34103  13.750  25.810  19.050
 1421BOLB   C4D34104  13.760  25.680  18.580
 1422BOLB   NC134105  11.850   9.800  10.060
 1422BOLB   PO134106  12.060   9.670   9.780
 1422BOLB   GL134107  11.920   9.390   9.580
 1422BOLB   GL234108  11.590   9.630   9.470
 1422BOLB   C1A34109  11.770   9.060   9.470
 1422BOLB   C2A34110  11.280   8.950   9.500
 1422BOLB   C3A34111  10.960   8.530   9.310
 1422BOLB   C4A34112  10.660   8.170   9.290
 1422BOLB   C1B34113  11.290   9.540   9.640
 1422BOLB   C2B34114  10.940   9.370   9.470
 1422BOLB   C3B34115  10.640   9.100   9.460
 1422BOLB   C4B34116  10.250   9.090   9.510
 1422BOLB   NC234117  10.770   5.550   8.640
 1422BOLB   PO234118  10.930   5.950   8.470
 1422BOLB   GL334119  10.870   6.390   8.690
 1422BOLB   GL434120  11.210   6.390   8.780
 1422BOLB   C1C34121  10.830   6.830   8.860
 1422BOLB   C2C34122  10.420   6.940   9.150
 1422BOLB   C3C34123  10.350   7.340   9.420
 1422BOLB   C4C34124  10.390   7.820   9.500
 1422BOLB   C1D34125  11.240   6.750   9.110
 1422BOLB   C2D34126  11.600   7.050   9.000
 1422BOLB   C3D34127  11.800   7.330   9.150
 1422BOLB   C4D34128  11.810   7.650   9.110
 1423BOLB   NC134129  15.390  24.570  10.140
 1423BOLB   PO134130  15.620  24.310   9.890
 1423BOLB   GL134131  15.700  24.720   9.760
 1423BOLB   GL234132  15.940  24.880   9.990
 1423BOLB   C1A34133  15.540  25.080   9.620
 1423BOLB   C2A34134  15.590  25.550   9.510
 1423BOLB   C3A34135  15.570  25.920   9.430
 1423BOLB   C4A34136  15.490  26.210   9.180
 1423BOLB   C1B34137  16.020  25.270   9.700
 1423BOLB   C2B34138  16.120  25.610   9.420
 1423BOLB   C3B34139  15.940  25.930   9.150
 1423BOLB   C4B34140  15.940  26.330   8.920
 1423BOLB   NC234141  14.730  28.430   8.600
 1423BOLB   PO234142  14.630  28.090   8.330
 1423BOLB   GL334143  14.900  27.870   8.470
 1423BOLB   GL434144  15.190  28.120   8.570
 1423BOLB   C1C34145  14.980  27.500   8.630
 1423BOLB   C2C34146  15.150  27.310   9.000
 1423BOLB   C3C34147  15.360  27.020   9.140
 1423BOLB   C4C34148  15.440  26.580   9.190
 1423BOLB   C1D34149  15.340  27.790   8.840
 1423BOLB   C2D34150  15.770  27.540   8.800
 1423BOLB   C3D34151  15.790  27.140   8.980
 1423BOLB   C4D34152  15.960  26.780   9.210
 1424BOLB   NC134153   9.970  22.820  13.770
 1424BOLB   PO134154  10.270  23.030  14.130
 1424BOLB   GL134155  10.040  23.370  14.230
 1424BOLB   GL234156   9.850  23.320  14.460
 1424BOLB   C1A34157   9.800  23.740  14.170
 1424BOLB   C2A34158   9.660  24.190  14.180
 1424BOLB   C3A34159   9.640  24.540  14.390
 1424BOLB   C4A34160   9.780  24.930  14.610
 1424BOLB   C1B34161   9.550  23.600  14.580
 1424BOLB   C2B34162   9.260  23.410  14.640
 1424BOLB   C3B34163   8.880  23.320  14.690
 1424BOLB   C4B34164   8.560  23.650  14.860
 1424BOLB   NC234165   8.280  26.310  14.560
 1424BOLB   PO234166   8.100  26.170  14.130
 1424BOLB   GL334167   8.470  25.900  14.120
 1424BOLB   GL434168   8.500  25.890  13.810
 1424BOLB   C1C34169   8.800  25.740  14.350
 1424BOLB   C2C34170   9.050  25.650  14.730
 1424BOLB   C3C34171   9.330  25.560  14.960
 1424BOLB   C4C34172   9.600  25.260  14.880
 1424BOLB   C1D34173   8.690  25.490  13.910
 1424BOLB   C2D34174   8.880  25.130  14.250
 1424BOLB   C3D34175   9.130  24.740  14.310
 1424BOLB   C4D34176   9.120  24.290  14.220
 1425BOLB   NC134177  22.910  19.440   7.870
 1425BOLB   PO134178  22.860  19.860   7.690
 1425BOLB   GL134179  23.150  20.080   7.540
 1425BOLB   GL234180  23.410  19.830   7.420
 1425BOLB   C1A34181  23.290  20.260   7.140
 1425BOLB   C2A34182  23.240  20.380   6.780
 1425BOLB   C3A34183  23.110  20.340   6.330
 1425BOLB   C4A34184  23.310  20.530   5.980
 1425BOLB   C1B34185  23.790  20.030   7.180
 1425BOLB   C2B34186  23.990  20.180   6.870
 1425BOLB   C3B34187  24.120  20.470   6.580
 1425BOLB   C4B34188  24.260  20.570   6.130
 1425BOLB   NC234189  25.120  21.760   5.150
 1425BOLB   PO234190  25.150  21.610   4.700
 1425BOLB   GL334191  24.980  21.220   4.920
 1425BOLB   GL434192  24.750  21.050   4.740
 1425BOLB   C1C34193  24.580  21.230   5.160
 1425BOLB   C2C34194  24.070  21.250   5.350
 1425BOLB   C3C34195  23.760  20.980   5.400
 1425BOLB   C4C34196  23.370  20.900   5.710
 1425BOLB   C1D34197  24.800  20.700   4.780
 1425BOLB   C2D34198  24.640  20.450   5.110
 1425BOLB   C3D34199  24.230  20.330   5.350
 1425BOLB   C4D34200  23.990  20.300   5.730
 1426BOLB   NC134201   7.980  17.760   9.910
 1426BOLB   PO134202   7.880  17.500  10.260
 1426BOLB   GL134203   7.540  17.540  10.080
 1426BOLB   GL234204   7.310  17.440  10.290
 1426BOLB   C1A34205   7.140  17.810   9.970
 1426BOLB   C2A34206   7.060  17.990   9.550
 1426BOLB   C3A34207   6.850  17.960   9.120
 1426BOLB   C4A34208   6.510  18.100   9.000
 1426BOLB   C1B34209   7.130  16.980  10.280
 1426BOLB   C2B34210   6.780  16.790  10.040
 1426BOLB   C3B34211   6.460  16.810   9.770
 1426BOLB   C4B34212   6.210  16.510   9.710
 1426BOLB   NC234213   4.460  18.260   8.350
 1426BOLB   PO234214   4.530  18.170   7.900
 1426BOLB   GL334215   4.840  18.500   8.120
 1426BOLB   GL434216   5.120  18.720   7.900
 1426BOLB   C1C34217   5.290  18.470   8.400
 1426BOLB   C2C34218   5.610  18.400   8.660
 1426BOLB   C3C34219   5.940  18.680   8.710
 1426BOLB   C4C34220   6.340  18.490   8.900
 1426BOLB   C1D34221   5.480  18.850   8.100
 1426BOLB   C2D34222   5.510  18.890   8.600
 1426BOLB   C3D34223   5.310  19.230   8.960
 1426BOLB   C4D34224   5.220  19.370   9.440
 1427BOLB   NC134225  18.900  14.460   0.460
 1427BOLB   PO134226  18.460  14.510   0.530
 1427BOLB   GL134227  18.420  14.540   1.000
 1427BOLB   GL234228  18.270  14.420   1.050
 1427BOLB   C1A34229  18.450  14.570   1.500
 1427BOLB   C2A34230  18.350  14.460   1.910
 1427BOLB   C3A34231  18.150  14.760   2.150
 1427BOLB   C4A34232  18.220  15.140   2.220
 1427BOLB   C1B34233  18.010  14.600   1.270
 1427BOLB   C2B34234  17.960  14.760   1.670
 1427BOLB   C3B34235  17.830  15.110   1.920
 1427BOLB   C4B34236  17.740  15.610   1.940
 1427BOLB   NC234237  18.160  17.220   0.310
 1427BOLB   PO234238  18.060  16.770   0.310
 1427BOLB   GL334239  17.990  16.510   0.540
 1427BOLB   GL434240  17.600  16.430   0.550
 1427BOLB   C1C34241  18.110  16.290   0.940
 1427BOLB   C2C34242  18.160  15.970   1.200
 1427BOLB   C3C34243  18.240  15.650   1.470
 1427BOLB   C4C34244  18.260  15.430   1.960
 1427BOLB   C1D34245  17.450  16.770   0.580
 1427BOLB   C2D34246  17.300  17.200   0.700
 1427BOLB   C3D34247  17.250  17.370   1.120
 1427BOLB   C4D34248  17.260  17.390   1.630
 1428BOLB   NC134249  10.840  16.540   7.590
 1428BOLB   PO134250  10.610  16.520   7.180
 1428BOLB   GL134251  10.280  16.780   7.000
 1428BOLB   GL234252  10.050  16.980   7.210
 1428BOLB   C1A34253  10.060  16.710   6.620
 1428BOLB   C2A34254   9.850  16.740   6.190
 1428BOLB   C3A34255   9.420  16.790   6.000
 1428BOLB   C4A34256   9.310  16.570   5.610
 1428BOLB   C1B34257   9.720  16.920   6.970
 1428BOLB   C2B34258   9.560  16.820   6.590
 1428BOLB   C3B34259   9.240  16.990   6.420
 1428BOLB   C4B34260   8.940  16.850   6.160
 1428BOLB   NC234261   7.450  17.040   4.010
 1428BOLB   PO234262   7.480  16.590   3.940
 1428BOLB   GL334263   7.710  16.650   4.210
 1428BOLB   GL434264   7.530  16.790   4.490
 1428BOLB   C1C34265   8.030  16.450   4.410
 1428BOLB   C2C34266   8.260  16.430   4.850
 1428BOLB   C3C34267   8.630  16.490   5.080
 1428BOLB   C4C34268   9.000  16.470   5.330
 1428BOLB   C1D34269   7.590  17.160   4.760
 1428BOLB   C2D34270   7.900  17.380   5.060
 1428BOLB   C3D34271   8.160  17.490   5.320
 1428BOLB   C4D34272   8.330  17.590   5.700
 1429BOLB   NC134273  19.780  26.220   4.840
 1429BOLB   PO134274  20.130  25.780   4.930
 1429BOLB   GL134275  20.030  25.340   5.190
 1429BOLB   GL234276  19.830  25.030   4.980
 1429BOLB   C1A34277  20.220  25.060   5.450
 1429BOLB   C2A34278  20.060  24.690   5.700
 1429BOLB   C3A34279  19.920  24.410   5.870
 1429BOLB   C4A34280  19.850  24.140   6.120
 1429BOLB   C1B34281  19.750  24.910   5.420
 1429BOLB   C2B34282  19.420  24.590   5.580
 1429BOLB   C3B34283  19.460  24.160   5.650
 1429BOLB   C4B34284  19.340  23.880   5.860
 1429BOLB   NC234285  18.650  22.190   7.580
 1429BOLB   PO234286  18.920  22.500   7.460
 1429BOLB   GL334287  19.030  22.750   7.230
 1429BOLB   GL434288  18.760  22.860   6.980
 1429BOLB   C1C34289  19.180  23.110   7.100
 1429BOLB   C2C34290  19.190  23.360   6.810
 1429BOLB   C3C34291  19.350  23.640   6.510
 1429BOLB   C4C34292  19.630  23.800   6.270
 1429BOLB   C1D34293  18.760  23.110   6.610
 1429BOLB   C2D34294  18.720  23.380   6.230
 1429BOLB   C3D34295  18.970  23.670   6.090
 1429BOLB   C4D34296  18.930  24.100   6.220
 1430BOLB   NC134297  22.440  22.070   8.490
 1430BOLB   PO134298  22.690  22.040   8.930
 1430BOLB   GL134299  23.070  22.220   8.930
 1430BOLB   GL234300  23.220  22.480   9.140
 1430BOLB   C1A34301  23.270  22.620   8.680
 1430BOLB   C2A34302  23.230  23.080   8.580
 1430BOLB   C3A34303  23.200  23.490   8.640
 1430BOLB   C4A34304  23.180  23.940   8.630
 1430BOLB   C1B34305  23.340  22.870   9.060
 1430BOLB   C2B34306  23.590  23.160   8.830
 1430BOLB   C3B34307  23.700  23.600   8.640
 1430BOLB   C4B34308  23.690  24.090   8.590
 1430BOLB   NC234309  23.770  26.070   8.040
 1430BOLB   PO234310  23.390  25.870   7.930
 1430BOLB   GL334311  23.000  25.660   8.080
 1430BOLB   GL434312  22.750  25.820   7.950
 1430BOLB   C1C34313  22.800  25.390   8.420
 1430BOLB   C2C34314  22.750  24.940   8.470
 1430BOLB   C3C34315  23.070  24.730   8.350
 1430BOLB   C4C34316  23.210  24.390   8.540
 1430BOLB   C1D34317  22.620  25.540   7.680
 1430BOLB   C2D34318  22.900  25.180   7.500
 1430BOLB   C3D34319  23.320  24.980   7.590
 1430BOLB   C4D34320  23.700  25.000   7.340
 1431BOLB   NC134321  24.070  15.440  12.320
 1431BOLB   PO134322  24.240  15.560  12.750
 1431BOLB   GL134323  24.560  15.690  12.970
 1431BOLB   GL234324  24.520  15.710  13.270
 1431BOLB   C1A34325  24.960  15.570  13.030
 1431BOLB   C2A34326  25.200  15.340  13.370
 1431BOLB   C3A34327  25.520  15.060  13.420
 1431BOLB   C4A34328  25.760  14.650  13.410
 1431BOLB   C1B34329  24.800  15.570  13.550
 1431BOLB   C2B34330  24.970  15.340  13.800
 1431BOLB   C3B34331  25.260  15.080  13.830
 1431BOLB   C4B34332  25.670  14.890  13.980
 1431BOLB   NC234333  27.990  13.150  13.650
 1431BOLB   PO234334  27.570  12.940  13.920
 1431BOLB   GL334335  27.160  13.080  13.920
 1431BOLB   GL434336  27.090  13.090  13.600
 1431BOLB   C1C34337  27.090  13.510  13.920
 1431BOLB   C2C34338  26.800  13.840  13.710
 1431BOLB   C3C34339  26.260  13.960  13.750
 1431BOLB   C4C34340  26.140  14.440  13.570
 1431BOLB   C1D34341  26.790  13.340  13.390
 1431BOLB   C2D34342  26.730  13.460  13.090
 1431BOLB   C3D34343  26.870  13.850  12.800
 1431BOLB   C4D34344  27.100  14.220  12.790
 1432BOLB   NC134345   4.640  20.790  10.560
 1432BOLB   PO134346   4.760  20.370  10.370
 1432BOLB   GL134347   5.200  20.470  10.270
 1432BOLB   GL234348   5.200  20.710  10.560
 1432BOLB   C1A34349   5.620  20.540  10.250
 1432BOLB   C2A34350   6.040  20.610  10.330
 1432BOLB   C3A34351   6.410  20.770  10.140
 1432BOLB   C4A34352   6.720  20.920   9.790
 1432BOLB   C1B34353   5.550  20.560  10.740
 1432BOLB   C2B34354   5.630  20.730  11.130
 1432BOLB   C3B34355   5.900  20.690  11.480
 1432BOLB   C4B34356   6.340  20.570  11.310
 1432BOLB   NC234357   6.100  22.110   8.090
 1432BOLB   PO234358   6.100  22.210   8.610
 1432BOLB   GL334359   6.290  22.020   8.940
 1432BOLB   GL434360   6.250  22.220   9.230
 1432BOLB   C1C34361   6.690  21.870   8.950
 1432BOLB   C2C34362   7.120  21.770   9.140
 1432BOLB   C3C34363   7.280  21.360   9.370
 1432BOLB   C4C34364   6.850  21.140   9.430
 1432BOLB   C1D34365   6.650  22.000   9.510
 1432BOLB   C2D34366   7.060  21.840   9.710
 1432BOLB   C3D34367   7.490  21.660   9.730
 1432BOLB   C4D34368   7.540  21.250   9.830
 1433BOLB   NC134369  20.950  22.550  15.680
 1433BOLB   PO134370  20.970  22.810  16.070
 1433BOLB   GL134371  21.330  23.030  16.200
 1433BOLB   GL234372  21.560  23.210  16.010
 1433BOLB   C1A34373  21.770  22.920  16.330
 1433BOLB   C2A34374  22.150  22.800  16.560
 1433BOLB   C3A34375  22.360  22.930  16.890
 1433BOLB   C4A34376  22.680  23.110  17.130
 1433BOLB   C1B34377  21.750  23.480  16.320
 1433BOLB   C2B34378  21.950  23.810  16.500
 1433BOLB   C3B34379  22.060  24.000  16.800
 1433BOLB   C4B34380  22.110  24.130  17.180
 1433BOLB   NC234381  25.020  24.920  17.940
 1433BOLB   PO234382  24.800  24.590  17.590
 1433BOLB   GL334383  24.370  24.340  17.320
 1433BOLB   GL434384  24.440  23.920  17.430
 1433BOLB   C1C34385  23.960  24.210  17.430
 1433BOLB   C2C34386  23.560  23.880  17.430
 1433BOLB   C3C34387  23.240  23.700  17.330
 1433BOLB   C4C34388  22.940  23.400  17.070
 1433BOLB   C1D34389  24.140  23.880  17.110
 1433BOLB   C2D34390  23.740  23.670  17.000
 1433BOLB   C3D34391  23.300  23.660  16.810
 1433BOLB   C4D34392  22.910  23.770  16.620
 1434BOLB   NC134393  24.010  15.150  12.850
 1434BOLB   PO134394  23.980  15.380  13.330
 1434BOLB   GL134395  24.300  15.250  13.380
 1434BOLB   GL234396  24.480  15.180  13.080
 1434BOLB   C1A34397  24.540  15.030  13.680
 1434BOLB   C2A34398  24.820  14.810  13.970
 1434BOLB   C3A34399  25.210  14.570  14.190
 1434BOLB   C4A34400  25.540  14.400  14.360
 1434BOLB   C1B34401  24.870  15.050  13.240
 1434BOLB   C2B34402  25.090  14.820  13.460
 1434BOLB   C3B34403  25.300  14.500  13.690
 1434BOLB   C4B34404  25.400  14.110  13.540
 1434BOLB   NC234405  28.050  14.400  14.500
 1434BOLB   PO234406  27.810  14.110  14.110
 1434BOLB   GL334407  27.390  14.210  14.340
 1434BOLB   GL434408  27.380  14.380  14.580
 1434BOLB   C1C34409  27.010  14.140  14.230
 1434BOLB   C2C34410  26.710  14.080  14.510
 1434BOLB   C3C34411  26.320  14.160  14.550
 1434BOLB   C4C34412  25.970  14.270  14.580
 1434BOLB   C1D34413  27.320  14.750  14.580
 1434BOLB   C2D34414  27.070  15.060  14.720
 1434BOLB   C3D34415  26.620  15.080  14.790
 1434BOLB   C4D34416  26.300  15.120  14.630
 1435BOLB   NC134417   2.340  10.560  14.860
 1435BOLB   PO134418   2.600  10.200  14.940
 1435BOLB   GL134419   2.990  10.390  14.930
 1435BOLB   GL234420   2.900  10.770  14.900
 1435BOLB   C1A34421   3.480  10.280  14.780
 1435BOLB   C2A34422   3.830  10.490  15.020
 1435BOLB   C3A34423   4.250  10.660  15.310
 1435BOLB   C4A34424   4.420  10.820  15.680
 1435BOLB   C1B34425   3.230  10.700  15.250
 1435BOLB   C2B34426   3.670  10.720  15.470
 1435BOLB   C3B34427   3.910  10.980  15.680
 1435BOLB   C4B34428   3.900  11.420  15.880
 1435BOLB   NC234429   3.130  11.010  18.060
 1435BOLB   PO234430   3.340  10.590  17.770
 1435BOLB   GL334431   3.650  10.440  17.520
 1435BOLB   GL434432   3.710  10.180  17.490
 1435BOLB   C1C34433   4.030  10.530  17.220
 1435BOLB   C2C34434   4.220  10.720  16.960
 1435BOLB   C3C34435   4.230  10.770  16.540
 1435BOLB   C4C34436   4.290  10.870  16.030
 1435BOLB   C1D34437   4.140  10.050  17.420
 1435BOLB   C2D34438   4.500  10.220  17.630
 1435BOLB   C3D34439   4.830  10.490  17.590
 1435BOLB   C4D34440   5.210  10.660  17.660
 1436BOLB   NC134441  19.580   9.780  13.540
 1436BOLB   PO134442  19.320   9.820  14.000
 1436BOLB   GL134443  19.310   9.640  14.350
 1436BOLB   GL234444  19.100   9.540  14.420
 1436BOLB   C1A34445  19.450   9.390  14.710
 1436BOLB   C2A34446  19.520   9.020  14.750
 1436BOLB   C3A34447  19.390   8.650  14.560
 1436BOLB   C4A34448  19.360   8.260  14.260
 1436BOLB   C1B34449  18.830   9.330  14.700
 1436BOLB   C2B34450  18.560   9.180  15.000
 1436BOLB   C3B34451  18.560   8.770  15.130
 1436BOLB   C4B34452  18.570   8.480  15.450
 1436BOLB   NC234453  20.390   5.880  14.810
 1436BOLB   PO234454  20.430   6.130  14.410
 1436BOLB   GL334455  20.300   6.440  14.420
 1436BOLB   GL434456  20.360   6.670  14.560
 1436BOLB   C1C34457  20.260   6.770  14.090
 1436BOLB   C2C34458  20.030   7.190  14.110
 1436BOLB   C3C34459  19.760   7.600  14.000
 1436BOLB   C4C34460  19.590   8.050  14.010
 1436BOLB   C1D34461  19.980   6.900  14.550
 1436BOLB   C2D34462  19.700   7.100  14.610
 1436BOLB   C3D34463  19.430   7.060  14.910
 1436BOLB   C4D34464  19.270   6.730  15.170
 1437BOLB   NC134465  24.130  16.350  10.210
 1437BOLB   PO134466  24.120  16.010  10.010
 1437BOLB   GL134467  24.470  15.880  10.030
 1437BOLB   GL234468  24.600  16.040  10.220
 1437BOLB   C1A34469  24.940  15.840   9.860
 1437BOLB   C2A34470  25.210  15.660   9.590
 1437BOLB   C3A34471  25.370  15.860   9.090
 1437BOLB   C4A34472  25.670  15.960   8.730
 1437BOLB   C1B34473  25.010  16.150  10.360
 1437BOLB   C2B34474  25.390  16.050  10.430
 1437BOLB   C3B34475  25.730  15.840  10.430
 1437BOLB   C4B34476  26.160  16.070  10.390
 1437BOLB   NC234477  26.960  16.060   6.670
 1437BOLB   PO234478  27.060  15.600   6.930
 1437BOLB   GL334479  26.720  15.780   7.220
 1437BOLB   GL434480  26.830  16.120   7.240
 1437BOLB   C1C34481  26.430  15.650   7.340
 1437BOLB   C2C34482  26.130  15.570   7.730
 1437BOLB   C3C34483  26.120  15.690   8.120
 1437BOLB   C4C34484  25.990  15.830   8.520
 1437BOLB   C1D34485  26.540  16.110   7.610
 1437BOLB   C2D34486  26.350  16.100   8.020
 1437BOLB   C3D34487  25.990  16.210   8.190
 1437BOLB   C4D34488  25.590  16.270   8.290
 1438BOLB   NC134489  20.840  19.570  18.350
 1438BOLB   PO134490  20.810  19.030  18.200
 1438BOLB   GL134491  21.190  19.200  18.170
 1438BOLB   GL234492  21.270  19.390  18.500
 1438BOLB   C1A34493  21.700  19.230  18.290
 1438BOLB   C2A34494  22.000  19.510  18.490
 1438BOLB   C3A34495  22.170  19.650  18.820
 1438BOLB   C4A34496  22.620  19.580  18.860
 1438BOLB   C1B34497  21.520  19.670  18.790
 1438BOLB   C2B34498  21.650  19.990  19.040
 1438BOLB   C3B34499  21.890  20.360  19.200
 1438BOLB   C4B34500  22.220  20.360  19.440
 1438BOLB   NC234501  24.770  19.670  19.980
 1438BOLB   PO234502  24.910  19.750  19.540
 1438BOLB   GL334503  24.680  19.940  19.130
 1438BOLB   GL434504  24.830  19.940  18.740
 1438BOLB   C1C34505  24.230  19.870  18.980
 1438BOLB   C2C34506  23.840  19.760  19.130
 1438BOLB   C3C34507  23.420  19.710  18.940
 1438BOLB   C4C34508  22.970  19.600  18.950
 1438BOLB   C1D34509  24.830  19.890  18.330
 1438BOLB   C2D34510  24.500  19.860  18.100
 1438BOLB   C3D34511  24.060  19.780  18.130
 1438BOLB   C4D34512  23.640  20.080  18.110
 1439BOLB   NC134513   8.570  19.580  11.650
 1439BOLB   PO134514   8.810  20.010  11.620
 1439BOLB   GL134515   8.370  20.380  11.650
 1439BOLB   GL234516   8.180  20.390  11.320
 1439BOLB   C1A34517   8.030  20.660  11.820
 1439BOLB   C2A34518   7.750  20.990  11.930
 1439BOLB   C3A34519   7.540  21.170  12.260
 1439BOLB   C4A34520   7.140  21.310  12.560
 1439BOLB   C1B34521   7.890  20.740  11.220
 1439BOLB   C2B34522   7.550  20.920  11.370
 1439BOLB   C3B34523   7.240  20.860  11.670
 1439BOLB   C4B34524   6.910  20.630  11.790
 1439BOLB   NC234525   5.040  23.060  12.720
 1439BOLB   PO234526   5.270  22.960  12.410
 1439BOLB   GL334527   5.730  22.700  12.500
 1439BOLB   GL434528   5.710  22.850  12.110
 1439BOLB   C1C34529   5.970  22.510  12.430
 1439BOLB   C2C34530   6.130  22.040  12.540
 1439BOLB   C3C34531   6.340  21.690  12.650
 1439BOLB   C4C34532   6.740  21.440  12.800
 1439BOLB   C1D34533   6.040  22.770  11.980
 1439BOLB   C2D34534   6.410  22.530  12.060
 1439BOLB   C3D34535   6.790  22.570  12.180
 1439BOLB   C4D34536   7.030  22.630  12.420
 1440BOLB   NC134537  11.240  17.790   6.280
 1440BOLB   PO134538  10.900  17.810   6.520
 1440BOLB   GL134539  10.590  17.630   6.330
 1440BOLB   GL234540  10.590  17.300   6.110
 1440BOLB   C1A34541  10.100  17.540   6.160
 1440BOLB   C2A34542   9.700  17.710   6.170
 1440BOLB   C3A34543   9.350  17.900   5.930
 1440BOLB   C4A34544   9.120  17.610   5.720
 1440BOLB   C1B34545  10.200  17.150   5.890
 1440BOLB   C2B34546   9.980  17.370   5.650
 1440BOLB   C3B34547   9.610  17.620   5.640
 1440BOLB   C4B34548   9.420  17.940   5.410
 1440BOLB   NC234549   7.050  17.310   3.930
 1440BOLB   PO234550   7.440  17.480   4.020
 1440BOLB   GL334551   7.870  17.770   4.220
 1440BOLB   GL434552   8.190  17.760   3.980
 1440BOLB   C1C34553   8.030  17.720   4.660
 1440BOLB   C2C34554   8.350  17.690   4.880
 1440BOLB   C3C34555   8.580  17.390   5.190
 1440BOLB   C4C34556   8.780  17.350   5.560
 1440BOLB   C1D34557   8.690  17.760   3.860
 1440BOLB   C2D34558   8.920  18.020   4.000
 1440BOLB   C3D34559   8.920  18.440   4.180
 1440BOLB   C4D34560   9.280  18.780   4.410
 1441BOLB   NC134561  13.690  12.090   6.230
 1441BOLB   PO134562  13.550  11.790   5.950
 1441BOLB   GL134563  13.580  11.690   5.530
 1441BOLB   GL234564  13.360  11.760   5.300
 1441BOLB   C1A34565  13.660  11.370   5.210
 1441BOLB   C2A34566  13.250  11.300   4.980
 1441BOLB   C3A34567  13.040  11.040   4.720
 1441BOLB   C4A34568  13.100  10.800   4.340
 1441BOLB   C1B34569  13.130  11.790   4.890
 1441BOLB   C2B34570  12.800  11.890   4.640
 1441BOLB   C3B34571  12.750  11.820   4.170
 1441BOLB   C4B34572  12.420  11.900   3.870
 1441BOLB   NC234573  14.350   9.620   2.340
 1441BOLB   PO234574  13.890   9.630   2.400
 1441BOLB   GL334575  13.690   9.790   2.710
 1441BOLB   GL434576  13.690  10.090   2.600
 1441BOLB   C1C34577  13.510  10.060   3.080
 1441BOLB   C2C34578  13.380  10.440   3.210
 1441BOLB   C3C34579  13.520  10.730   3.510
 1441BOLB   C4C34580  13.370  10.770   3.920
 1441BOLB   C1D34581  13.760  10.400   2.850
 1441BOLB   C2D34582  13.870  10.480   3.230
 1441BOLB   C3D34583  13.920  10.440   3.690
 1441BOLB   C4D34584  13.740  10.470   4.100
 1442BOLB   NC134585  22.690  15.150   7.810
 1442BOLB   PO134586  22.620  15.440   7.600
 1442BOLB   GL134587  22.990  15.410   7.420
 1442BOLB   GL234588  23.070  15.110   7.350
 1442BOLB   C1A34589  23.330  15.500   7.410
 1442BOLB   C2A34590  23.690  15.310   7.450
 1442BOLB   C3A34591  24.030  15.330   7.170
 1442BOLB   C4A34592  24.110  15.110   6.810
 1442BOLB   C1B34593  23.360  15.020   7.150
 1442BOLB   C2B34594  23.570  15.010   6.850
 1442BOLB   C3B34595  23.720  14.920   6.500
 1442BOLB   C4B34596  24.000  14.730   6.330
 1442BOLB   NC234597  26.480  14.650   5.590
 1442BOLB   PO234598  26.170  14.580   5.930
 1442BOLB   GL334599  25.840  14.730   6.140
 1442BOLB   GL434600  25.880  14.950   6.340
 1442BOLB   C1C34601  25.450  14.970   6.170
 1442BOLB   C2C34602  25.170  14.980   6.130
 1442BOLB   C3C34603  24.850  14.660   6.310
 1442BOLB   C4C34604  24.440  14.810   6.560
 1442BOLB   C1D34605  25.580  15.200   6.630
 1442BOLB   C2D34606  25.320  15.490   6.570
 1442BOLB   C3D34607  24.900  15.580   6.760
 1442BOLB   C4D34608  24.390  15.580   6.850
 1443BOLB   NC134609  16.260   9.610   8.410
 1443BOLB   PO134610  15.780   9.590   8.310
 1443BOLB   GL134611  16.080   9.320   7.850
 1443BOLB   GL234612  16.300   9.250   8.020
 1443BOLB   C1A34613  15.930   8.970   7.710
 1443BOLB   C2A34614  15.880   8.640   7.390
 1443BOLB   C3A34615  15.800   8.180   7.310
 1443BOLB   C4A34616  15.630   7.780   7.110
 1443BOLB   C1B34617  16.440   8.840   7.970
 1443BOLB   C2B34618  16.360   8.440   7.800
 1443BOLB   C3B34619  16.080   8.070   7.800
 1443BOLB   C4B34620  15.720   7.860   7.770
 1443BOLB   NC234621  15.440   5.220   6.950
 1443BOLB   PO234622  15.400   5.270   7.460
 1443BOLB   GL334623  15.400   5.680   7.530
 1443BOLB   GL434624  15.440   5.760   7.780
 1443BOLB   C1C34625  15.730   6.100   7.450
 1443BOLB   C2C34626  15.790   6.530   7.390
 1443BOLB   C3C34627  15.810   7.010   7.320
 1443BOLB   C4C34628  15.690   7.450   7.200
 1443BOLB   C1D34629  15.260   6.240   7.720
 1443BOLB   C2D34630  15.400   6.630   7.610
 1443BOLB   C3D34631  15.430   6.810   7.120
 1443BOLB   C4D34632  15.680   7.160   6.850
 1444BOLB   NC134633  14.140  11.830   6.160
 1444BOLB   PO134634  14.010  11.650   5.760
 1444BOLB   GL134635  13.750  11.260   5.740
 1444BOLB   GL234636  13.880  11.050   5.820
 1444BOLB   C1A34637  13.290  11.060   5.460
 1444BOLB   C2A34638  13.100  10.730   5.590
 1444BOLB   C3A34639  12.920  10.360   5.390
 1444BOLB   C4A34640  12.820  10.090   5.060
 1444BOLB   C1B34641  13.820  10.710   5.450
 1444BOLB   C2B34642  13.840  10.440   4.970
 1444BOLB   C3B34643  13.670  10.360   4.640
 1444BOLB   C4B34644  13.380  10.360   4.380
 1444BOLB   NC234645  11.330   8.490   3.920
 1444BOLB   PO234646  11.390   8.810   3.630
 1444BOLB   GL334647  11.460   9.180   3.890
 1444BOLB   GL434648  11.370   9.580   3.740
 1444BOLB   C1C34649  11.680   9.220   4.330
 1444BOLB   C2C34650  12.050   9.410   4.600
 1444BOLB   C3C34651  12.490   9.490   4.590
 1444BOLB   C4C34652  12.600   9.760   4.990
 1444BOLB   C1D34653  11.490   9.610   4.190
 1444BOLB   C2D34654  11.650   9.780   4.510
 1444BOLB   C3D34655  12.060   9.900   4.710
 1444BOLB   C4D34656  12.520  10.000   4.500
 1445BOLB   NC134657   7.940  17.490  10.860
 1445BOLB   PO134658   7.870  17.730  11.200
 1445BOLB   GL134659   7.480  17.820  11.210
 1445BOLB   GL234660   7.370  18.010  11.440
 1445BOLB   C1A34661   7.050  18.020  11.070
 1445BOLB   C2A34662   6.640  18.010  10.790
 1445BOLB   C3A34663   6.150  18.080  10.830
 1445BOLB   C4A34664   5.850  18.270  10.990
 1445BOLB   C1B34665   7.050  17.780  11.540
 1445BOLB   C2B34666   6.570  17.770  11.700
 1445BOLB   C3B34667   6.180  17.780  11.770
 1445BOLB   C4B34668   5.760  17.870  11.790
 1445BOLB   NC234669   3.680  19.280  10.790
 1445BOLB   PO234670   3.970  19.090  10.490
 1445BOLB   GL334671   4.120  18.960  10.820
 1445BOLB   GL434672   4.420  19.210  10.900
 1445BOLB   C1C34673   4.260  18.930  11.280
 1445BOLB   C2C34674   4.700  18.740  11.340
 1445BOLB   C3C34675   5.150  18.660  11.380
 1445BOLB   C4C34676   5.540  18.530  11.330
 1445BOLB   C1D34677   4.550  18.750  10.840
 1445BOLB   C2D34678   5.030  18.720  10.800
 1445BOLB   C3D34679   5.450  18.610  10.700
 1445BOLB   C4D34680   5.940  18.830  10.690
 1446BOLB   NC134681  17.690   9.670  10.750
 1446BOLB   PO134682  17.820   9.220  10.560
 1446BOLB   GL134683  17.970   8.840  10.630
 1446BOLB   GL234684  18.230   8.710  10.510
 1446BOLB   C1A34685  17.790   8.420  10.810
 1446BOLB   C2A34686  17.760   8.060  10.750
 1446BOLB   C3A34687  18.060   7.720  10.750
 1446BOLB   C4A34688  18.180   7.310  10.760
 1446BOLB   C1B34689  18.160   8.330  10.450
 1446BOLB   C2B34690  18.400   8.000  10.180
 1446BOLB   C3B34691  18.430   7.720   9.850
 1446BOLB   C4B34692  18.580   7.390   9.750
 1446BOLB   NC234693  19.590   5.220  10.940
 1446BOLB   PO234694  19.590   5.620  10.620
 1446BOLB   GL334695  19.290   5.840  10.720
 1446BOLB   GL434696  19.060   5.590  10.660
 1446BOLB   C1C34697  19.300   6.260  10.780
 1446BOLB   C2C34698  19.120   6.540  10.750
 1446BOLB   C3C34699  18.680   6.640  11.000
 1446BOLB   C4C34700  18.510   7.070  10.830
 1446BOLB   C1D34701  18.980   5.910  10.380
 1446BOLB   C2D34702  19.020   6.330  10.150
 1446BOLB   C3D34703  18.930   6.600   9.880
 1446BOLB   C4D34704  18.720   6.930   9.690
 1447BOLB   NC134705   7.630  15.070  10.140
 1447BOLB   PO134706   7.710  15.310  10.450
 1447BOLB   GL134707   7.260  15.100  10.480
 1447BOLB   GL234708   7.190  14.860  10.150
 1447BOLB   C1A34709   6.790  15.040  10.690
 1447BOLB   C2A34710   6.380  15.070  10.980
 1447BOLB   C3A34711   5.930  15.130  11.100
 1447BOLB   C4A34712   5.670  14.980  11.030
 1447BOLB   C1B34713   6.910  14.620  10.450
 1447BOLB   C2B34714   7.220  14.240  10.660
 1447BOLB   C3B34715   7.320  14.320  11.170
 1447BOLB   C4B34716   7.550  14.430  11.500
 1447BOLB   NC234717   3.240  14.690   9.480
 1447BOLB   PO234718   3.580  14.690   9.840
 1447BOLB   GL334719   3.980  14.670   9.890
 1447BOLB   GL434720   3.990  14.580  10.160
 1447BOLB   C1C34721   4.430  14.810  10.020
 1447BOLB   C2C34722   4.750  14.690  10.330
 1447BOLB   C3C34723   5.120  14.840  10.350
 1447BOLB   C4C34724   5.410  14.900  10.660
 1447BOLB   C1D34725   4.130  14.710  10.480
 1447BOLB   C2D34726   4.390  14.690  10.750
 1447BOLB   C3D34727   4.850  14.620  10.870
 1447BOLB   C4D34728   5.230  14.450  10.830
 1448BOLB   NC134729  20.200  10.590  13.180
 1448BOLB   PO134730  20.620  10.450  13.060
 1448BOLB   GL134731  20.850  10.160  13.310
 1448BOLB   GL234732  20.940  10.330  13.510
 1448BOLB   C1A34733  21.160   9.870  13.270
 1448BOLB   C2A34734  21.500   9.660  13.420
 1448BOLB   C3A34735  21.730   9.530  13.820
 1448BOLB   C4A34736  21.850   9.300  14.230
 1448BOLB   C1B34737  21.230   9.940  13.780
 1448BOLB   C2B34738  21.300   9.590  13.990
 1448BOLB   C3B34739  21.340   9.180  14.270
 1448BOLB   C4B34740  21.430   8.890  14.550
 1448BOLB   NC234741  23.590   8.290  15.680
 1448BOLB   PO234742  23.790   8.370  15.280
 1448BOLB   GL334743  23.410   8.640  15.330
 1448BOLB   GL434744  23.330   8.900  15.530
 1448BOLB   C1C34745  22.930   8.730  15.190
 1448BOLB   C2C34746  22.580   8.690  15.010
 1448BOLB   C3C34747  22.270   8.920  14.790
 1448BOLB   C4C34748  22.080   9.300  14.700
 1448BOLB   C1D34749  22.930   9.040  15.680
 1448BOLB   C2D34750  22.470   8.870  15.610
 1448BOLB   C3D34751  22.090   8.800  15.260
 1448BOLB   C4D34752  21.730   9.000  15.010
 1449BOLB   NC134753  22.430  12.200  12.720
 1449BOLB   PO134754  22.190  12.320  13.050
 1449BOLB   GL134755  22.470  12.080  13.350
 1449BOLB   GL234756  22.610  11.930  13.100
 1449BOLB   C1A34757  22.830  11.830  13.640
 1449BOLB   C2A34758  22.940  11.450  13.700
 1449BOLB   C3A34759  22.970  11.110  14.030
 1449BOLB   C4A34760  23.260  10.760  14.030
 1449BOLB   C1B34761  22.980  11.720  13.230
 1449BOLB   C2B34762  23.220  11.310  13.370
 1449BOLB   C3B34763  23.590  11.140  13.550
 1449BOLB   C4B34764  23.890  11.020  13.450
 1449BOLB   NC234765  24.960   9.530  15.040
 1449BOLB   PO234766  24.620   9.460  15.170
 1449BOLB   GL334767  24.300   9.450  14.860
 1449BOLB   GL434768  23.970   9.250  15.040
 1449BOLB   C1C34769  23.980   9.590  14.650
 1449BOLB   C2C34770  23.660   9.860  14.510
 1449BOLB   C3C34771  23.460  10.170  14.270
 1449BOLB   C4C34772  23.310  10.340  13.930
 1449BOLB   C1D34773  23.640   9.470  15.120
 1449BOLB   C2D34774  23.290   9.700  15.260
 1449BOLB   C3D34775  22.970   9.930  15.300
 1449BOLB   C4D34776  22.540   9.960  15.180
 1450BOLB   NC134777  11.040  22.410   9.710
 1450BOLB   PO134778  11.470  22.430   9.540
 1450BOLB   GL134779  11.270  22.690   9.320
 1450BOLB   GL234780  11.470  22.700   9.010
 1450BOLB   C1A34781  10.950  23.060   9.400
 1450BOLB   C2A34782  10.720  23.320   9.550
 1450BOLB   C3A34783  10.770  23.780   9.450
 1450BOLB   C4A34784  10.670  24.140   9.400
 1450BOLB   C1B34785  11.200  22.850   8.840
 1450BOLB   C2B34786  10.920  23.110   8.740
 1450BOLB   C3B34787  10.570  23.140   8.590
 1450BOLB   C4B34788  10.280  22.860   8.490
 1450BOLB   NC234789  10.190  26.040   8.290
 1450BOLB   PO234790   9.790  25.870   8.070
 1450BOLB   GL334791   9.980  25.480   8.030
 1450BOLB   GL434792  10.110  25.260   7.780
 1450BOLB   C1C34793  10.250  25.040   8.230
 1450BOLB   C2C34794  10.370  24.840   8.560
 1450BOLB   C3C34795  10.250  24.590   8.870
 1450BOLB   C4C34796  10.440  24.490   9.150
 1450BOLB   C1D34797  10.470  24.980   7.830
 1450BOLB   C2D34798  10.720  24.840   8.140
 1450BOLB   C3D34799  10.890  24.730   8.510
 1450BOLB   C4D34800  10.710  24.350   8.740
 1451BOLB   NC134801  18.920  23.080  17.070
 1451BOLB   PO134802  18.860  23.280  17.460
 1451BOLB   GL134803  19.020  23.510  17.820
 1451BOLB   GL234804  19.360  23.320  17.930
 1451BOLB   C1A34805  19.230  23.790  18.060
 1451BOLB   C2A34806  19.340  24.040  18.500
 1451BOLB   C3A34807  19.580  24.250  18.830
 1451BOLB   C4A34808  19.980  24.250  19.100
 1451BOLB   C1B34809  19.690  23.510  18.190
 1451BOLB   C2B34810  19.820  23.950  18.120
 1451BOLB   C3B34811  20.120  24.370  18.070
 1451BOLB   C4B34812  20.460  24.460  18.060
 1451BOLB   NC234813  21.060  24.740  21.370
 1451BOLB   PO234814  20.840  25.000  21.120
 1451BOLB   GL334815  20.670  25.140  20.720
 1451BOLB   GL434816  20.910  25.240  20.610
 1451BOLB   C1C34817  20.530  25.070  20.260
 1451BOLB   C2C34818  20.440  24.970  19.930
 1451BOLB   C3C34819  20.380  24.650  19.690
 1451BOLB   C4C34820  20.200  24.530  19.340
 1451BOLB   C1D34821  21.010  25.160  20.110
 1451BOLB   C2D34822  21.100  24.750  19.880
 1451BOLB   C3D34823  21.250  24.660  19.440
 1451BOLB   C4D34824  21.050  24.710  19.030
 1452BOLB   NC134825  13.520   8.860  12.910
 1452BOLB   PO134826  13.780   9.000  13.200
 1452BOLB   GL134827  13.820   8.590  13.150
 1452BOLB   GL234828  14.150   8.460  13.270
 1452BOLB   C1A34829  13.690   8.170  13.350
 1452BOLB   C2A34830  13.930   7.750  13.630
 1452BOLB   C3A34831  14.280   7.510  13.700
 1452BOLB   C4A34832  14.200   7.080  13.740
 1452BOLB   C1B34833  14.160   8.030  13.180
 1452BOLB   C2B34834  14.230   7.600  13.200
 1452BOLB   C3B34835  14.170   7.160  13.240
 1452BOLB   C4B34836  14.060   6.690  13.270
 1452BOLB   NC234837  13.910   5.670  15.520
 1452BOLB   PO234838  14.080   5.500  15.110
 1452BOLB   GL334839  14.470   5.720  14.990
 1452BOLB   GL434840  14.450   5.810  14.640
 1452BOLB   C1C34841  14.520   6.170  15.030
 1452BOLB   C2C34842  14.540   6.470  14.690
 1452BOLB   C3C34843  14.310   6.560  14.360
 1452BOLB   C4C34844  14.200   6.690  13.990
 1452BOLB   C1D34845  14.130   6.030  14.710
 1452BOLB   C2D34846  13.830   6.270  14.760
 1452BOLB   C3D34847  13.780   6.770  14.740
 1452BOLB   C4D34848  14.130   6.940  14.570
 1453BOLB   NC134849   7.420   8.650   7.680
 1453BOLB   PO134850   7.700   8.500   7.980
 1453BOLB   GL134851   7.990   8.790   8.260
 1453BOLB   GL234852   8.380   8.640   8.460
 1453BOLB   C1A34853   8.270   9.150   8.430
 1453BOLB   C2A34854   8.560   9.360   8.710
 1453BOLB   C3A34855   8.850   9.730   8.740
 1453BOLB   C4A34856   9.030   9.830   8.360
 1453BOLB   C1B34857   8.640   8.810   8.480
 1453BOLB   C2B34858   8.950   9.030   8.580
 1453BOLB   C3B34859   9.160   9.350   8.680
 1453BOLB   C4B34860   9.500   9.690   8.550
 1453BOLB   NC234861   8.490   9.230   6.380
 1453BOLB   PO234862   8.100   9.270   6.660
 1453BOLB   GL334863   8.210   9.490   6.960
 1453BOLB   GL434864   8.520   9.640   6.740
 1453BOLB   C1C34865   8.570   9.510   7.240
 1453BOLB   C2C34866   8.870   9.750   7.330
 1453BOLB   C3C34867   8.840  10.040   7.550
 1453BOLB   C4C34868   8.830  10.020   7.950
 1453BOLB   C1D34869   8.680  10.020   6.970
 1453BOLB   C2D34870   9.170  10.160   7.060
 1453BOLB   C3D34871   9.420  10.500   7.150
 1453BOLB   C4D34872   9.630  10.700   7.440
 1454BOLB   NC134873  21.020  23.990  11.430
 1454BOLB   PO134874  20.710  24.170  11.510
 1454BOLB   GL134875  20.860  24.420  11.120
 1454BOLB   GL234876  21.010  24.270  10.910
 1454BOLB   C1A34877  20.970  24.720  10.890
 1454BOLB   C2A34878  21.240  24.970  10.780
 1454BOLB   C3A34879  21.550  25.090  10.570
 1454BOLB   C4A34880  21.760  25.210  10.190
 1454BOLB   C1B34881  21.410  24.440  10.930
 1454BOLB   C2B34882  21.660  24.720  10.950
 1454BOLB   C3B34883  21.980  24.880  10.690
 1454BOLB   C4B34884  22.160  25.280  10.740
 1454BOLB   NC234885  23.180  27.290  10.380
 1454BOLB   PO234886  22.700  27.310  10.380
 1454BOLB   GL334887  22.740  26.930  10.360
 1454BOLB   GL434888  22.590  26.910  10.070
 1454BOLB   C1C34889  22.710  26.520  10.360
 1454BOLB   C2C34890  22.410  26.270  10.120
 1454BOLB   C3C34891  22.210  25.910  10.150
 1454BOLB   C4C34892  22.050  25.580  10.050
 1454BOLB   C1D34893  22.240  26.820  10.380
 1454BOLB   C2D34894  22.160  26.590  10.820
 1454BOLB   C3D34895  22.050  26.300  11.120
 1454BOLB   C4D34896  22.140  25.860  11.050
 1455BOLB   NC134897  21.810  20.840  16.160
 1455BOLB   PO134898  21.870  21.120  16.530
 1455BOLB   GL134899  22.030  21.090  16.920
 1455BOLB   GL234900  22.180  20.910  17.080
 1455BOLB   C1A34901  22.250  21.460  17.080
 1455BOLB   C2A34902  22.470  21.650  17.470
 1455BOLB   C3A34903  22.750  21.890  17.690
 1455BOLB   C4A34904  23.120  22.100  17.900
 1455BOLB   C1B34905  22.480  21.040  17.370
 1455BOLB   C2B34906  22.680  21.080  17.750
 1455BOLB   C3B34907  22.950  20.770  18.010
 1455BOLB   C4B34908  23.380  20.620  18.070
 1455BOLB   NC234909  25.410  22.800  18.320
 1455BOLB   PO234910  25.190  22.490  18.290
 1455BOLB   GL334911  24.890  22.770  18.260
 1455BOLB   GL434912  24.650  22.630  18.490
 1455BOLB   C1C34913  24.560  22.760  17.980
 1455BOLB   C2C34914  24.220  22.770  18.000
 1455BOLB   C3C34915  23.890  22.520  17.840
 1455BOLB   C4C34916  23.470  22.210  17.920
 1455BOLB   C1D34917  24.500  22.260  18.300
 1455BOLB   C2D34918  24.460  21.920  18.020
 1455BOLB   C3D34919  24.360  21.590  17.830
 1455BOLB   C4D34920  24.140  21.320  17.610
 1456BOLB   NC134921  13.860  17.310   4.670
 1456BOLB   PO134922  13.790  17.800   4.760
 1456BOLB   GL134923  13.580  17.790   4.430
 1456BOLB   GL234924  13.370  18.080   4.380
 1456BOLB   C1A34925  13.750  17.940   4.010
 1456BOLB   C2A34926  13.710  18.320   3.760
 1456BOLB   C3A34927  13.850  18.710   3.490
 1456BOLB   C4A34928  13.580  18.770   3.060
 1456BOLB   C1B34929  13.250  18.010   3.890
 1456BOLB   C2B34930  13.040  18.310   3.590
 1456BOLB   C3B34931  12.840  18.640   3.490
 1456BOLB   C4B34932  12.540  18.920   3.350
 1456BOLB   NC234933  13.000  19.360   0.940
 1456BOLB   PO234934  12.690  18.960   1.050
 1456BOLB   GL334935  12.560  18.680   1.390
 1456BOLB   GL434936  12.230  18.390   1.490
 1456BOLB   C1C34937  12.640  18.600   1.720
 1456BOLB   C2C34938  12.870  18.710   2.070
 1456BOLB   C3C34939  12.940  18.640   2.450
 1456BOLB   C4C34940  13.320  18.730   2.730
 1456BOLB   C1D34941  12.300  18.260   1.870
 1456BOLB   C2D34942  12.560  18.400   2.250
 1456BOLB   C3D34943  12.660  18.310   2.720
 1456BOLB   C4D34944  12.850  18.070   3.090
 1457BOLB   NC134945  16.900  22.830  17.640
 1457BOLB   PO134946  17.050  23.040  18.040
 1457BOLB   GL134947  17.260  23.330  18.440
 1457BOLB   GL234948  17.080  23.400  18.650
 1457BOLB   C1A34949  17.700  23.600  18.680
 1457BOLB   C2A34950  17.890  23.940  18.840
 1457BOLB   C3A34951  17.820  24.250  19.040
 1457BOLB   C4A34952  18.200  24.410  19.210
 1457BOLB   C1B34953  16.840  23.670  18.670
 1457BOLB   C2B34954  16.910  24.050  18.840
 1457BOLB   C3B34955  16.960  24.290  19.180
 1457BOLB   C4B34956  17.060  24.590  19.520
 1457BOLB   NC234957  19.360  25.880  20.750
 1457BOLB   PO234958  19.680  25.970  20.490
 1457BOLB   GL334959  19.290  25.800  20.260
 1457BOLB   GL434960  19.120  25.610  20.410
 1457BOLB   C1C34961  19.210  25.280  20.040
 1457BOLB   C2C34962  18.960  24.970  19.940
 1457BOLB   C3C34963  18.910  24.540  19.800
 1457BOLB   C4C34964  18.670  24.450  19.400
 1457BOLB   C1D34965  18.700  25.410  20.590
 1457BOLB   C2D34966  18.580  25.010  20.510
 1457BOLB   C3D34967  18.810  24.680  20.650
 1457BOLB   C4D34968  19.060  24.660  20.920
 1458BOLB   NC134969   2.810  19.420  20.940
 1458BOLB   PO134970   2.750  19.190  20.620
 1458BOLB   GL134971   2.970  19.220  20.370
 1458BOLB   GL234972   3.020  19.450  20.130
 1458BOLB   C1A34973   3.520  19.240  20.290
 1458BOLB   C2A34974   3.900  19.320  20.410
 1458BOLB   C3A34975   4.290  19.390  20.400
 1458BOLB   C4A34976   4.590  19.200  20.520
 1458BOLB   C1B34977   3.200  19.700  19.730
 1458BOLB   C2B34978   3.260  19.520  19.320
 1458BOLB   C3B34979   3.570  19.560  18.940
 1458BOLB   C4B34980   3.920  19.830  18.940
 1458BOLB   NC234981   4.050  18.330  23.050
 1458BOLB   PO234982   3.830  18.450  22.630
 1458BOLB   GL334983   3.970  18.650  22.220
 1458BOLB   GL434984   4.190  18.840  22.240
 1458BOLB   C1C34985   3.980  18.690  21.790
 1458BOLB   C2C34986   4.290  18.710  21.480
 1458BOLB   C3C34987   4.650  18.730  21.280
 1458BOLB   C4C34988   4.800  19.020  21.010
 1458BOLB   C1D34989   4.490  18.710  21.980
 1458BOLB   C2D34990   4.860  18.500  22.130
 1458BOLB   C3D34991   5.260  18.350  22.000
 1458BOLB   C4D34992   5.540  18.010  21.920
 1459BOLB   NC134993  21.400  11.880  14.850
 1459BOLB   PO134994  21.010  11.940  15.060
 1459BOLB   GL134995  21.060  11.530  15.220
 1459BOLB   GL234996  21.140  11.600  15.540
 1459BOLB   C1A34997  21.110  11.120  15.390
 1459BOLB   C2A34998  21.460  10.970  15.530
 1459BOLB   C3A34999  21.650  10.670  15.770
 1459BOLB   C4A35000  21.860  10.200  15.970
 1459BOLB   C1B35001  21.340  11.350  15.780
 1459BOLB   C2B35002  21.530  11.130  15.980
 1459BOLB   C3B35003  21.880  10.900  16.190
 1459BOLB   C4B35004  22.160  10.690  16.370
 1459BOLB   NC235005  23.020   7.600  16.180
 1459BOLB   PO235006  22.890   8.000  16.320
 1459BOLB   GL335007  22.820   8.380  16.190
 1459BOLB   GL435008  22.610   8.540  15.890
 1459BOLB   C1C35009  22.860   8.820  16.190
 1459BOLB   C2C35010  22.400   8.980  16.100
 1459BOLB   C3C35011  22.140   9.330  16.040
 1459BOLB   C4C35012  21.870   9.720  15.960
 1459BOLB   C1D35013  22.620   8.340  15.480
 1459BOLB   C2D35014  22.690   7.930  15.380
 1459BOLB   C3D35015  22.470   7.810  14.980
 1459BOLB   C4D35016  22.670   8.250  14.690
 1460BOLB   NC135017   9.660  20.290   9.220
 1460BOLB   PO135018   9.390  20.490   9.290
 1460BOLB   GL135019   9.410  20.910   9.110
 1460BOLB   GL235020   9.170  20.990   9.150
 1460BOLB   C1A35021   9.640  21.220   8.850
 1460BOLB   C2A35022   9.470  21.590   8.660
 1460BOLB   C3A35023   9.130  21.620   8.330
 1460BOLB   C4A35024   9.010  21.940   8.180
 1460BOLB   C1B35025   9.070  21.250   8.880
 1460BOLB   C2B35026   8.820  21.710   8.730
 1460BOLB   C3B35027   8.870  22.040   8.720
 1460BOLB   C4B35028   9.010  22.480   8.870
 1460BOLB   NC235029   7.060  23.200   7.550
 1460BOLB   PO235030   6.820  22.760   7.590
 1460BOLB   GL335031   6.960  22.410   7.940
 1460BOLB   GL435032   6.770  22.410   8.260
 1460BOLB   C1C35033   7.420  22.560   7.940
 1460BOLB   C2C35034   7.850  22.490   8.070
 1460BOLB   C3C35035   8.310  22.410   8.180
 1460BOLB   C4C35036   8.650  22.170   8.200
 1460BOLB   C1D35037   7.120  22.600   8.420
 1460BOLB   C2D35038   7.440  22.530   8.710
 1460BOLB   C3D35039   7.770  22.290   8.900
 1460BOLB   C4D35040   7.990  22.230   9.230
 1461BOLB   NC135041   1.680  20.270  18.940
 1461BOLB   PO135042   1.800  20.650  19.210
 1461BOLB   GL135043   2.090  20.520  19.010
 1461BOLB   GL235044   2.120  20.470  18.750
 1461BOLB   C1A35045   2.500  20.750  18.970
 1461BOLB   C2A35046   2.890  20.760  18.750
 1461BOLB   C3A35047   3.130  20.520  18.420
 1461BOLB   C4A35048   3.130  20.740  17.910
 1461BOLB   C1B35049   2.420  20.630  18.400
 1461BOLB   C2B35050   2.640  20.790  18.030
 1461BOLB   C3B35051   2.650  20.600  17.680
 1461BOLB   C4B35052   2.720  20.280  17.610
 1461BOLB   NC235053   2.110  22.440  16.320
 1461BOLB   PO235054   2.190  22.670  16.670
 1461BOLB   GL335055   2.530  22.440  16.740
 1461BOLB   GL435056   2.590  22.330  16.520
 1461BOLB   C1C35057   2.630  22.040  17.080
 1461BOLB   C2C35058   2.800  21.620  17.170
 1461BOLB   C3C35059   3.020  21.230  17.190
 1461BOLB   C4C35060   3.260  20.980  17.550
 1461BOLB   C1D35061   2.330  21.970  16.720
 1461BOLB   C2D35062   2.330  21.500  16.870
 1461BOLB   C3D35063   2.480  21.200  17.170
 1461BOLB   C4D35064   2.810  20.860  16.910
 1462BOLB   NC135065  17.590   9.290   9.230
 1462BOLB   PO135066  17.300   9.110   9.570
 1462BOLB   GL135067  17.220   8.760   9.410
 1462BOLB   GL235068  16.910   8.680   9.610
 1462BOLB   C1A35069  17.370   8.330   9.430
 1462BOLB   C2A35070  17.540   7.990   9.330
 1462BOLB   C3A35071  17.790   7.750   9.160
 1462BOLB   C4A35072  18.160   7.530   9.290
 1462BOLB   C1B35073  16.900   8.260   9.730
 1462BOLB   C2B35074  16.890   7.840   9.930
 1462BOLB   C3B35075  17.060   7.470  10.000
 1462BOLB   C4B35076  17.050   7.080  10.130
 1462BOLB   NC235077  19.300   5.120   8.510
 1462BOLB   PO235078  19.410   5.400   8.820
 1462BOLB   GL335079  19.220   5.800   8.870
 1462BOLB   GL435080  19.460   6.100   8.710
 1462BOLB   C1C35081  19.060   6.190   9.110
 1462BOLB   C2C35082  18.730   6.540   9.110
 1462BOLB   C3C35083  18.550   6.860   9.240
 1462BOLB   C4C35084  18.480   7.170   9.300
 1462BOLB   C1D35085  19.480   6.470   8.960
 1462BOLB   C2D35086  19.540   6.960   8.990
 1462BOLB   C3D35087  19.660   7.270   9.310
 1462BOLB   C4D35088  19.660   7.300   9.780
 1463BOLB   NC135089  26.420  24.870  12.570
 1463BOLB   PO135090  26.460  24.440  12.380
 1463BOLB   GL135091  26.210  24.090  12.670
 1463BOLB   GL235092  26.320  23.880  12.490
 1463BOLB   C1A35093  25.820  23.770  12.500
 1463BOLB   C2A35094  25.470  23.680  12.380
 1463BOLB   C3A35095  25.330  23.760  12.050
 1463BOLB   C4A35096  25.340  23.950  11.570
 1463BOLB   C1B35097  25.990  24.080  12.180
 1463BOLB   C2B35098  25.560  24.160  12.100
 1463BOLB   C3B35099  25.190  24.250  12.320
 1463BOLB   C4B35100  24.790  24.170  12.200
 1463BOLB   NC235101  24.830  25.720   9.910
 1463BOLB   PO235102  25.240  25.580  10.120
 1463BOLB   GL335103  25.100  25.260  10.320
 1463BOLB   GL435104  25.080  25.320  10.680
 1463BOLB   C1C35105  25.090  24.820  10.390
 1463BOLB   C2C35106  25.370  24.500  10.430
 1463BOLB   C3C35107  25.490  24.290  10.730
 1463BOLB   C4C35108  25.550  24.210  11.210
 1463BOLB   C1D35109  24.720  25.010  10.720
 1463BOLB   C2D35110  24.470  24.580  10.650
 1463BOLB   C3D35111  24.210  24.160  10.830
 1463BOLB   C4D35112  24.120  23.750  10.920
 1464BOLB   NC135113  21.890  21.070   8.340
 1464BOLB   PO135114  21.880  21.440   8.060
 1464BOLB   GL135115  22.170  21.460   7.690
 1464BOLB   GL235116  22.030  21.200   7.540
 1464BOLB   C1A35117  22.470  21.480   7.410
 1464BOLB   C2A35118  22.760  21.390   7.080
 1464BOLB   C3A35119  23.140  21.410   6.820
 1464BOLB   C4A35120  23.580  21.270   6.750
 1464BOLB   C1B35121  22.140  21.160   7.130
 1464BOLB   C2B35122  22.380  21.010   6.790
 1464BOLB   C3B35123  22.420  20.930   6.360
 1464BOLB   C4B35124  22.590  21.290   6.000
 1464BOLB   NC235125  24.240  22.620   4.980
 1464BOLB   PO235126  24.480  22.350   4.620
 1464BOLB   GL335127  24.280  22.010   4.770
 1464BOLB   GL435128  24.000  21.900   4.690
 1464BOLB   C1C35129  23.980  21.800   5.160
 1464BOLB   C2C35130  23.970  21.910   5.610
 1464BOLB   C3C35131  24.010  21.610   5.950
 1464BOLB   C4C35132  23.780  21.400   6.380
 1464BOLB   C1D35133  23.790  22.230   5.010
 1464BOLB   C2D35134  23.480  22.010   5.220
 1464BOLB   C3D35135  23.470  21.960   5.660
 1464BOLB   C4D35136  23.500  21.830   6.130
 1465BOLB   NC135137   8.230  15.420  10.500
 1465BOLB   PO135138   8.120  15.050  10.290
 1465BOLB   GL135139   7.870  14.620  10.270
 1465BOLB   GL235140   7.950  14.380  10.070
 1465BOLB   C1A35141   7.460  14.510  10.310
 1465BOLB   C2A35142   7.040  14.230  10.090
 1465BOLB   C3A35143   6.630  14.140  10.230
 1465BOLB   C4A35144   6.590  13.760  10.540
 1465BOLB   C1B35145   7.500  14.210   9.860
 1465BOLB   C2B35146   7.330  14.010   9.520
 1465BOLB   C3B35147   7.330  13.590   9.440
 1465BOLB   C4B35148   7.240  13.250   9.710
 1465BOLB   NC235149   4.650  12.610   9.560
 1465BOLB   PO235150   4.920  12.560   9.160
 1465BOLB   GL335151   5.120  12.790   9.470
 1465BOLB   GL435152   5.010  13.090   9.570
 1465BOLB   C1C35153   5.330  12.770   9.870
 1465BOLB   C2C35154   5.620  12.980  10.080
 1465BOLB   C3C35155   5.820  13.190  10.490
 1465BOLB   C4C35156   6.220  13.470  10.480
 1465BOLB   C1D35157   5.500  13.180   9.610
 1465BOLB   C2D35158   5.950  13.150   9.660
 1465BOLB   C3D35159   6.240  13.330   9.650
 1465BOLB   C4D35160   6.360  13.770   9.710
 1466BOLB   NC135161  24.490  17.490  10.490
 1466BOLB   PO135162  24.520  17.890  10.630
 1466BOLB   GL135163  24.810  17.970  10.350
 1466BOLB   GL235164  24.890  18.280  10.260
 1466BOLB   C1A35165  25.270  17.980  10.140
 1466BOLB   C2A35166  25.600  18.190   9.990
 1466BOLB   C3A35167  25.630  18.370   9.550
 1466BOLB   C4A35168  25.950  18.470   9.160
 1466BOLB   C1B35169  25.180  18.500  10.260
 1466BOLB   C2B35170  25.510  18.540  10.420
 1466BOLB   C3B35171  25.870  18.900  10.410
 1466BOLB   C4B35172  26.150  19.240  10.300
 1466BOLB   NC235173  28.210  17.620   9.420
 1466BOLB   PO235174  28.140  17.200   9.460
 1466BOLB   GL335175  27.780  17.460   9.430
 1466BOLB   GL435176  27.720  17.750   9.440
 1466BOLB   C1C35177  27.250  17.560   9.300
 1466BOLB   C2C35178  27.050  17.950   9.230
 1466BOLB   C3C35179  26.660  18.130   9.220
 1466BOLB   C4C35180  26.330  18.380   9.050
 1466BOLB   C1D35181  27.470  17.900   9.740
 1466BOLB   C2D35182  27.340  17.960  10.220
 1466BOLB   C3D35183  26.980  17.820  10.560
 1466BOLB   C4D35184  26.480  17.810  10.520
 1467BOLB   NC135185  21.280  10.750  12.320
 1467BOLB   PO135186  21.100  10.690  12.040
 1467BOLB   GL135187  21.170  10.360  12.110
 1467BOLB   GL235188  21.250  10.260  11.810
 1467BOLB   C1A35189  21.360  10.010  12.200
 1467BOLB   C2A35190  21.700   9.730  12.160
 1467BOLB   C3A35191  21.630   9.270  12.290
 1467BOLB   C4A35192  21.860   8.860  12.270
 1467BOLB   C1B35193  21.490   9.910  11.660
 1467BOLB   C2B35194  21.440   9.560  11.580
 1467BOLB   C3B35195  21.720   9.300  11.810
 1467BOLB   C4B35196  22.100   9.170  11.960
 1467BOLB   NC235197  23.650   7.160  11.010
 1467BOLB   PO235198  23.570   7.160  11.490
 1467BOLB   GL335199  23.370   7.600  11.520
 1467BOLB   GL435200  23.510   7.900  11.680
 1467BOLB   C1C35201  23.020   7.800  11.580
 1467BOLB   C2C35202  22.560   7.850  11.580
 1467BOLB   C3C35203  22.200   8.090  11.930
 1467BOLB   C4C35204  21.810   8.460  12.070
 1467BOLB   C1D35205  23.310   8.250  11.620
 1467BOLB   C2D35206  23.110   8.500  11.870
 1467BOLB   C3D35207  22.830   8.780  12.110
 1467BOLB   C4D35208  22.660   9.250  12.120
 1468BOLB   NC135209  13.060  12.110   7.060
 1468BOLB   PO135210  12.900  11.680   6.860
 1468BOLB   GL135211  12.590  11.410   6.640
 1468BOLB   GL235212  12.500  11.560   6.410
 1468BOLB   C1A35213  12.610  11.010   6.440
 1468BOLB   C2A35214  12.390  10.640   6.530
 1468BOLB   C3A35215  12.230  10.360   6.150
 1468BOLB   C4A35216  12.140   9.940   6.000
 1468BOLB   C1B35217  12.310  11.240   6.130
 1468BOLB   C2B35218  12.200  10.840   5.980
 1468BOLB   C3B35219  12.040  10.780   5.590
 1468BOLB   C4B35220  11.650  10.670   5.380
 1468BOLB   NC235221  11.160   7.720   4.900
 1468BOLB   PO235222  11.120   7.970   5.380
 1468BOLB   GL335223  11.460   8.210   5.560
 1468BOLB   GL435224  11.230   8.480   5.530
 1468BOLB   C1C35225  11.810   8.530   5.710
 1468BOLB   C2C35226  12.120   8.770   5.800
 1468BOLB   C3C35227  12.310   9.180   5.930
 1468BOLB   C4C35228  12.260   9.560   5.780
 1468BOLB   C1D35229  11.650   8.550   5.240
 1468BOLB   C2D35230  12.110   8.540   5.300
 1468BOLB   C3D35231  12.360   8.850   5.060
 1468BOLB   C4D35232  12.410   9.260   5.060
 1469BOLB   NC135233  17.640   5.780   6.770
 1469BOLB   PO135234  17.270   5.770   6.580
 1469BOLB   GL135235  17.490   6.130   6.450
 1469BOLB   GL235236  17.690   6.270   6.770
 1469BOLB   C1A35237  17.540   6.530   6.210
 1469BOLB   C2A35238  17.750   6.930   6.180
 1469BOLB   C3A35239  17.800   7.350   5.970
 1469BOLB   C4A35240  17.790   7.790   5.970
 1469BOLB   C1B35241  17.390   6.600   6.670
 1469BOLB   C2B35242  17.100   6.900   6.780
 1469BOLB   C3B35243  16.990   7.260   6.930
 1469BOLB   C4B35244  16.840   7.490   7.280
 1469BOLB   NC235245  17.520   6.260   4.830
 1469BOLB   PO235246  17.260   6.330   4.500
 1469BOLB   GL335247  17.150   6.690   4.720
 1469BOLB   GL435248  17.410   6.740   4.900
 1469BOLB   C1C35249  17.150   7.140   4.850
 1469BOLB   C2C35250  17.320   7.490   4.830
 1469BOLB   C3C35251  17.350   7.730   5.220
 1469BOLB   C4C35252  17.510   7.870   5.720
 1469BOLB   C1D35253  17.610   6.740   5.270
 1469BOLB   C2D35254  17.890   7.050   5.210
 1469BOLB   C3D35255  18.240   7.260   5.030
 1469BOLB   C4D35256  18.590   7.230   5.170
 1470BOLB   NC135257  15.720  12.090   0.360
 1470BOLB   PO135258  15.580  11.950   0.770
 1470BOLB   GL135259  15.840  11.910   1.210
 1470BOLB   GL235260  16.070  12.070   1.230
 1470BOLB   C1A35261  15.880  12.070   1.670
 1470BOLB   C2A35262  15.760  12.370   2.000
 1470BOLB   C3A35263  15.900  12.510   2.360
 1470BOLB   C4A35264  15.870  12.250   2.750
 1470BOLB   C1B35265  16.240  11.730   1.590
 1470BOLB   C2B35266  16.010  11.770   2.110
 1470BOLB   C3B35267  15.850  11.760   2.530
 1470BOLB   C4B35268  15.830  11.690   3.060
 1470BOLB   NC235269  15.700  11.240   0.960
 1470BOLB   PO235270  16.010  10.980   1.160
 1470BOLB   GL335271  16.120  10.940   1.570
 1470BOLB   GL435272  15.720  10.930   1.680
 1470BOLB   C1C35273  16.140  11.190   1.840
 1470BOLB   C2C35274  16.310  11.380   2.230
 1470BOLB   C3C35275  16.380  11.590   2.580
 1470BOLB   C4C35276  16.230  11.960   2.890
 1470BOLB   C1D35277  15.770  10.750   2.090
 1470BOLB   C2D35278  15.570  10.430   2.380
 1470BOLB   C3D35279  15.130  10.110   2.560
 1470BOLB   C4D35280  14.720  10.120   2.620
 1471BOLB   NC135281   9.110  26.720  20.020
 1471BOLB   PO135282   9.520  26.950  19.990
 1471BOLB   GL135283   9.690  26.510  19.910
 1471BOLB   GL235284   9.410  26.310  20.120
 1471BOLB   C1A35285   9.850  26.050  19.800
 1471BOLB   C2A35286   9.690  25.650  19.610
 1471BOLB   C3A35287   9.450  25.380  19.470
 1471BOLB   C4A35288   9.060  25.160  19.530
 1471BOLB   C1B35289   9.400  25.910  20.000
 1471BOLB   C2B35290   9.300  25.510  19.920
 1471BOLB   C3B35291   9.270  25.060  20.030
 1471BOLB   C4B35292   8.970  24.760  19.930
 1471BOLB   NC235293   7.140  26.640  18.920
 1471BOLB   PO235294   7.600  26.370  18.710
 1471BOLB   GL335295   7.650  25.930  18.800
 1471BOLB   GL435296   7.520  25.700  18.690
 1471BOLB   C1C35297   8.000  25.700  18.640
 1471BOLB   C2C35298   8.150  25.340  18.690
 1471BOLB   C3C35299   8.540  25.050  18.890
 1471BOLB   C4C35300   8.730  25.030  19.280
 1471BOLB   C1D35301   7.620  25.270  18.820
 1471BOLB   C2D35302   7.790  25.060  18.990
 1471BOLB   C3D35303   8.090  24.920  19.010
 1471BOLB   C4D35304   8.330  24.700  19.210
 1472BOLB   NC135305  18.370  10.120   7.900
 1472BOLB   PO135306  18.450   9.940   7.560
 1472BOLB   GL135307  18.500   9.500   7.550
 1472BOLB   GL235308  18.730   9.470   7.350
 1472BOLB   C1A35309  18.800   9.200   7.910
 1472BOLB   C2A35310  19.010   8.890   8.040
 1472BOLB   C3A35311  19.040   8.450   8.000
 1472BOLB   C4A35312  18.950   8.000   7.990
 1472BOLB   C1B35313  18.810   9.010   7.390
 1472BOLB   C2B35314  19.110   8.740   7.550
 1472BOLB   C3B35315  19.580   8.670   7.670
 1472BOLB   C4B35316  20.000   8.620   7.810
 1472BOLB   NC235317  19.170   5.770   7.320
 1472BOLB   PO235318  18.700   5.790   7.250
 1472BOLB   GL335319  18.640   6.050   7.430
 1472BOLB   GL435320  18.870   6.220   7.110
 1472BOLB   C1C35321  18.580   6.330   7.750
 1472BOLB   C2C35322  18.460   6.740   7.890
 1472BOLB   C3C35323  18.450   7.260   7.930
 1472BOLB   C4C35324  18.660   7.690   8.000
 1472BOLB   C1D35325  18.810   6.590   7.150
 1472BOLB   C2D35326  19.100   6.970   7.190
 1472BOLB   C3D35327  19.240   7.080   6.760
 1472BOLB   C4D35328  19.500   7.270   6.400
 1473BOLB   NC135329  10.500   4.670  19.810
 1473BOLB   PO135330  10.720   5.000  19.470
 1473BOLB   GL135331  10.930   5.350  19.450
 1473BOLB   GL235332  10.930   5.340  19.830
 1473BOLB   C1A35333  11.260   5.700  19.440
 1473BOLB   C2A35334  11.590   5.900  19.680
 1473BOLB   C3A35335  11.880   6.260  19.680
 1473BOLB   C4A35336  12.030   6.370  20.030
 1473BOLB   C1B35337  10.600   5.690  19.730
 1473BOLB   C2B35338  10.280   5.860  19.380
 1473BOLB   C3B35339   9.900   6.090  19.260
 1473BOLB   C4B35340   9.610   6.430  19.460
 1473BOLB   NC235341  10.180   5.720  21.310
 1473BOLB   PO235342  10.390   5.320  21.180
 1473BOLB   GL335343  10.490   5.690  20.920
 1473BOLB   GL435344  10.390   5.780  20.720
 1473BOLB   C1C35345  10.840   5.920  20.910
 1473BOLB   C2C35346  11.390   6.010  20.930
 1473BOLB   C3C35347  11.600   6.360  20.660
 1473BOLB   C4C35348  11.920   6.410  20.440
 1473BOLB   C1D35349  10.560   6.160  20.620
 1473BOLB   C2D35350  10.780   6.490  20.830
 1473BOLB   C3D35351  10.580   6.860  21.020
 1473BOLB   C4D35352  10.270   7.200  20.980
 1474BOLB   NC135353   8.780  16.670  10.060
 1474BOLB   PO135354   8.440  16.920   9.890
 1474BOLB   GL135355   8.030  17.030   9.720
 1474BOLB   GL235356   7.840  17.360   9.680
 1474BOLB   C1A35357   7.660  16.800   9.420
 1474BOLB   C2A35358   7.190  16.890   9.320
 1474BOLB   C3A35359   6.840  17.050   9.430
 1474BOLB   C4A35360   6.460  17.230   9.390
 1474BOLB   C1B35361   7.440  17.350   9.400
 1474BOLB   C2B35362   7.020  17.490   9.440
 1474BOLB   C3B35363   6.620  17.700   9.470
 1474BOLB   C4B35364   6.300  18.190   9.490
 1474BOLB   NC235365   4.840  17.730   7.830
 1474BOLB   PO235366   4.890  18.130   7.570
 1474BOLB   GL335367   5.140  18.110   7.900
 1474BOLB   GL435368   5.390  18.310   7.960
 1474BOLB   C1C35369   5.500  17.980   8.320
 1474BOLB   C2C35370   5.500  17.630   8.710
 1474BOLB   C3C35371   5.920  17.510   8.860
 1474BOLB   C4C35372   6.320  17.600   9.070
 1474BOLB   C1D35373   5.840  18.390   8.200
 1474BOLB   C2D35374   6.100  18.290   8.510
 1474BOLB   C3D35375   6.010  18.010   8.930
 1474BOLB   C4D35376   5.830  17.900   9.350
 1475BOLB   NC135377  15.600  15.340   0.040
 1475BOLB   PO135378  15.890  15.720   0.120
 1475BOLB   GL135379  15.960  15.720   0.580
 1475BOLB   GL235380  16.300  15.650   0.660
 1475BOLB   C1A35381  15.840  15.860   0.990
 1475BOLB   C2A35382  15.690  16.030   1.380
 1475BOLB   C3A35383  15.480  16.370   1.230
 1475BOLB   C4A35384  15.300  16.740   1.320
 1475BOLB   C1B35385  16.230  15.620   1.210
 1475BOLB   C2B35386  16.000  15.690   1.610
 1475BOLB   C3B35387  15.510  15.730   1.780
 1475BOLB   C4B35388  15.440  15.770   2.300
 1475BOLB   NC235389  15.580  18.710   0.390
 1475BOLB   PO235390  15.150  18.700   0.630
 1475BOLB   GL335391  14.880  18.410   0.960
 1475BOLB   GL435392  14.720  18.550   1.220
 1475BOLB   C1C35393  15.060  18.210   1.350
 1475BOLB   C2C35394  15.400  17.870   1.470
 1475BOLB   C3C35395  15.530  17.540   1.210
 1475BOLB   C4C35396  15.280  17.200   1.130
 1475BOLB   C1D35397  14.990  18.680   1.400
 1475BOLB   C2D35398  15.230  18.540   1.730
 1475BOLB   C3D35399  15.490  18.490   2.090
 1475BOLB   C4D35400  15.500  18.160   2.440
 1476BOLB   NC135401  17.740  13.690   5.150
 1476BOLB   PO135402  18.050  13.780   5.080
 1476BOLB   GL135403  18.080  13.600   4.650
 1476BOLB   GL235404  18.240  13.750   4.500
 1476BOLB   C1A35405  18.100  13.420   4.180
 1476BOLB   C2A35406  18.290  13.120   3.890
 1476BOLB   C3A35407  18.350  13.080   3.420
 1476BOLB   C4A35408  18.350  13.080   3.030
 1476BOLB   C1B35409  18.270  13.990   4.080
 1476BOLB   C2B35410  18.330  13.710   3.770
 1476BOLB   C3B35411  18.660  13.590   3.590
 1476BOLB   C4B35412  19.070  13.580   3.430
 1476BOLB   NC235413  17.820  11.810   0.720
 1476BOLB   PO235414  17.430  12.150   0.730
 1476BOLB   GL335415  17.690  12.210   1.190
 1476BOLB   GL435416  17.360  12.090   1.400
 1476BOLB   C1C35417  17.910  12.380   1.370
 1476BOLB   C2C35418  18.180  12.520   1.720
 1476BOLB   C3C35419  18.310  12.560   2.290
 1476BOLB   C4C35420  18.230  12.850   2.610
 1476BOLB   C1D35421  17.380  12.620   1.530
 1476BOLB   C2D35422  17.260  13.000   1.520
 1476BOLB   C3D35423  17.000  12.970   1.880
 1476BOLB   C4D35424  16.860  13.020   2.300
 1477BOLB   NC135425  14.330  25.160  13.500
 1477BOLB   PO135426  14.720  25.250  13.670
 1477BOLB   GL135427  14.550  25.670  13.420
 1477BOLB   GL235428  14.760  25.830  13.550
 1477BOLB   C1A35429  14.250  26.050  13.330
 1477BOLB   C2A35430  14.080  26.410  13.310
 1477BOLB   C3A35431  13.930  26.550  12.980
 1477BOLB   C4A35432  13.570  26.680  12.850
 1477BOLB   C1B35433  14.660  26.190  13.640
 1477BOLB   C2B35434  14.430  26.350  13.980
 1477BOLB   C3B35435  14.420  26.670  14.200
 1477BOLB   C4B35436  14.460  26.960  14.580
 1477BOLB   NC235437  12.470  28.680  12.120
 1477BOLB   PO235438  12.120  28.450  12.070
 1477BOLB   GL335439  12.390  28.110  12.300
 1477BOLB   GL435440  12.690  28.370  12.450
 1477BOLB   C1C35441  12.780  27.840  12.360
 1477BOLB   C2C35442  13.070  27.610  12.480
 1477BOLB   C3C35443  13.320  27.480  12.670
 1477BOLB   C4C35444  13.490  27.060  12.610
 1477BOLB   C1D35445  12.560  28.070  12.820
 1477BOLB   C2D35446  12.690  27.660  12.980
 1477BOLB   C3D35447  12.720  27.320  13.370
 1477BOLB   C4D35448  12.680  26.950  13.560
 1478BOLB   NC135449  18.660  25.180  13.080
 1478BOLB   PO135450  18.250  25.330  13.140
 1478BOLB   GL135451  18.380  25.740  13.250
 1478BOLB   GL235452  18.610  25.870  13.300
 1478BOLB   C1A35453  18.100  26.140  13.220
 1478BOLB   C2A35454  18.220  26.540  13.050
 1478BOLB   C3A35455  18.090  26.860  12.670
 1478BOLB   C4A35456  17.720  27.110  12.580
 1478BOLB   C1B35457  18.610  26.260  13.230
 1478BOLB   C2B35458  18.840  26.540  13.140
 1478BOLB   C3B35459  18.960  26.920  13.290
 1478BOLB   C4B35460  18.970  27.270  13.490
 1478BOLB   NC235461  18.080  29.390  11.300
 1478BOLB   PO235462  18.390  29.100  11.420
 1478BOLB   GL335463  18.450  28.690  11.480
 1478BOLB   GL435464  18.510  28.630  11.720
 1478BOLB   C1C35465  18.380  28.220  11.470
 1478BOLB   C2C35466  18.110  27.920  11.760
 1478BOLB   C3C35467  17.810  27.520  11.990
 1478BOLB   C4C35468  17.570  27.210  12.190
 1478BOLB   C1D35469  18.340  28.560  12.110
 1478BOLB   C2D35470  18.300  28.370  12.520
 1478BOLB   C3D35471  18.320  28.090  12.780
 1478BOLB   C4D35472  18.100  27.830  12.840
 1479BOLB   NC135473  16.270  12.910   4.800
 1479BOLB   PO135474  16.740  12.870   4.880
 1479BOLB   GL135475  16.770  12.740   4.450
 1479BOLB   GL235476  16.460  12.500   4.400
 1479BOLB   C1A35477  16.900  12.410   4.200
 1479BOLB   C2A35478  16.860  12.150   3.920
 1479BOLB   C3A35479  16.830  11.770   3.590
 1479BOLB   C4A35480  16.820  11.360   3.440
 1479BOLB   C1B35481  16.500  12.540   3.950
 1479BOLB   C2B35482  16.370  12.360   3.560
 1479BOLB   C3B35483  16.070  12.350   3.220
 1479BOLB   C4B35484  15.620  12.340   3.190
 1479BOLB   NC235485  16.350  10.030   1.470
 1479BOLB   PO235486  16.140   9.810   1.780
 1479BOLB   GL335487  16.320  10.190   2.010
 1479BOLB   GL435488  16.260  10.450   1.760
 1479BOLB   C1C35489  16.540  10.460   2.320
 1479BOLB   C2C35490  16.600  10.520   2.770
 1479BOLB   C3C35491  16.750  10.750   3.070
 1479BOLB   C4C35492  16.640  11.050   3.310
 1479BOLB   C1D35493  16.250  10.760   2.040
 1479BOLB   C2D35494  16.180  10.980   2.510
 1479BOLB   C3D35495  16.020  11.320   2.820
 1479BOLB   C4D35496  16.260  11.390   3.190
 1480BOLB   NC135497  11.610  16.130   5.300
 1480BOLB   PO135498  11.910  16.410   5.250
 1480BOLB   GL135499  11.790  16.450   4.880
 1480BOLB   GL235500  11.430  16.310   4.850
 1480BOLB   C1A35501  11.530  16.680   4.580
 1480BOLB   C2A35502  11.540  17.120   4.460
 1480BOLB   C3A35503  11.710  17.120   4.000
 1480BOLB   C4A35504  11.540  17.120   3.600
 1480BOLB   C1B35505  11.120  16.300   4.540
 1480BOLB   C2B35506  11.240  16.350   4.160
 1480BOLB   C3B35507  11.600  16.650   4.030
 1480BOLB   C4B35508  11.870  16.730   3.720
 1480BOLB   NC235509   9.610  17.810   2.380
 1480BOLB   PO235510   9.730  17.420   2.020
 1480BOLB   GL335511  10.060  17.120   2.310
 1480BOLB   GL435512  10.040  17.180   2.580
 1480BOLB   C1C35513  10.450  16.880   2.570
 1480BOLB   C2C35514  10.900  16.980   2.600
 1480BOLB   C3C35515  11.090  16.930   2.960
 1480BOLB   C4C35516  11.240  16.990   3.320
 1480BOLB   C1D35517   9.770  16.950   2.920
 1480BOLB   C2D35518   9.650  16.780   3.320
 1480BOLB   C3D35519   9.840  16.700   3.740
 1480BOLB   C4D35520  10.240  16.700   3.790
 1481BOLB   NC135521   9.230  20.430   9.800
 1481BOLB   PO135522   9.550  20.580   9.950
 1481BOLB   GL135523   9.230  20.960   9.690
 1481BOLB   GL235524   8.970  20.810   9.580
 1481BOLB   C1A35525   9.230  21.470   9.700
 1481BOLB   C2A35526   8.950  21.790   9.710
 1481BOLB   C3A35527   8.860  22.120   9.360
 1481BOLB   C4A35528   8.550  22.310   9.050
 1481BOLB   C1B35529   8.760  21.120   9.450
 1481BOLB   C2B35530   8.400  21.130   9.290
 1481BOLB   C3B35531   8.160  21.540   9.340
 1481BOLB   C4B35532   7.690  21.650   9.220
 1481BOLB   NC235533   5.850  22.760   8.400
 1481BOLB   PO235534   6.360  22.640   8.370
 1481BOLB   GL335535   6.610  22.280   8.690
 1481BOLB   GL435536   6.530  21.970   8.470
 1481BOLB   C1C35537   7.010  22.200   8.720
 1481BOLB   C2C35538   7.320  22.140   8.400
 1481BOLB   C3C35539   7.840  22.170   8.460
 1481BOLB   C4C35540   8.210  22.170   8.670
 1481BOLB   C1D35541   6.950  21.740   8.560
 1481BOLB   C2D35542   7.140  21.310   8.360
 1481BOLB   C3D35543   7.530  21.140   8.340
 1481BOLB   C4D35544   7.930  21.310   8.550
 1482BOLB   NC135545  23.810  18.540   9.200
 1482BOLB   PO135546  23.640  18.550   8.800
 1482BOLB   GL135547  24.090  18.620   8.720
 1482BOLB   GL235548  24.040  18.310   8.610
 1482BOLB   C1A35549  24.430  18.660   8.650
 1482BOLB   C2A35550  24.770  18.960   8.510
 1482BOLB   C3A35551  25.200  18.920   8.400
 1482BOLB   C4A35552  25.640  19.020   8.310
 1482BOLB   C1B35553  24.280  18.210   8.230
 1482BOLB   C2B35554  24.460  18.140   7.850
 1482BOLB   C3B35555  24.560  17.800   7.540
 1482BOLB   C4B35556  24.710  17.750   7.080
 1482BOLB   NC235557  27.490  19.130   8.130
 1482BOLB   PO235558  27.470  19.380   8.460
 1482BOLB   GL335559  27.080  19.450   8.170
 1482BOLB   GL435560  26.960  19.120   8.090
 1482BOLB   C1C35561  26.940  19.830   8.110
 1482BOLB   C2C35562  26.600  19.720   8.110
 1482BOLB   C3C35563  26.160  19.630   8.170
 1482BOLB   C4C35564  25.720  19.420   8.210
 1482BOLB   C1D35565  26.580  19.180   8.190
 1482BOLB   C2D35566  26.340  19.190   8.490
 1482BOLB   C3D35567  26.310  19.200   8.880
 1482BOLB   C4D35568  26.040  18.950   9.080
 1483BOLB   NC135569  17.140  24.960  15.740
 1483BOLB   PO135570  17.060  24.920  16.210
 1483BOLB   GL135571  17.240  25.400  16.160
 1483BOLB   GL235572  17.560  25.450  16.120
 1483BOLB   C1A35573  17.060  25.790  16.450
 1483BOLB   C2A35574  16.700  25.830  16.730
 1483BOLB   C3A35575  16.540  26.010  17.110
 1483BOLB   C4A35576  16.280  26.280  17.460
 1483BOLB   C1B35577  17.530  25.930  16.380
 1483BOLB   C2B35578  17.610  26.240  16.570
 1483BOLB   C3B35579  17.940  26.490  16.840
 1483BOLB   C4B35580  17.710  26.720  17.190
 1483BOLB   NC235581  16.390  28.370  19.500
 1483BOLB   PO235582  16.210  28.000  19.290
 1483BOLB   GL335583  16.070  27.840  18.950
 1483BOLB   GL435584  15.830  27.650  19.090
 1483BOLB   C1C35585  16.080  27.600  18.490
 1483BOLB   C2C35586  15.970  27.200  18.330
 1483BOLB   C3C35587  16.050  26.810  18.160
 1483BOLB   C4C35588  16.180  26.440  17.880
 1483BOLB   C1D35589  16.020  27.260  18.830
 1483BOLB   C2D35590  16.400  27.100  18.850
 1483BOLB   C3D35591  16.640  26.790  18.490
 1483BOLB   C4D35592  16.600  26.370  18.280
 1484BOLB   NC135593  17.990  20.560   5.950
 1484BOLB   PO135594  17.700  20.320   5.660
 1484BOLB   GL135595  17.610  20.380   5.250
 1484BOLB   GL235596  17.490  20.160   5.030
 1484BOLB   C1A35597  17.740  20.630   4.900
 1484BOLB   C2A35598  17.570  20.850   4.470
 1484BOLB   C3A35599  17.400  21.060   4.120
 1484BOLB   C4A35600  17.270  21.380   3.880
 1484BOLB   C1B35601  17.560  20.150   4.600
 1484BOLB   C2B35602  17.520  20.180   4.170
 1484BOLB   C3B35603  17.370  20.520   4.000
 1484BOLB   C4B35604  17.550  20.790   3.680
 1484BOLB   NC235605  17.300  23.180   2.260
 1484BOLB   PO235606  16.950  23.370   2.500
 1484BOLB   GL335607  17.010  23.300   3.000
 1484BOLB   GL435608  16.740  23.030   3.100
 1484BOLB   C1C35609  17.210  23.060   3.360
 1484BOLB   C2C35610  17.300  22.560   3.630
 1484BOLB   C3C35611  17.350  22.140   3.540
 1484BOLB   C4C35612  17.300  21.730   3.610
 1484BOLB   C1D35613  16.650  23.030   3.440
 1484BOLB   C2D35614  16.820  22.980   3.790
 1484BOLB   C3D35615  16.810  22.740   4.090
 1484BOLB   C4D35616  16.780  22.500   4.400
 1485BOLB   NC135617  12.770  12.870   5.640
 1485BOLB   PO135618  13.170  12.710   5.590
 1485BOLB   GL135619  12.940  12.400   5.480
 1485BOLB   GL235620  12.610  12.440   5.570
 1485BOLB   C1A35621  12.860  11.930   5.280
 1485BOLB   C2A35622  12.670  11.630   5.080
 1485BOLB   C3A35623  12.670  11.380   4.820
 1485BOLB   C4A35624  12.400  11.140   4.600
 1485BOLB   C1B35625  12.440  12.250   5.170
 1485BOLB   C2B35626  12.420  12.020   4.880
 1485BOLB   C3B35627  12.310  11.720   4.620
 1485BOLB   C4B35628  12.270  11.530   4.190
 1485BOLB   NC235629  10.970   9.220   3.660
 1485BOLB   PO235630  10.610   9.270   3.910
 1485BOLB   GL335631  10.970   9.420   4.130
 1485BOLB   GL435632  11.240   9.290   4.430
 1485BOLB   C1C35633  11.130   9.870   4.080
 1485BOLB   C2C35634  11.560  10.230   4.210
 1485BOLB   C3C35635  11.870  10.680   4.200
 1485BOLB   C4C35636  12.240  10.900   4.290
 1485BOLB   C1D35637  11.450   9.380   4.920
 1485BOLB   C2D35638  11.530   9.810   5.040
 1485BOLB   C3D35639  11.820  10.090   5.390
 1485BOLB   C4D35640  11.960  10.280   5.700
 1486BOLB   NC135641  10.960  10.860  10.220
 1486BOLB   PO135642  11.190  10.380  10.210
 1486BOLB   GL135643  11.100  10.000  10.150
 1486BOLB   GL235644  11.350   9.690  10.180
 1486BOLB   C1A35645  10.930   9.890   9.750
 1486BOLB   C2A35646  10.630   9.760   9.430
 1486BOLB   C3A35647  10.180   9.580   9.400
 1486BOLB   C4A35648   9.740   9.590   9.180
 1486BOLB   C1B35649  11.170   9.390  10.100
 1486BOLB   C2B35650  11.010   9.030   9.940
 1486BOLB   C3B35651  10.820   8.660   9.790
 1486BOLB   C4B35652  10.460   8.550   9.540
 1486BOLB   NC235653   8.830   7.780   8.130
 1486BOLB   PO235654   8.500   7.810   8.570
 1486BOLB   GL335655   8.680   7.980   8.930
 1486BOLB   GL435656   8.690   7.740   9.170
 1486BOLB   C1C35657   8.730   8.410   8.870
 1486BOLB   C2C35658   8.730   8.860   9.110
 1486BOLB   C3C35659   8.940   9.200   9.160
 1486BOLB   C4C35660   9.300   9.580   9.200
 1486BOLB   C1D35661   9.020   8.020   9.290
 1486BOLB   C2D35662   9.380   8.160   9.320
 1486BOLB   C3D35663   9.630   8.470   9.230
 1486BOLB   C4D35664   9.910   8.870   9.190
 1487BOLB   NC135665  16.560  13.940   4.430
 1487BOLB   PO135666  16.220  14.160   4.340
 1487BOLB   GL135667  16.520  14.040   3.890
 1487BOLB   GL235668  16.440  14.250   3.690
 1487BOLB   C1A35669  16.790  13.860   3.480
 1487BOLB   C2A35670  16.710  13.810   2.990
 1487BOLB   C3A35671  16.960  14.060   2.680
 1487BOLB   C4A35672  17.010  13.910   2.270
 1487BOLB   C1B35673  16.260  13.920   3.310
 1487BOLB   C2B35674  16.270  13.650   2.930
 1487BOLB   C3B35675  16.030  13.630   2.620
 1487BOLB   C4B35676  15.880  13.590   2.210
 1487BOLB   NC235677  18.570  12.710   1.060
 1487BOLB   PO235678  18.730  13.130   0.980
 1487BOLB   GL335679  18.570  13.230   1.280
 1487BOLB   GL435680  18.720  12.950   1.470
 1487BOLB   C1C35681  18.190  13.460   1.370
 1487BOLB   C2C35682  18.000  13.740   1.560
 1487BOLB   C3C35683  17.720  13.950   1.880
 1487BOLB   C4C35684  17.440  13.880   2.070
 1487BOLB   C1D35685  18.590  12.840   1.840
 1487BOLB   C2D35686  18.460  13.080   2.220
 1487BOLB   C3D35687  18.240  13.430   2.550
 1487BOLB   C4D35688  18.460  13.800   2.580
 1488BOLB   NC135689  23.950  19.130  12.600
 1488BOLB   PO135690  23.940  19.520  12.820
 1488BOLB   GL135691  24.320  19.580  12.730
 1488BOLB   GL235692  24.480  19.350  12.640
 1488BOLB   C1A35693  24.520  19.900  12.500
 1488BOLB   C2A35694  24.830  20.040  12.430
 1488BOLB   C3A35695  25.000  20.290  12.740
 1488BOLB   C4A35696  25.320  20.510  12.750
 1488BOLB   C1B35697  24.870  19.550  12.690
 1488BOLB   C2B35698  25.200  19.870  12.730
 1488BOLB   C3B35699  25.650  19.850  12.880
 1488BOLB   C4B35700  26.010  19.820  13.090
 1488BOLB   NC235701  27.690  21.850  11.890
 1488BOLB   PO235702  27.410  21.940  12.180
 1488BOLB   GL335703  26.960  21.870  12.100
 1488BOLB   GL435704  26.850  22.110  11.930
 1488BOLB   C1C35705  26.740  21.460  12.070
 1488BOLB   C2C35706  26.350  21.200  12.060
 1488BOLB   C3C35707  26.020  20.840  12.330
 1488BOLB   C4C35708  25.720  20.600  12.560
 1488BOLB   C1D35709  26.680  21.920  11.700
 1488BOLB   C2D35710  26.410  21.790  11.390
 1488BOLB   C3D35711  26.040  21.510  11.290
 1488BOLB   C4D35712  25.740  21.350  11.410
 1489BOLB   NC135713   9.070  19.120   3.120
 1489BOLB   PO135714   8.810  19.470   3.180
 1489BOLB   GL135715   9.220  19.440   3.440
 1489BOLB   GL235716   9.470  19.690   3.200
 1489BOLB   C1A35717   9.370  19.370   3.820
 1489BOLB   C2A35718   9.610  19.230   4.190
 1489BOLB   C3A35719   9.680  19.080   4.560
 1489BOLB   C4A35720  10.090  19.080   4.640
 1489BOLB   C1B35721   9.710  19.780   3.620
 1489BOLB   C2B35722   9.960  20.040   4.030
 1489BOLB   C3B35723  10.330  20.090   4.370
 1489BOLB   C4B35724  10.380  19.750   4.560
 1489BOLB   NC235725   9.820  20.560   2.860
 1489BOLB   PO235726   9.760  20.120   3.070
 1489BOLB   GL335727  10.160  19.950   3.180
 1489BOLB   GL435728  10.460  19.910   3.110
 1489BOLB   C1C35729  10.260  19.860   3.640
 1489BOLB   C2C35730  10.390  19.680   4.020
 1489BOLB   C3C35731  10.550  19.390   4.240
 1489BOLB   C4C35732  10.510  19.070   4.560
 1489BOLB   C1D35733  10.260  19.470   3.340
 1489BOLB   C2D35734  10.420  19.230   3.680
 1489BOLB   C3D35735  10.670  18.980   4.010
 1489BOLB   C4D35736  11.000  18.680   4.220
 1490BOLB   NC135737   9.070  18.430   8.620
 1490BOLB   PO135738   8.790  18.650   8.840
 1490BOLB   GL135739   8.720  18.800   8.500
 1490BOLB   GL235740   8.930  18.810   8.260
 1490BOLB   C1A35741   8.490  18.680   8.100
 1490BOLB   C2A35742   8.200  18.920   7.880
 1490BOLB   C3A35743   8.050  19.320   7.750
 1490BOLB   C4A35744   7.980  19.750   7.560
 1490BOLB   C1B35745   8.660  19.210   8.130
 1490BOLB   C2B35746   8.290  19.470   8.150
 1490BOLB   C3B35747   8.030  19.880   8.300
 1490BOLB   C4B35748   7.650  20.050   8.260
 1490BOLB   NC235749   6.370  21.070   7.130
 1490BOLB   PO235750   6.330  20.660   7.070
 1490BOLB   GL335751   6.560  20.510   7.430
 1490BOLB   GL435752   6.720  20.350   7.300
 1490BOLB   C1C35753   6.710  20.510   7.790
 1490BOLB   C2C35754   7.060  20.260   8.040
 1490BOLB   C3C35755   7.360  19.950   7.780
 1490BOLB   C4C35756   7.720  20.050   7.560
 1490BOLB   C1D35757   6.840  20.100   7.550
 1490BOLB   C2D35758   7.000  19.740   7.480
 1490BOLB   C3D35759   7.260  19.460   7.560
 1490BOLB   C4D35760   7.600  19.400   7.600
 1491BOLB   NC135761  14.460  24.270  16.960
 1491BOLB   PO135762  14.330  24.270  17.410
 1491BOLB   GL135763  14.420  24.550  17.760
 1491BOLB   GL235764  14.460  24.550  18.090
 1491BOLB   C1A35765  14.420  25.050  17.970
 1491BOLB   C2A35766  14.500  25.330  18.150
 1491BOLB   C3A35767  14.430  25.350  18.620
 1491BOLB   C4A35768  14.220  25.680  18.780
 1491BOLB   C1B35769  14.260  24.850  18.440
 1491BOLB   C2B35770  13.970  25.150  18.630
 1491BOLB   C3B35771  13.750  25.120  18.950
 1491BOLB   C4B35772  13.690  25.340  19.220
 1491BOLB   NC235773  13.540  27.760  20.180
 1491BOLB   PO235774  13.290  27.370  20.070
 1491BOLB   GL335775  13.340  27.190  19.730
 1491BOLB   GL435776  13.310  26.920  19.890
 1491BOLB   C1C35777  13.540  26.940  19.440
 1491BOLB   C2C35778  13.850  26.660  19.520
 1491BOLB   C3C35779  14.250  26.380  19.360
 1491BOLB   C4C35780  14.180  26.080  19.160
 1491BOLB   C1D35781  13.360  26.490  19.690
 1491BOLB   C2D35782  13.160  26.130  19.390
 1491BOLB   C3D35783  13.400  25.730  19.380
 1491BOLB   C4D35784  13.700  25.510  19.670
 1492BOLB   NC135785  13.420  21.140   6.660
 1492BOLB   PO135786  13.720  21.070   6.490
 1492BOLB   GL135787  13.830  21.200   6.020
 1492BOLB   GL235788  14.140  21.290   6.050
 1492BOLB   C1A35789  13.720  21.460   5.720
 1492BOLB   C2A35790  13.380  21.640   5.530
 1492BOLB   C3A35791  12.970  21.480   5.240
 1492BOLB   C4A35792  12.650  21.580   4.900
 1492BOLB   C1B35793  14.200  21.450   5.680
 1492BOLB   C2B35794  14.250  21.770   5.380
 1492BOLB   C3B35795  14.200  21.820   4.940
 1492BOLB   C4B35796  14.270  21.690   4.580
 1492BOLB   NC235797  12.040  23.050   3.090
 1492BOLB   PO235798  12.070  23.120   3.530
 1492BOLB   GL335799  11.920  22.690   3.450
 1492BOLB   GL435800  12.030  22.360   3.470
 1492BOLB   C1C35801  11.880  22.570   3.900
 1492BOLB   C2C35802  11.830  22.260   4.180
 1492BOLB   C3C35803  12.050  22.020   4.460
 1492BOLB   C4C35804  12.450  21.870   4.580
 1492BOLB   C1D35805  12.080  21.970   3.760
 1492BOLB   C2D35806  12.330  21.680   3.970
 1492BOLB   C3D35807  12.530  21.230   4.030
 1492BOLB   C4D35808  12.590  20.950   4.350
 1493BOLB   NC135809  16.090   9.140  13.940
 1493BOLB   PO135810  15.900   9.450  14.290
 1493BOLB   GL135811  15.790   8.980  14.300
 1493BOLB   GL235812  15.560   8.760  14.200
 1493BOLB   C1A35813  15.760   8.610  14.620
 1493BOLB   C2A35814  15.620   8.200  14.770
 1493BOLB   C3A35815  15.690   7.800  14.850
 1493BOLB   C4A35816  15.890   7.380  15.050
 1493BOLB   C1B35817  15.690   8.270  14.160
 1493BOLB   C2B35818  15.730   7.940  14.370
 1493BOLB   C3B35819  15.680   7.520  14.370
 1493BOLB   C4B35820  15.500   7.190  14.680
 1493BOLB   NC235821  16.500   5.030  15.630
 1493BOLB   PO235822  16.880   5.200  15.490
 1493BOLB   GL335823  16.640   5.580  15.410
 1493BOLB   GL435824  16.840   5.650  15.190
 1493BOLB   C1C35825  16.190   5.900  15.270
 1493BOLB   C2C35826  16.010   6.200  15.080
 1493BOLB   C3C35827  15.820   6.560  14.970
 1493BOLB   C4C35828  15.890   6.950  15.180
 1493BOLB   C1D35829  16.590   6.090  15.060
 1493BOLB   C2D35830  16.500   6.610  15.120
 1493BOLB   C3D35831  16.250   6.780  14.810
 1493BOLB   C4D35832  16.410   7.310  14.850
 1494BOLB   NC135833  15.570   9.610   7.830
 1494BOLB   PO135834  15.850   9.690   7.520
 1494BOLB   GL135835  15.760   9.310   7.330
 1494BOLB   GL235836  15.450   9.200   7.510
 1494BOLB   C1A35837  15.630   8.940   7.090
 1494BOLB   C2A35838  15.600   8.520   7.040
 1494BOLB   C3A35839  15.310   8.130   6.920
 1494BOLB   C4A35840  15.030   7.980   6.810
 1494BOLB   C1B35841  15.380   8.840   7.500
 1494BOLB   C2B35842  15.340   8.360   7.420
 1494BOLB   C3B35843  15.230   7.970   7.330
 1494BOLB   C4B35844  15.240   7.610   7.520
 1494BOLB   NC235845  12.950   6.290   6.490
 1494BOLB   PO235846  13.250   6.260   6.200
 1494BOLB   GL335847  13.690   6.510   6.210
 1494BOLB   GL435848  13.600   6.770   5.930
 1494BOLB   C1C35849  14.010   6.840   6.280
 1494BOLB   C2C35850  14.340   7.040   6.480
 1494BOLB   C3C35851  14.570   7.350   6.720
 1494BOLB   C4C35852  14.760   7.670   6.640
 1494BOLB   C1D35853  13.710   7.170   6.150
 1494BOLB   C2D35854  13.900   7.620   6.260
 1494BOLB   C3D35855  13.890   7.970   6.580
 1494BOLB   C4D35856  13.760   8.440   6.710
 1495BOLB   NC135857  22.630  21.980  13.660
 1495BOLB   PO135858  22.610  22.090  13.980
 1495BOLB   GL135859  22.900  22.350  14.040
 1495BOLB   GL235860  23.040  22.410  14.330
 1495BOLB   C1A35861  23.210  22.620  13.870
 1495BOLB   C2A35862  23.480  22.960  14.040
 1495BOLB   C3A35863  23.560  23.260  14.330
 1495BOLB   C4A35864  23.850  23.120  14.600
 1495BOLB   C1B35865  23.180  22.400  14.640
 1495BOLB   C2B35866  23.380  22.440  15.010
 1495BOLB   C3B35867  23.720  22.520  15.160
 1495BOLB   C4B35868  24.150  22.470  15.450
 1495BOLB   NC235869  25.840  24.650  15.110
 1495BOLB   PO235870  25.740  24.360  15.420
 1495BOLB   GL335871  25.380  24.040  15.330
 1495BOLB   GL435872  25.120  24.100  15.480
 1495BOLB   C1C35873  25.190  23.710  14.970
 1495BOLB   C2C35874  24.920  23.360  14.810
 1495BOLB   C3C35875  24.690  23.050  14.790
 1495BOLB   C4C35876  24.300  23.000  14.600
 1495BOLB   C1D35877  24.920  23.750  15.420
 1495BOLB   C2D35878  24.590  23.650  15.280
 1495BOLB   C3D35879  24.430  23.310  15.100
 1495BOLB   C4D35880  24.140  22.950  15.040
 1496BOLB   NC135881  20.080  22.130   7.290
 1496BOLB   PO135882  19.960  22.570   7.400
 1496BOLB   GL135883  19.770  22.850   7.180
 1496BOLB   GL235884  19.950  23.080   7.230
 1496BOLB   C1A35885  19.680  23.120   6.850
 1496BOLB   C2A35886  19.730  23.170   6.370
 1496BOLB   C3A35887  20.060  23.050   5.990
 1496BOLB   C4A35888  20.200  22.620   5.750
 1496BOLB   C1B35889  20.140  23.530   7.150
 1496BOLB   C2B35890  20.030  23.930   7.150
 1496BOLB   C3B35891  20.120  24.250   6.770
 1496BOLB   C4B35892  20.310  24.350   6.420
 1496BOLB   NC235893  20.360  23.710   3.730
 1496BOLB   PO235894  20.760  23.670   3.880
 1496BOLB   GL335895  20.680  23.270   4.010
 1496BOLB   GL435896  20.410  23.070   3.760
 1496BOLB   C1C35897  20.500  22.930   4.230
 1496BOLB   C2C35898  20.350  22.820   4.610
 1496BOLB   C3C35899  20.340  22.740   5.060
 1496BOLB   C4C35900  20.350  22.730   5.460
 1496BOLB   C1D35901  20.010  22.880   3.740
 1496BOLB   C2D35902  19.640  22.770   3.900
 1496BOLB   C3D35903  19.330  22.560   4.100
 1496BOLB   C4D35904  19.310  22.170   3.870
 1497BOLB   NC135905  21.660  22.930  13.580
 1497BOLB   PO135906  21.980  23.070  13.180
 1497BOLB   GL135907  22.370  23.200  13.220
 1497BOLB   GL235908  22.600  22.990  13.280
 1497BOLB   C1A35909  22.630  23.580  13.110
 1497BOLB   C2A35910  23.040  23.680  13.240
 1497BOLB   C3A35911  23.370  23.670  13.510
 1497BOLB   C4A35912  23.530  24.100  13.650
 1497BOLB   C1B35913  22.820  23.320  13.500
 1497BOLB   C2B35914  22.850  23.730  13.710
 1497BOLB   C3B35915  23.080  24.160  13.690
 1497BOLB   C4B35916  23.260  24.480  13.670
 1497BOLB   NC235917  25.660  25.930  13.030
 1497BOLB   PO235918  25.530  25.930  13.450
 1497BOLB   GL335919  25.150  25.740  13.590
 1497BOLB   GL435920  24.900  25.850  13.770
 1497BOLB   C1C35921  24.830  25.300  13.630
 1497BOLB   C2C35922  24.420  25.110  13.870
 1497BOLB   C3C35923  24.340  24.610  13.950
 1497BOLB   C4C35924  23.960  24.260  13.800
 1497BOLB   C1D35925  24.720  25.760  13.350
 1497BOLB   C2D35926  24.290  25.600  13.490
 1497BOLB   C3D35927  23.820  25.570  13.520
 1497BOLB   C4D35928  23.410  25.470  13.530
 1498BOLB   NC135929  14.140  18.670   4.710
 1498BOLB   PO135930  13.690  18.680   4.840
 1498BOLB   GL135931  13.440  18.720   4.520
 1498BOLB   GL235932  13.380  18.570   4.280
 1498BOLB   C1A35933  13.080  18.890   4.430
 1498BOLB   C2A35934  13.010  19.270   4.140
 1498BOLB   C3A35935  12.910  19.660   4.000
 1498BOLB   C4A35936  12.760  19.760   3.540
 1498BOLB   C1B35937  13.640  18.840   3.950
 1498BOLB   C2B35938  13.370  18.730   3.530
 1498BOLB   C3B35939  13.180  19.060   3.240
 1498BOLB   C4B35940  12.910  19.150   3.140
 1498BOLB   NC235941  11.690  21.580   2.020
 1498BOLB   PO235942  11.700  21.160   2.180
 1498BOLB   GL335943  11.760  20.880   2.390
 1498BOLB   GL435944  11.940  20.900   2.630
 1498BOLB   C1C35945  11.640  20.480   2.570
 1498BOLB   C2C35946  11.940  20.270   2.750
 1498BOLB   C3C35947  12.170  20.220   3.110
 1498BOLB   C4C35948  12.460  19.830   3.190
 1498BOLB   C1D35949  11.850  20.690   3.010
 1498BOLB   C2D35950  11.720  20.280   3.320
 1498BOLB   C3D35951  11.690  20.000   3.740
 1498BOLB   C4D35952  11.890  19.560   3.890
 1499BOLB   NC135953   6.890  11.340  23.700
 1499BOLB   PO135954   6.990  11.800  23.880
 1499BOLB   GL135955   7.400  11.570  23.720
 1499BOLB   GL235956   7.600  11.280  23.560
 1499BOLB   C1A35957   7.700  11.780  23.350
 1499BOLB   C2A35958   7.900  11.490  23.070
 1499BOLB   C3A35959   7.790  11.350  22.680
 1499BOLB   C4A35960   7.840  11.130  22.260
 1499BOLB   C1B35961   7.540  11.060  23.110
 1499BOLB   C2B35962   7.540  10.850  22.760
 1499BOLB   C3B35963   7.700  10.510  22.530
 1499BOLB   C4B35964   8.160  10.230  22.470
 1499BOLB   NC235965   6.970   9.910  23.220
 1499BOLB   PO235966   7.060   9.630  22.880
 1499BOLB   GL335967   7.220   9.970  22.580
 1499BOLB   GL435968   7.510   9.950  22.400
 1499BOLB   C1C35969   7.270  10.330  22.270
 1499BOLB   C2C35970   7.410  10.360  21.830
 1499BOLB   C3C35971   7.730  10.640  21.660
 1499BOLB   C4C35972   7.970  10.990  21.740
 1499BOLB   C1D35973   7.800  10.160  22.150
 1499BOLB   C2D35974   8.150  10.210  21.960
 1499BOLB   C3D35975   8.240  10.570  21.680
 1499BOLB   C4D35976   8.580  10.870  21.670
 1500BOLB   NC135977  11.570  14.330   5.660
 1500BOLB   PO135978  11.740  14.660   5.690
 1500BOLB   GL135979  11.650  14.750   5.130
 1500BOLB   GL235980  11.330  14.730   5.110
 1500BOLB   C1A35981  11.470  14.810   4.670
 1500BOLB   C2A35982  11.380  14.800   4.200
 1500BOLB   C3A35983  11.270  14.580   3.780
 1500BOLB   C4A35984  11.180  14.190   3.510
 1500BOLB   C1B35985  10.920  14.600   4.990
 1500BOLB   C2B35986  10.440  14.630   5.120
 1500BOLB   C3B35987  10.190  14.310   5.290
 1500BOLB   C4B35988  10.250  13.940   4.970
 1500BOLB   NC235989  10.000  13.510   1.500
 1500BOLB   PO235990   9.700  13.650   1.890
 1500BOLB   GL335991   9.940  13.410   2.130
 1500BOLB   GL435992  10.060  13.220   1.970
 1500BOLB   C1C35993  10.120  13.610   2.650
 1500BOLB   C2C35994  10.560  13.590   2.760
 1500BOLB   C3C35995  10.890  13.580   3.080
 1500BOLB   C4C35996  11.100  13.890   3.220
 1500BOLB   C1D35997  10.410  13.460   2.260
 1500BOLB   C2D35998  10.710  13.430   2.230
 1500BOLB   C3D35999  11.080  13.390   2.560
 1500BOLB   C4D36000  11.390  13.110   2.740
 1501BOLB   NC136001  23.580  15.530   9.290
 1501BOLB   PO136002  23.340  15.280   8.930
 1501BOLB   GL136003  23.660  15.060   8.850
 1501BOLB   GL236004  23.720  15.240   8.510
 1501BOLB   C1A36005  23.890  14.790   8.520
 1501BOLB   C2A36006  24.210  14.520   8.570
 1501BOLB   C3A36007  24.670  14.340   8.450
 1501BOLB   C4A36008  24.940  14.720   8.440
 1501BOLB   C1B36009  23.740  15.630   8.170
 1501BOLB   C2B36010  23.870  15.660   7.840
 1501BOLB   C3B36011  24.350  15.630   7.660
 1501BOLB   C4B36012  24.560  15.900   7.410
 1501BOLB   NC236013  27.310  14.380   7.460
 1501BOLB   PO236014  27.050  14.520   7.200
 1501BOLB   GL336015  26.710  14.660   7.400
 1501BOLB   GL436016  26.740  14.780   7.720
 1501BOLB   C1C36017  26.340  14.620   7.450
 1501BOLB   C2C36018  25.990  14.740   7.660
 1501BOLB   C3C36019  25.630  14.840   7.900
 1501BOLB   C4C36020  25.430  14.670   8.280
 1501BOLB   C1D36021  26.430  14.670   7.980
 1501BOLB   C2D36022  26.280  14.450   8.180
 1501BOLB   C3D36023  26.140  14.040   8.240
 1501BOLB   C4D36024  26.090  13.860   8.550
 1502BOLB   NC136025  11.690  18.830   6.250
 1502BOLB   PO136026  11.640  19.300   6.370
 1502BOLB   GL136027  11.300  19.200   6.160
 1502BOLB   GL236028  11.160  18.840   6.080
 1502BOLB   C1A36029  11.010  19.340   5.930
 1502BOLB   C2A36030  10.710  19.630   5.820
 1502BOLB   C3A36031  10.520  19.910   5.580
 1502BOLB   C4A36032  10.560  20.180   5.260
 1502BOLB   C1B36033  10.960  18.740   5.700
 1502BOLB   C2B36034  10.600  18.680   5.400
 1502BOLB   C3B36035  10.210  18.460   5.240
 1502BOLB   C4B36036   9.860  18.190   5.070
 1502BOLB   NC236037   8.910  20.750   3.720
 1502BOLB   PO236038   9.190  20.860   3.450
 1502BOLB   GL336039   9.530  20.950   3.660
 1502BOLB   GL436040   9.370  21.020   3.980
 1502BOLB   C1C36041   9.810  20.830   3.980
 1502BOLB   C2C36042   9.970  20.600   4.200
 1502BOLB   C3C36043  10.050  20.430   4.610
 1502BOLB   C4C36044  10.390  20.290   4.850
 1502BOLB   C1D36045   9.440  20.750   4.330
 1502BOLB   C2D36046   9.590  20.370   4.390
 1502BOLB   C3D36047   9.710  20.090   4.510
 1502BOLB   C4D36048   9.980  19.890   4.850
 1503BOLB   NC136049  13.470  22.920   8.690
 1503BOLB   PO136050  13.300  23.290   8.940
 1503BOLB   GL136051  13.270  23.640   8.740
 1503BOLB   GL236052  13.180  23.870   9.080
 1503BOLB   C1A36053  13.350  23.990   8.450
 1503BOLB   C2A36054  13.330  24.390   8.120
 1503BOLB   C3A36055  13.230  24.800   8.090
 1503BOLB   C4A36056  12.920  25.040   8.000
 1503BOLB   C1B36057  12.860  24.090   8.840
 1503BOLB   C2B36058  12.540  24.220   8.630
 1503BOLB   C3B36059  12.200  24.210   8.400
 1503BOLB   C4B36060  11.930  24.110   8.010
 1503BOLB   NC236061  10.840  26.850   7.860
 1503BOLB   PO236062  11.110  26.600   8.040
 1503BOLB   GL336063  11.400  26.270   7.970
 1503BOLB   GL436064  11.520  26.420   8.250
 1503BOLB   C1C36065  11.540  25.850   8.100
 1503BOLB   C2C36066  11.930  25.620   8.110
 1503BOLB   C3C36067  12.230  25.300   8.180
 1503BOLB   C4C36068  12.600  25.170   8.170
 1503BOLB   C1D36069  11.860  26.230   8.150
 1503BOLB   C2D36070  12.150  26.080   8.470
 1503BOLB   C3D36071  12.450  26.060   8.730
 1503BOLB   C4D36072  12.790  25.920   8.920
 1504BOLB   NC136073  15.940  17.160   4.060
 1504BOLB   PO136074  15.810  16.820   4.320
 1504BOLB   GL136075  15.670  16.860   3.770
 1504BOLB   GL236076  15.510  17.080   3.850
 1504BOLB   C1A36077  15.750  16.660   3.360
 1504BOLB   C2A36078  15.630  16.560   2.760
 1504BOLB   C3A36079  15.710  16.700   2.340
 1504BOLB   C4A36080  15.950  16.880   1.950
 1504BOLB   C1B36081  15.520  17.090   3.360
 1504BOLB   C2B36082  15.310  17.030   3.000
 1504BOLB   C3B36083  15.300  16.880   2.670
 1504BOLB   C4B36084  15.260  16.460   2.450
 1504BOLB   NC236085  17.030  15.810   0.200
 1504BOLB   PO236086  16.700  16.030   0.240
 1504BOLB   GL336087  16.660  16.000   0.630
 1504BOLB   GL436088  16.980  15.860   0.690
 1504BOLB   C1C36089  16.360  16.110   0.900
 1504BOLB   C2C36090  16.170  16.130   1.290
 1504BOLB   C3C36091  16.110  16.340   1.650
 1504BOLB   C4C36092  16.230  16.710   1.740
 1504BOLB   C1D36093  17.140  15.980   1.000
 1504BOLB   C2D36094  17.080  16.000   1.440
 1504BOLB   C3D36095  17.130  16.240   1.870
 1504BOLB   C4D36096  16.990  16.390   2.320
 1505BOLB   NC136097  18.760  15.920  19.420
 1505BOLB   PO136098  18.930  15.980  19.750
 1505BOLB   GL136099  19.140  15.890  20.130
 1505BOLB   GL236100  19.080  15.940  20.440
 1505BOLB   C1A36101  19.500  15.760  20.410
 1505BOLB   C2A36102  19.670  15.600  20.670
 1505BOLB   C3A36103  19.740  15.360  21.030
 1505BOLB   C4A36104  19.740  14.940  21.160
 1505BOLB   C1B36105  19.240  15.830  20.840
 1505BOLB   C2B36106  19.000  15.730  21.340
 1505BOLB   C3B36107  18.880  15.640  21.780
 1505BOLB   C4B36108  18.500  15.600  22.040
 1505BOLB   NC236109  19.720  13.960  23.680
 1505BOLB   PO236110  19.920  13.740  23.300
 1505BOLB   GL336111  19.730  14.090  23.020
 1505BOLB   GL436112  19.900  14.210  23.210
 1505BOLB   C1C36113  19.900  14.460  22.670
 1505BOLB   C2C36114  19.780  14.550  22.280
 1505BOLB   C3C36115  19.500  14.420  21.930
 1505BOLB   C4C36116  19.610  14.540  21.490
 1505BOLB   C1D36117  19.480  14.450  22.850
 1505BOLB   C2D36118  19.240  14.730  22.630
 1505BOLB   C3D36119  19.110  14.870  22.230
 1505BOLB   C4D36120  19.110  14.700  21.820
 1506BOLB   NC136121  10.070  22.320  12.510
 1506BOLB   PO136122  10.300  22.430  12.040
 1506BOLB   GL136123  10.010  22.590  11.780
 1506BOLB   GL236124   9.770  22.410  11.860
 1506BOLB   C1A36125   9.710  22.970  11.600
 1506BOLB   C2A36126   9.570  23.360  11.760
 1506BOLB   C3A36127   9.300  23.700  11.670
 1506BOLB   C4A36128   9.230  24.010  11.370
 1506BOLB   C1B36129   9.460  22.660  11.950
 1506BOLB   C2B36130   9.190  22.960  11.770
 1506BOLB   C3B36131   8.810  23.290  11.680
 1506BOLB   C4B36132   8.390  23.500  11.680
 1506BOLB   NC236133   7.790  25.460  10.970
 1506BOLB   PO236134   7.750  25.310  10.550
 1506BOLB   GL336135   8.090  25.100  10.740
 1506BOLB   GL436136   8.300  25.090  10.500
 1506BOLB   C1C36137   8.560  25.280  10.950
 1506BOLB   C2C36138   9.030  25.090  10.870
 1506BOLB   C3C36139   9.080  24.670  10.790
 1506BOLB   C4C36140   9.250  24.340  11.060
 1506BOLB   C1D36141   8.720  24.860  10.480
 1506BOLB   C2D36142   9.150  24.750  10.200
 1506BOLB   C3D36143   9.270  24.940   9.810
 1506BOLB   C4D36144   9.730  24.950   9.880
 1507BOLB   NC136145  18.890   9.580   9.820
 1507BOLB   PO136146  18.940   9.470  10.200
 1507BOLB   GL136147  18.670   9.120   9.960
 1507BOLB   GL236148  18.390   8.840   9.980
 1507BOLB   C1A36149  18.830   8.620   9.810
 1507BOLB   C2A36150  18.990   8.310   9.530
 1507BOLB   C3A36151  19.180   8.040   9.330
 1507BOLB   C4A36152  19.430   7.680   9.160
 1507BOLB   C1B36153  18.310   8.720   9.610
 1507BOLB   C2B36154  18.160   8.350   9.430
 1507BOLB   C3B36155  18.340   8.050   9.180
 1507BOLB   C4B36156  18.590   7.780   9.140
 1507BOLB   NC236157  20.460   5.790   7.750
 1507BOLB   PO236158  20.330   6.140   7.650
 1507BOLB   GL336159  20.110   6.620   7.800
 1507BOLB   GL436160  19.930   6.780   7.610
 1507BOLB   C1C36161  19.660   6.650   8.100
 1507BOLB   C2C36162  19.270   6.850   8.190
 1507BOLB   C3C36163  19.250   7.130   8.520
 1507BOLB   C4C36164  19.220   7.430   8.940
 1507BOLB   C1D36165  19.700   7.110   7.340
 1507BOLB   C2D36166  19.390   7.400   7.160
 1507BOLB   C3D36167  18.880   7.420   7.050
 1507BOLB   C4D36168  18.500   7.500   7.020
 1508BOLB   NC136169   2.990  21.060  12.330
 1508BOLB   PO136170   2.790  20.580  12.310
 1508BOLB   GL136171   2.760  20.170  12.610
 1508BOLB   GL236172   3.070  20.300  12.740
 1508BOLB   C1A36173   2.710  19.970  12.940
 1508BOLB   C2A36174   2.750  19.960  13.430
 1508BOLB   C3A36175   3.050  19.910  13.690
 1508BOLB   C4A36176   3.360  19.700  13.850
 1508BOLB   C1B36177   3.450  20.420  12.970
 1508BOLB   C2B36178   3.770  20.260  13.290
 1508BOLB   C3B36179   4.010  20.420  13.570
 1508BOLB   C4B36180   4.360  20.670  13.720
 1508BOLB   NC236181   2.530  19.850  12.200
 1508BOLB   PO236182   2.280  19.560  12.370
 1508BOLB   GL336183   2.490  19.330  12.530
 1508BOLB   GL436184   2.660  19.550  12.740
 1508BOLB   C1C36185   2.890  19.090  12.620
 1508BOLB   C2C36186   3.130  18.950  12.970
 1508BOLB   C3C36187   3.420  19.130  13.250
 1508BOLB   C4C36188   3.540  19.320  13.610
 1508BOLB   C1D36189   2.560  19.150  12.970
 1508BOLB   C2D36190   2.700  18.920  13.330
 1508BOLB   C3D36191   2.730  18.620  13.710
 1508BOLB   C4D36192   2.740  18.340  14.110
 1509BOLB   NC136193   9.130  20.010  13.010
 1509BOLB   PO136194   8.740  20.230  13.000
 1509BOLB   GL136195   8.260  20.140  12.970
 1509BOLB   GL236196   8.230  20.250  13.320
 1509BOLB   C1A36197   7.810  20.160  12.980
 1509BOLB   C2A36198   7.470  20.480  12.960
 1509BOLB   C3A36199   7.220  20.840  12.870
 1509BOLB   C4A36200   6.800  20.860  12.840
 1509BOLB   C1B36201   8.020  20.170  13.790
 1509BOLB   C2B36202   7.900  20.150  14.120
 1509BOLB   C3B36203   7.540  20.060  14.280
 1509BOLB   C4B36204   7.120  20.020  14.360
 1509BOLB   NC236205   5.200  22.550  12.130
 1509BOLB   PO236206   4.910  22.390  11.820
 1509BOLB   GL336207   5.150  22.030  11.830
 1509BOLB   GL436208   5.230  21.920  11.590
 1509BOLB   C1C36209   5.600  21.810  12.000
 1509BOLB   C2C36210   5.950  21.470  12.090
 1509BOLB   C3C36211   6.240  21.290  12.340
 1509BOLB   C4C36212   6.530  21.060  12.580
 1509BOLB   C1D36213   5.660  22.110  11.610
 1509BOLB   C2D36214   6.050  22.380  11.650
 1509BOLB   C3D36215   6.520  22.400  11.580
 1509BOLB   C4D36216   6.930  22.110  11.530
 1510BOLB   NC136217  12.890  21.650   7.820
 1510BOLB   PO136218  12.520  21.690   8.000
 1510BOLB   GL136219  12.340  21.990   7.830
 1510BOLB   GL236220  12.470  21.810   7.530
 1510BOLB   C1A36221  12.330  22.330   7.790
 1510BOLB   C2A36222  12.210  22.730   7.700
 1510BOLB   C3A36223  12.210  23.170   7.530
 1510BOLB   C4A36224  12.020  23.450   7.270
 1510BOLB   C1B36225  12.290  22.180   7.300
 1510BOLB   C2B36226  12.240  22.630   7.220
 1510BOLB   C3B36227  12.160  22.960   7.020
 1510BOLB   C4B36228  12.220  23.380   6.760
 1510BOLB   NC236229  11.030  25.690   6.540
 1510BOLB   PO236230  10.860  25.410   6.190
 1510BOLB   GL336231  11.100  24.980   6.120
 1510BOLB   GL436232  11.440  24.940   6.140
 1510BOLB   C1C36233  11.180  24.490   6.240
 1510BOLB   C2C36234  11.300  24.080   6.560
 1510BOLB   C3C36235  11.660  23.860   6.690
 1510BOLB   C4C36236  11.760  23.540   6.910
 1510BOLB   C1D36237  11.660  24.540   6.200
 1510BOLB   C2D36238  11.790  24.320   6.530
 1510BOLB   C3D36239  11.910  24.240   6.870
 1510BOLB   C4D36240  11.780  23.960   7.200
 1511BOLB   NC136241   9.850  10.030   4.010
 1511BOLB   PO136242   9.970  10.120   3.550
 1511BOLB   GL136243  10.280  10.290   3.750
 1511BOLB   GL236244  10.190  10.550   3.920
 1511BOLB   C1A36245  10.640  10.290   3.900
 1511BOLB   C2A36246  11.080  10.330   4.120
 1511BOLB   C3A36247  11.340  10.620   4.330
 1511BOLB   C4A36248  11.610  10.820   4.640
 1511BOLB   C1B36249  10.190  10.470   4.320
 1511BOLB   C2B36250  10.240  10.560   4.740
 1511BOLB   C3B36251  10.020  10.900   4.840
 1511BOLB   C4B36252  10.010  11.310   4.910
 1511BOLB   NC236253  12.360  12.380   6.360
 1511BOLB   PO236254  12.640  12.190   6.030
 1511BOLB   GL336255  12.470  11.980   5.800
 1511BOLB   GL436256  12.180  12.070   5.590
 1511BOLB   C1C36257  12.470  11.590   5.540
 1511BOLB   C2C36258  12.290  11.250   5.340
 1511BOLB   C3C36259  12.300  10.890   5.070
 1511BOLB   C4C36260  12.040  10.800   4.740
 1511BOLB   C1D36261  12.140  11.800   5.230
 1511BOLB   C2D36262  12.090  11.380   4.970
 1511BOLB   C3D36263  11.830  11.190   5.090
 1511BOLB   C4D36264  11.660  11.170   5.570
 1512BOLB   NC136265  17.030  25.240  14.140
 1512BOLB   PO136266  17.420  25.080  13.880
 1512BOLB   GL136267  17.370  25.520  13.860
 1512BOLB   GL236268  17.620  25.570  14.040
 1512BOLB   C1A36269  17.280  25.900  13.940
 1512BOLB   C2A36270  17.320  26.340  13.880
 1512BOLB   C3A36271  17.410  26.720  14.030
 1512BOLB   C4A36272  17.470  27.120  14.060
 1512BOLB   C1B36273  17.710  25.930  14.290
 1512BOLB   C2B36274  17.880  26.320  14.270
 1512BOLB   C3B36275  17.920  26.710  14.320
 1512BOLB   C4B36276  17.930  27.200  14.150
 1512BOLB   NC236277  17.660  29.440  14.250
 1512BOLB   PO236278  17.400  29.400  14.670
 1512BOLB   GL336279  17.530  29.030  14.730
 1512BOLB   GL436280  17.760  28.990  14.570
 1512BOLB   C1C36281  17.340  28.740  14.430
 1512BOLB   C2C36282  17.390  28.380  14.230
 1512BOLB   C3C36283  17.480  27.980  14.120
 1512BOLB   C4C36284  17.550  27.520  13.980
 1512BOLB   C1D36285  17.860  28.630  14.320
 1512BOLB   C2D36286  18.000  28.170  14.330
 1512BOLB   C3D36287  17.930  27.690  14.220
 1512BOLB   C4D36288  18.320  27.420  14.330
 1513BOLB   NC136289  11.890   9.800  13.080
 1513BOLB   PO136290  11.570   9.720  13.260
 1513BOLB   GL136291  11.410   9.370  13.150
 1513BOLB   GL236292  11.220   9.160  13.370
 1513BOLB   C1A36293  11.290   8.950  12.930
 1513BOLB   C2A36294  11.120   8.560  12.870
 1513BOLB   C3A36295  10.890   8.160  12.820
 1513BOLB   C4A36296  10.780   7.760  12.860
 1513BOLB   C1B36297  10.910   8.890  13.550
 1513BOLB   C2B36298  11.060   8.470  13.820
 1513BOLB   C3B36299  11.140   8.240  14.190
 1513BOLB   C4B36300  11.240   7.910  14.500
 1513BOLB   NC236301   9.420   5.820  11.720
 1513BOLB   PO236302   9.520   6.090  11.990
 1513BOLB   GL336303   9.590   6.510  11.710
 1513BOLB   GL436304   9.760   6.610  11.310
 1513BOLB   C1C36305   9.870   6.700  11.920
 1513BOLB   C2C36306   9.930   6.940  12.300
 1513BOLB   C3C36307  10.130   7.350  12.570
 1513BOLB   C4C36308  10.500   7.370  12.780
 1513BOLB   C1D36309  10.010   6.870  11.470
 1513BOLB   C2D36310  10.390   7.010  11.790
 1513BOLB   C3D36311  10.600   7.230  12.000
 1513BOLB   C4D36312  10.950   7.370  12.090
 1514BOLB   NC136313  18.770  23.280   9.230
 1514BOLB   PO136314  19.010  23.330   8.840
 1514BOLB   GL136315  18.960  23.740   8.680
 1514BOLB   GL236316  18.850  24.010   8.900
 1514BOLB   C1A36317  18.950  23.970   8.320
 1514BOLB   C2A36318  19.240  24.120   7.960
 1514BOLB   C3A36319  19.350  24.540   7.750
 1514BOLB   C4A36320  19.450  24.770   7.400
 1514BOLB   C1B36321  18.840  24.440   8.680
 1514BOLB   C2B36322  18.720  24.830   8.520
 1514BOLB   C3B36323  18.810  25.240   8.390
 1514BOLB   C4B36324  19.120  25.440   8.110
 1514BOLB   NC236325  20.570  26.120   5.640
 1514BOLB   PO236326  20.810  25.670   5.540
 1514BOLB   GL336327  20.550  25.690   5.900
 1514BOLB   GL436328  20.790  25.580   6.120
 1514BOLB   C1C36329  20.380  25.460   6.280
 1514BOLB   C2C36330  20.050  25.330   6.440
 1514BOLB   C3C36331  19.950  25.160   6.870
 1514BOLB   C4C36332  19.780  25.080   7.240
 1514BOLB   C1D36333  20.770  25.070   6.280
 1514BOLB   C2D36334  20.760  24.550   6.400
 1514BOLB   C3D36335  20.790  24.120   6.660
 1514BOLB   C4D36336  20.770  23.690   6.460
 1515BOLB   NC136337  14.270  24.410  11.820
 1515BOLB   PO136338  14.050  24.820  11.840
 1515BOLB   GL136339  14.000  25.220  11.610
 1515BOLB   GL236340  14.170  25.540  11.750
 1515BOLB   C1A36341  13.690  25.520  11.490
 1515BOLB   C2A36342  13.520  25.760  11.130
 1515BOLB   C3A36343  13.410  26.220  11.060
 1515BOLB   C4A36344  13.380  26.560  11.050
 1515BOLB   C1B36345  14.000  25.890  11.610
 1515BOLB   C2B36346  13.750  26.270  11.520
 1515BOLB   C3B36347  13.830  26.710  11.430
 1515BOLB   C4B36348  13.800  27.150  11.690
 1515BOLB   NC236349  13.000  28.540  10.110
 1515BOLB   PO236350  13.410  28.410   9.980
 1515BOLB   GL336351  13.750  28.180   9.940
 1515BOLB   GL436352  13.850  28.100   9.670
 1515BOLB   C1C36353  13.870  27.850  10.210
 1515BOLB   C2C36354  13.800  27.420  10.370
 1515BOLB   C3C36355  14.010  27.040  10.530
 1515BOLB   C4C36356  13.790  26.840  10.990
 1515BOLB   C1D36357  14.170  27.830   9.770
 1515BOLB   C2D36358  14.210  27.520  10.120
 1515BOLB   C3D36359  14.330  27.150  10.090
 1515BOLB   C4D36360  14.450  26.790   9.980
 1516BOLB   NC136361  24.420  17.820  11.150
 1516BOLB   PO136362  24.420  17.420  11.040
 1516BOLB   GL136363  24.860  17.580  11.060
 1516BOLB   GL236364  24.870  17.590  10.790
 1516BOLB   C1A36365  25.230  17.570  11.150
 1516BOLB   C2A36366  25.670  17.410  11.000
 1516BOLB   C3A36367  26.050  17.230  11.120
 1516BOLB   C4A36368  26.480  17.130  11.010
 1516BOLB   C1B36369  25.350  17.390  10.650
 1516BOLB   C2B36370  25.690  17.420  10.460
 1516BOLB   C3B36371  26.090  17.510  10.210
 1516BOLB   C4B36372  26.320  17.910  10.020
 1516BOLB   NC236373  28.620  17.970  10.700
 1516BOLB   PO236374  28.660  18.140  10.270
 1516BOLB   GL336375  28.240  17.950  10.190
 1516BOLB   GL436376  28.140  17.660   9.880
 1516BOLB   C1C36377  27.830  18.000  10.240
 1516BOLB   C2C36378  27.600  17.720  10.530
 1516BOLB   C3C36379  27.250  17.400  10.730
 1516BOLB   C4C36380  26.780  17.350  10.740
 1516BOLB   C1D36381  27.760  17.540   9.980
 1516BOLB   C2D36382  27.370  17.330   9.770
 1516BOLB   C3D36383  27.020  17.320   9.650
 1516BOLB   C4D36384  26.700  17.300   9.300
 1517BOLB   NC136385  18.100  24.370  14.330
 1517BOLB   PO136386  18.260  24.830  14.330
 1517BOLB   GL136387  18.290  25.300  14.500
 1517BOLB   GL236388  17.890  25.430  14.530
 1517BOLB   C1A36389  18.450  25.690  14.720
 1517BOLB   C2A36390  18.550  26.120  14.760
 1517BOLB   C3A36391  18.500  26.400  15.080
 1517BOLB   C4A36392  18.560  26.610  15.400
 1517BOLB   C1B36393  17.960  25.760  14.700
 1517BOLB   C2B36394  18.090  26.080  14.890
 1517BOLB   C3B36395  17.940  26.320  15.140
 1517BOLB   C4B36396  17.600  26.650  15.380
 1517BOLB   NC236397  17.580  29.040  16.710
 1517BOLB   PO236398  17.890  28.760  16.840
 1517BOLB   GL336399  17.940  28.320  16.720
 1517BOLB   GL436400  18.260  28.230  16.550
 1517BOLB   C1C36401  17.990  27.840  16.570
 1517BOLB   C2C36402  18.030  27.520  16.170
 1517BOLB   C3C36403  18.410  27.250  16.040
 1517BOLB   C4C36404  18.290  26.890  15.750
 1517BOLB   C1D36405  18.290  28.070  16.140
 1517BOLB   C2D36406  18.500  27.810  16.040
 1517BOLB   C3D36407  18.620  27.600  15.740
 1517BOLB   C4D36408  18.570  27.300  15.470
 1518BOLB   NC136409  19.780  10.400   8.600
 1518BOLB   PO136410  19.460  10.240   8.880
 1518BOLB   GL136411  19.660   9.940   8.780
 1518BOLB   GL236412  19.910  10.000   8.880
 1518BOLB   C1A36413  19.730   9.480   8.790
 1518BOLB   C2A36414  20.040   9.250   8.940
 1518BOLB   C3A36415  20.420   9.030   9.030
 1518BOLB   C4A36416  20.530   8.580   8.910
 1518BOLB   C1B36417  20.170   9.670   8.680
 1518BOLB   C2B36418  20.550   9.490   8.840
 1518BOLB   C3B36419  20.880   9.300   8.820
 1518BOLB   C4B36420  20.930   8.870   8.810
 1518BOLB   NC236421  22.160   6.780   9.460
 1518BOLB   PO236422  22.090   6.480   9.140
 1518BOLB   GL336423  21.820   6.880   9.100
 1518BOLB   GL436424  21.990   7.200   9.150
 1518BOLB   C1C36425  21.420   7.160   8.900
 1518BOLB   C2C36426  21.090   7.570   8.860
 1518BOLB   C3C36427  20.890   7.800   9.230
 1518BOLB   C4C36428  20.680   8.160   9.220
 1518BOLB   C1D36429  21.930   7.600   9.000
 1518BOLB   C2D36430  21.580   7.750   9.090
 1518BOLB   C3D36431  21.270   8.080   8.960
 1518BOLB   C4D36432  20.890   8.150   8.750
 1519BOLB   NC136433  18.470  11.350   6.760
 1519BOLB   PO136434  18.900  11.130   6.680
 1519BOLB   GL136435  19.120  10.920   6.290
 1519BOLB   GL236436  19.000  10.740   6.010
 1519BOLB   C1A36437  19.460  10.820   6.080
 1519BOLB   C2A36438  19.640  10.530   5.830
 1519BOLB   C3A36439  19.810  10.200   5.600
 1519BOLB   C4A36440  20.040  10.470   5.290
 1519BOLB   C1B36441  19.150  10.390   5.860
 1519BOLB   C2B36442  19.280  10.040   5.650
 1519BOLB   C3B36443  19.610   9.730   5.410
 1519BOLB   C4B36444  19.830   9.350   5.310
 1519BOLB   NC236445  21.150   9.730   3.680
 1519BOLB   PO236446  20.710   9.790   3.580
 1519BOLB   GL336447  20.830  10.160   3.750
 1519BOLB   GL436448  20.860  10.530   3.560
 1519BOLB   C1C36449  20.760  10.340   4.100
 1519BOLB   C2C36450  20.800  10.430   4.420
 1519BOLB   C3C36451  20.660  10.380   4.770
 1519BOLB   C4C36452  20.440  10.380   5.120
 1519BOLB   C1D36453  20.460  10.750   3.650
 1519BOLB   C2D36454  20.020  10.920   3.810
 1519BOLB   C3D36455  19.930  11.070   4.080
 1519BOLB   C4D36456  19.810  11.430   4.290
 1520BOLB   NC136457  13.760   7.790   3.650
 1520BOLB   PO136458  13.610   8.130   3.340
 1520BOLB   GL136459  13.830   8.510   3.420
 1520BOLB   GL236460  13.550   8.600   3.610
 1520BOLB   C1A36461  14.200   8.650   3.720
 1520BOLB   C2A36462  14.220   8.720   4.210
 1520BOLB   C3A36463  14.490   8.750   4.540
 1520BOLB   C4A36464  14.890   8.740   4.700
 1520BOLB   C1B36465  13.640   8.790   3.910
 1520BOLB   C2B36466  13.930   9.050   4.010
 1520BOLB   C3B36467  14.320   9.260   4.300
 1520BOLB   C4B36468  14.720   9.210   4.350
 1520BOLB   NC236469  16.020   7.970   2.780
 1520BOLB   PO236470  16.000   7.700   3.190
 1520BOLB   GL336471  16.040   8.150   3.360
 1520BOLB   GL436472  15.930   8.380   3.010
 1520BOLB   C1C36473  15.870   8.250   3.740
 1520BOLB   C2C36474  15.600   8.210   4.010
 1520BOLB   C3C36475  15.300   8.260   4.380
 1520BOLB   C4C36476  15.170   8.540   4.690
 1520BOLB   C1D36477  15.900   8.660   3.390
 1520BOLB   C2D36478  15.880   8.900   3.700
 1520BOLB   C3D36479  15.690   9.010   4.120
 1520BOLB   C4D36480  15.890   9.280   4.300
 1521BOLB   NC136481  19.730   9.450  11.380
 1521BOLB   PO136482  20.000   9.620  11.150
 1521BOLB   GL136483  20.220   9.260  11.250
 1521BOLB   GL236484  20.160   9.060  11.470
 1521BOLB   C1A36485  20.430   8.880  11.070
 1521BOLB   C2A36486  20.780   8.530  11.200
 1521BOLB   C3A36487  20.700   8.180  11.110
 1521BOLB   C4A36488  20.950   7.890  11.090
 1521BOLB   C1B36489  20.220   8.650  11.580
 1521BOLB   C2B36490  20.360   8.270  11.630
 1521BOLB   C3B36491  20.810   8.090  11.680
 1521BOLB   C4B36492  21.230   8.000  11.720
 1521BOLB   NC236493  22.700   6.480  11.870
 1521BOLB   PO236494  22.380   6.320  11.580
 1521BOLB   GL336495  22.190   6.680  11.740
 1521BOLB   GL436496  22.080   6.790  12.000
 1521BOLB   C1C36497  22.190   7.140  11.680
 1521BOLB   C2C36498  21.820   7.340  11.650
 1521BOLB   C3C36499  21.510   7.480  11.450
 1521BOLB   C4C36500  21.220   7.640  11.270
 1521BOLB   C1D36501  21.910   7.220  12.140
 1521BOLB   C2D36502  21.660   7.440  12.410
 1521BOLB   C3D36503  21.410   7.760  12.600
 1521BOLB   C4D36504  21.350   8.030  12.930
 1522BOLB   NC136505  17.480  20.190   0.560
 1522BOLB   PO136506  17.860  19.880   0.640
 1522BOLB   GL136507  17.600  19.750   1.050
 1522BOLB   GL236508  17.360  20.030   1.020
 1522BOLB   C1A36509  17.530  19.800   1.500
 1522BOLB   C2A36510  17.710  19.960   1.910
 1522BOLB   C3A36511  17.760  20.090   2.350
 1522BOLB   C4A36512  17.530  20.290   2.710
 1522BOLB   C1B36513  17.120  20.070   1.370
 1522BOLB   C2B36514  16.820  19.940   1.640
 1522BOLB   C3B36515  16.560  20.000   1.820
 1522BOLB   C4B36516  16.160  20.190   1.940
 1522BOLB   NC236517  16.750  22.440   1.990
 1522BOLB   PO236518  17.120  22.230   1.700
 1522BOLB   GL336519  16.970  21.860   1.870
 1522BOLB   GL436520  16.910  22.030   2.140
 1522BOLB   C1C36521  16.830  21.290   2.020
 1522BOLB   C2C36522  16.730  20.930   2.160
 1522BOLB   C3C36523  16.790  20.660   2.550
 1522BOLB   C4C36524  17.120  20.420   2.820
 1522BOLB   C1D36525  16.930  21.950   2.650
 1522BOLB   C2D36526  16.870  21.560   3.020
 1522BOLB   C3D36527  16.530  21.290   3.140
 1522BOLB   C4D36528  16.070  21.120   3.120
 1523BOLB   NC136529  12.390  17.870   5.460
 1523BOLB   PO136530  12.830  18.000   5.300
 1523BOLB   GL136531  12.620  18.170   5.060
 1523BOLB   GL236532  12.240  18.100   5.030
 1523BOLB   C1A36533  12.490  18.300   4.660
 1523BOLB   C2A36534  12.470  18.490   4.310
 1523BOLB   C3A36535  12.390  18.590   3.840
 1523BOLB   C4A36536  12.170  18.870   3.660
 1523BOLB   C1B36537  11.910  18.090   4.730
 1523BOLB   C2B36538  11.530  18.350   4.480
 1523BOLB   C3B36539  11.440  18.820   4.290
 1523BOLB   C4B36540  11.540  19.250   4.020
 1523BOLB   NC236541  10.870  19.180   1.840
 1523BOLB   PO236542  10.650  19.500   1.970
 1523BOLB   GL336543  10.830  19.360   2.380
 1523BOLB   GL436544  11.010  19.050   2.330
 1523BOLB   C1C36545  11.030  19.180   2.840
 1523BOLB   C2C36546  11.210  19.300   3.150
 1523BOLB   C3C36547  11.490  19.170   3.420
 1523BOLB   C4C36548  11.890  19.100   3.570
 1523BOLB   C1D36549  11.410  19.060   2.560
 1523BOLB   C2D36550  11.900  19.100   2.560
 1523BOLB   C3D36551  12.190  19.330   2.590
 1523BOLB   C4D36552  12.540  19.430   2.940
 1524BOLB   NC136553  18.410  11.400   5.960
 1524BOLB   PO136554  18.210  11.750   5.910
 1524BOLB   GL136555  18.140  11.500   5.500
 1524BOLB   GL236556  17.960  11.210   5.520
 1524BOLB   C1A36557  18.100  11.290   5.070
 1524BOLB   C2A36558  18.040  10.960   4.740
 1524BOLB   C3A36559  18.120  10.930   4.300
 1524BOLB   C4A36560  18.160  11.040   3.860
 1524BOLB   C1B36561  17.990  10.760   5.430
 1524BOLB   C2B36562  17.870  10.590   5.060
 1524BOLB   C3B36563  17.650  10.250   4.950
 1524BOLB   C4B36564  17.680   9.860   4.760
 1524BOLB   NC236565  18.440  10.600   1.790
 1524BOLB   PO236566  18.330  10.940   1.580
 1524BOLB   GL336567  18.090  11.100   1.720
 1524BOLB   GL436568  17.730  11.340   1.750
 1524BOLB   C1C36569  17.970  11.300   2.170
 1524BOLB   C2C36570  18.060  11.260   2.660
 1524BOLB   C3C36571  18.050  11.100   3.100
 1524BOLB   C4C36572  18.160  10.890   3.450
 1524BOLB   C1D36573  17.730  11.710   2.120
 1524BOLB   C2D36574  17.730  12.110   2.420
 1524BOLB   C3D36575  17.820  12.540   2.760
 1524BOLB   C4D36576  18.020  12.650   3.140
 1525BOLB   NC136577  21.350  26.530   7.090
 1525BOLB   PO136578  21.690  26.790   7.470
 1525BOLB   GL136579  21.600  26.290   7.490
 1525BOLB   GL236580  21.740  26.010   7.550
 1525BOLB   C1A36581  21.490  26.110   7.950
 1525BOLB   C2A36582  21.320  26.330   8.430
 1525BOLB   C3A36583  21.320  26.520   8.810
 1525BOLB   C4A36584  21.440  26.360   9.220
 1525BOLB   C1B36585  21.740  25.670   7.820
 1525BOLB   C2B36586  21.520  25.210   7.850
 1525BOLB   C3B36587  21.080  25.200   7.910
 1525BOLB   C4B36588  20.720  25.350   7.760
 1525BOLB   NC236589  22.540  28.220   9.160
 1525BOLB   PO236590  22.490  27.880   9.440
 1525BOLB   GL336591  22.520  27.490   9.590
 1525BOLB   GL436592  22.490  27.300   9.310
 1525BOLB   C1C36593  22.190  27.170   9.670
 1525BOLB   C2C36594  22.160  26.790   9.870
 1525BOLB   C3C36595  21.780  26.600   9.820
 1525BOLB   C4C36596  21.580  26.410   9.570
 1525BOLB   C1D36597  22.630  26.910   9.530
 1525BOLB   C2D36598  22.450  26.460   9.600
 1525BOLB   C3D36599  22.200  26.160   9.640
 1525BOLB   C4D36600  21.800  25.970   9.760
 1526BOLB   NC136601  19.250  15.880   0.420
 1526BOLB   PO136602  19.610  16.110   0.340
 1526BOLB   GL136603  19.360  16.340   0.700
 1526BOLB   GL236604  19.570  16.700   0.760
 1526BOLB   C1A36605  19.490  16.310   1.150
 1526BOLB   C2A36606  19.170  16.360   1.370
 1526BOLB   C3A36607  18.890  16.640   1.520
 1526BOLB   C4A36608  18.640  16.970   1.850
 1526BOLB   C1B36609  19.580  16.920   1.110
 1526BOLB   C2B36610  19.830  17.030   1.450
 1526BOLB   C3B36611  19.910  16.880   1.770
 1526BOLB   C4B36612  19.770  16.720   2.040
 1526BOLB   NC236613  18.670  17.410   0.250
 1526BOLB   PO236614  18.290  17.710   0.120
 1526BOLB   GL336615  18.240  17.870   0.600
 1526BOLB   GL436616  18.310  17.560   0.640
 1526BOLB   C1C36617  18.170  17.970   0.970
 1526BOLB   C2C36618  18.200  17.800   1.350
 1526BOLB   C3C36619  18.100  17.640   1.710
 1526BOLB   C4C36620  18.300  17.260   2.000
 1526BOLB   C1D36621  18.620  17.680   0.850
 1526BOLB   C2D36622  18.630  18.100   1.120
 1526BOLB   C3D36623  18.390  18.510   1.110
 1526BOLB   C4D36624  18.400  18.860   1.390
 1527BOLB   NC136625  10.110  16.070   7.200
 1527BOLB   PO136626  10.130  16.530   7.390
 1527BOLB   GL136627   9.780  16.530   7.230
 1527BOLB   GL236628   9.840  16.420   6.950
 1527BOLB   C1A36629   9.340  16.550   6.920
 1527BOLB   C2A36630   9.200  16.500   6.420
 1527BOLB   C3A36631   8.930  16.150   6.330
 1527BOLB   C4A36632   8.510  16.000   6.310
 1527BOLB   C1B36633   9.640  16.290   6.530
 1527BOLB   C2B36634   9.410  16.240   6.050
 1527BOLB   C3B36635   8.950  16.390   5.920
 1527BOLB   C4B36636   8.730  16.690   5.700
 1527BOLB   NC236637   6.360  15.550   4.810
 1527BOLB   PO236638   6.680  15.700   4.840
 1527BOLB   GL336639   6.880  15.940   5.130
 1527BOLB   GL436640   7.010  16.050   5.470
 1527BOLB   C1C36641   7.340  16.250   5.160
 1527BOLB   C2C36642   7.470  16.180   5.630
 1527BOLB   C3C36643   7.910  16.190   5.810
 1527BOLB   C4C36644   8.320  16.200   5.930
 1527BOLB   C1D36645   7.080  16.410   5.760
 1527BOLB   C2D36646   7.260  16.730   6.050
 1527BOLB   C3D36647   7.650  16.570   6.230
 1527BOLB   C4D36648   7.880  16.880   6.400
 1528BOLB   NC136649  11.070  22.880  15.330
 1528BOLB   PO136650  11.080  23.340  15.450
 1528BOLB   GL136651  10.640  23.600  15.520
 1528BOLB   GL236652  10.560  23.680  15.790
 1528BOLB   C1A36653  10.360  24.020  15.370
 1528BOLB   C2A36654  10.090  24.060  15.120
 1528BOLB   C3A36655   9.740  24.270  15.130
 1528BOLB   C4A36656   9.620  24.640  14.980
 1528BOLB   C1B36657  10.280  23.980  16.060
 1528BOLB   C2B36658   9.860  24.190  16.110
 1528BOLB   C3B36659   9.470  24.230  16.330
 1528BOLB   C4B36660   9.180  24.270  16.810
 1528BOLB   NC236661   8.050  25.830  13.550
 1528BOLB   PO236662   7.740  25.520  13.810
 1528BOLB   GL336663   8.140  25.560  13.950
 1528BOLB   GL436664   8.230  25.330  13.810
 1528BOLB   C1C36665   8.340  25.420  14.280
 1528BOLB   C2C36666   8.570  25.280  14.570
 1528BOLB   C3C36667   8.840  25.060  14.800
 1528BOLB   C4C36668   9.280  24.880  14.800
 1528BOLB   C1D36669   8.490  25.080  13.950
 1528BOLB   C2D36670   8.820  24.760  13.790
 1528BOLB   C3D36671   8.970  24.410  13.730
 1528BOLB   C4D36672   8.890  24.060  13.570
 1529BOLB   NC136673  13.610  24.080  12.630
 1529BOLB   PO136674  13.660  24.530  12.550
 1529BOLB   GL136675  13.350  24.860  12.460
 1529BOLB   GL236676  13.320  25.140  12.720
 1529BOLB   C1A36677  13.190  25.030  12.120
 1529BOLB   C2A36678  13.120  25.400  11.910
 1529BOLB   C3A36679  13.080  25.610  11.520
 1529BOLB   C4A36680  12.740  25.620  11.210
 1529BOLB   C1B36681  13.210  25.460  12.500
 1529BOLB   C2B36682  13.220  25.840  12.210
 1529BOLB   C3B36683  13.300  26.220  12.040
 1529BOLB   C4B36684  13.500  26.620  11.820
 1529BOLB   NC236685  11.400  27.920  11.080
 1529BOLB   PO236686  11.590  27.570  11.160
 1529BOLB   GL336687  11.920  27.360  11.210
 1529BOLB   GL436688  12.120  27.670  11.390
 1529BOLB   C1C36689  12.220  27.050  11.240
 1529BOLB   C2C36690  12.390  26.640  11.210
 1529BOLB   C3C36691  12.400  26.400  11.150
 1529BOLB   C4C36692  12.460  25.910  11.110
 1529BOLB   C1D36693  12.120  27.360  11.670
 1529BOLB   C2D36694  12.390  27.060  11.890
 1529BOLB   C3D36695  12.710  26.820  12.110
 1529BOLB   C4D36696  13.020  26.650  12.080
 1530BOLB   NC136697  13.320  11.230   7.200
 1530BOLB   PO136698  12.940  10.960   7.080
 1530BOLB   GL136699  12.960  10.660   6.710
 1530BOLB   GL236700  13.060  10.410   6.800
 1530BOLB   C1A36701  13.120  10.400   6.230
 1530BOLB   C2A36702  13.060  10.020   5.890
 1530BOLB   C3A36703  12.780   9.680   5.780
 1530BOLB   C4A36704  12.680   9.490   5.460
 1530BOLB   C1B36705  12.680  10.150   6.780
 1530BOLB   C2B36706  12.400   9.980   7.030
 1530BOLB   C3B36707  11.950   9.610   7.100
 1530BOLB   C4B36708  11.750   9.240   7.250
 1530BOLB   NC236709  12.410   7.790   3.580
 1530BOLB   PO236710  12.490   7.940   4.080
 1530BOLB   GL336711  12.570   8.130   4.430
 1530BOLB   GL436712  12.700   8.410   4.430
 1530BOLB   C1C36713  12.830   8.080   4.830
 1530BOLB   C2C36714  13.090   8.380   4.920
 1530BOLB   C3C36715  13.150   8.730   5.020
 1530BOLB   C4C36716  12.900   9.150   5.120
 1530BOLB   C1D36717  12.740   8.740   4.770
 1530BOLB   C2D36718  12.680   8.620   5.290
 1530BOLB   C3D36719  12.490   8.430   5.680
 1530BOLB   C4D36720  12.480   7.970   5.760
 1531BOLB   NC136721  22.320  22.190  10.840
 1531BOLB   PO136722  22.480  22.550  10.960
 1531BOLB   GL136723  22.880  22.790  10.880
 1531BOLB   GL236724  22.740  23.050  10.700
 1531BOLB   C1A36725  23.160  22.930  10.580
 1531BOLB   C2A36726  23.480  23.260  10.630
 1531BOLB   C3A36727  23.840  23.420  10.560
 1531BOLB   C4A36728  24.020  23.660  10.340
 1531BOLB   C1B36729  23.090  23.350  10.900
 1531BOLB   C2B36730  23.190  23.700  10.740
 1531BOLB   C3B36731  23.530  23.830  10.710
 1531BOLB   C4B36732  23.770  24.050  10.420
 1531BOLB   NC236733  25.500  24.850   9.110
 1531BOLB   PO236734  25.320  25.140   9.310
 1531BOLB   GL336735  24.870  25.060   9.250
 1531BOLB   GL436736  24.680  25.280   9.040
 1531BOLB   C1C36737  24.820  24.640   9.240
 1531BOLB   C2C36738  24.600  24.270   9.370
 1531BOLB   C3C36739  24.500  23.960   9.680
 1531BOLB   C4C36740  24.260  23.900   9.970
 1531BOLB   C1D36741  24.420  24.850   8.900
 1531BOLB   C2D36742  24.460  24.390   8.890
 1531BOLB   C3D36743  24.280  23.970   8.740
 1531BOLB   C4D36744  24.190  23.740   8.420
 1532BOLB   NC136745  17.170  10.350  15.880
 1532BOLB   PO136746  17.340  10.090  16.150
 1532BOLB   GL136747  17.370   9.780  16.450
 1532BOLB   GL236748  17.640   9.750  16.610
 1532BOLB   C1A36749  17.380   9.270  16.510
 1532BOLB   C2A36750  17.480   9.050  16.790
 1532BOLB   C3A36751  17.470   8.800  17.150
 1532BOLB   C4A36752  17.540   8.380  17.380
 1532BOLB   C1B36753  17.500   9.520  16.930
 1532BOLB   C2B36754  17.440   9.300  17.190
 1532BOLB   C3B36755  17.580   9.480  17.690
 1532BOLB   C4B36756  17.850   9.670  17.940
 1532BOLB   NC236757  18.310   6.040  17.670
 1532BOLB   PO236758  18.150   5.840  17.250
 1532BOLB   GL336759  18.050   6.290  17.310
 1532BOLB   GL436760  18.340   6.430  17.270
 1532BOLB   C1C36761  17.860   6.690  17.300
 1532BOLB   C2C36762  17.930   7.190  17.470
 1532BOLB   C3C36763  17.950   7.590  17.440
 1532BOLB   C4C36764  17.660   7.930  17.530
 1532BOLB   C1D36765  18.080   6.500  16.880
 1532BOLB   C2D36766  17.840   6.600  16.480
 1532BOLB   C3D36767  17.690   6.950  16.330
 1532BOLB   C4D36768  17.400   7.250  16.460
 1533BOLB   NC136769   8.220  16.000  10.180
 1533BOLB   PO136770   7.910  15.800  10.350
 1533BOLB   GL136771   7.450  15.790  10.200
 1533BOLB   GL236772   7.320  15.580  10.410
 1533BOLB   C1A36773   7.130  15.920   9.850
 1533BOLB   C2A36774   6.920  15.940   9.420
 1533BOLB   C3A36775   6.790  15.930   9.050
 1533BOLB   C4A36776   6.540  16.030   8.800
 1533BOLB   C1B36777   6.870  15.480  10.460
 1533BOLB   C2B36778   6.550  15.240  10.300
 1533BOLB   C3B36779   6.300  14.840  10.510
 1533BOLB   C4B36780   6.020  14.700  10.760
 1533BOLB   NC236781   5.190  15.570   6.610
 1533BOLB   PO236782   5.310  15.620   7.070
 1533BOLB   GL336783   5.540  15.740   7.450
 1533BOLB   GL436784   5.720  15.880   7.200
 1533BOLB   C1C36785   5.550  16.190   7.570
 1533BOLB   C2C36786   5.900  16.300   7.810
 1533BOLB   C3C36787   6.170  16.390   8.090
 1533BOLB   C4C36788   6.260  16.250   8.640
 1533BOLB   C1D36789   6.050  15.970   6.890
 1533BOLB   C2D36790   6.420  15.860   6.740
 1533BOLB   C3D36791   6.790  15.930   6.770
 1533BOLB   C4D36792   7.130  15.890   7.030
 1534BOLB   NC136793  16.300  10.120   7.660
 1534BOLB   PO136794  16.310   9.920   7.260
 1534BOLB   GL136795  16.210   9.470   7.090
 1534BOLB   GL236796  16.070   9.480   6.790
 1534BOLB   C1A36797  16.130   9.080   7.010
 1534BOLB   C2A36798  16.040   8.610   6.860
 1534BOLB   C3A36799  16.110   8.240   6.940
 1534BOLB   C4A36800  16.100   7.810   7.040
 1534BOLB   C1B36801  15.940   9.320   6.340
 1534BOLB   C2B36802  15.910   8.990   6.110
 1534BOLB   C3B36803  16.060   8.550   5.930
 1534BOLB   C4B36804  16.380   8.280   6.040
 1534BOLB   NC236805  14.850   5.930   5.750
 1534BOLB   PO236806  15.070   5.970   6.120
 1534BOLB   GL336807  15.210   6.200   6.440
 1534BOLB   GL436808  15.530   6.230   6.590
 1534BOLB   C1C36809  15.280   6.700   6.590
 1534BOLB   C2C36810  15.470   7.070   6.330
 1534BOLB   C3C36811  15.810   7.300   6.410
 1534BOLB   C4C36812  15.940   7.590   6.750
 1534BOLB   C1D36813  15.350   6.340   7.030
 1534BOLB   C2D36814  14.940   6.570   7.260
 1534BOLB   C3D36815  14.670   6.750   7.490
 1534BOLB   C4D36816  14.240   6.690   7.420
 1535BOLB   NC136817  20.970  14.370   6.200
 1535BOLB   PO136818  21.050  13.780   6.290
 1535BOLB   GL136819  21.210  13.840   5.930
 1535BOLB   GL236820  21.040  13.600   5.620
 1535BOLB   C1A36821  21.650  13.930   5.720
 1535BOLB   C2A36822  22.050  13.740   5.750
 1535BOLB   C3A36823  22.490  13.760   5.810
 1535BOLB   C4A36824  22.820  13.840   5.430
 1535BOLB   C1B36825  21.220  13.350   5.160
 1535BOLB   C2B36826  21.080  13.180   4.740
 1535BOLB   C3B36827  21.010  13.040   4.300
 1535BOLB   C4B36828  21.280  13.140   3.930
 1535BOLB   NC236829  24.770  13.180   4.600
 1535BOLB   PO236830  24.600  13.070   4.210
 1535BOLB   GL336831  24.170  13.020   4.280
 1535BOLB   GL436832  24.040  12.680   4.410
 1535BOLB   C1C36833  23.830  13.210   4.430
 1535BOLB   C2C36834  23.630  13.500   4.750
 1535BOLB   C3C36835  23.360  13.730   4.870
 1535BOLB   C4C36836  23.060  13.850   5.170
 1535BOLB   C1D36837  23.810  12.850   4.700
 1535BOLB   C2D36838  23.490  13.020   4.910
 1535BOLB   C3D36839  23.220  13.270   5.060
 1535BOLB   C4D36840  22.900  13.330   5.310
 1536BOLB   NC136841  16.650   9.700  10.290
 1536BOLB   PO136842  16.820   9.420  10.670
 1536BOLB   GL136843  16.870   8.960  10.570
 1536BOLB   GL236844  16.570   8.690  10.590
 1536BOLB   C1A36845  17.070   8.420  10.590
 1536BOLB   C2A36846  17.050   7.910  10.420
 1536BOLB   C3A36847  17.330   7.580  10.480
 1536BOLB   C4A36848  17.760   7.330  10.510
 1536BOLB   C1B36849  16.630   8.230  10.620
 1536BOLB   C2B36850  16.520   7.830  10.480
 1536BOLB   C3B36851  16.440   7.340  10.480
 1536BOLB   C4B36852  16.520   7.010  10.310
 1536BOLB   NC236853  18.830   5.490   8.270
 1536BOLB   PO236854  18.900   5.520   8.720
 1536BOLB   GL336855  18.700   5.780   9.080
 1536BOLB   GL436856  18.620   6.100   8.840
 1536BOLB   C1C36857  18.700   6.100   9.480
 1536BOLB   C2C36858  18.430   6.500   9.640
 1536BOLB   C3C36859  18.300   6.700  10.000
 1536BOLB   C4C36860  18.130   7.040  10.330
 1536BOLB   C1D36861  18.570   6.460   8.540
 1536BOLB   C2D36862  18.450   6.880   8.740
 1536BOLB   C3D36863  18.120   7.070   8.490
 1536BOLB   C4D36864  17.700   7.060   8.580
 1537BOLB   NC136865  11.280   4.270  19.400
 1537BOLB   PO136866  11.520   4.350  18.980
 1537BOLB   GL136867  11.240   4.720  19.210
 1537BOLB   GL236868  11.290   5.020  19.080
 1537BOLB   C1A36869  11.300   5.100  19.570
 1537BOLB   C2A36870  11.650   5.250  19.760
 1537BOLB   C3A36871  11.830   5.560  19.980
 1537BOLB   C4A36872  12.140   5.870  19.950
 1537BOLB   C1B36873  11.640   5.420  19.220
 1537BOLB   C2B36874  11.630   5.750  19.120
 1537BOLB   C3B36875  11.500   6.150  19.190
 1537BOLB   C4B36876  11.520   6.510  19.370
 1537BOLB   NC236877  14.080   5.030  19.180
 1537BOLB   PO236878  14.430   5.280  19.470
 1537BOLB   GL336879  13.980   5.370  19.620
 1537BOLB   GL436880  13.790   5.400  19.240
 1537BOLB   C1C36881  13.680   5.400  19.780
 1537BOLB   C2C36882  13.350   5.460  20.070
 1537BOLB   C3C36883  12.920   5.560  19.960
 1537BOLB   C4C36884  12.550   5.770  19.930
 1537BOLB   C1D36885  14.070   5.640  18.900
 1537BOLB   C2D36886  14.330   6.060  18.970
 1537BOLB   C3D36887  14.450   6.440  19.230
 1537BOLB   C4D36888  14.450   6.430  19.670
 1538BOLB   NC136889  15.420   9.300   8.580
 1538BOLB   PO136890  15.130   9.280   8.960
 1538BOLB   GL136891  14.940   8.850   9.060
 1538BOLB   GL236892  14.580   8.790   8.900
 1538BOLB   C1A36893  14.850   8.440   9.130
 1538BOLB   C2A36894  14.730   8.050   8.970
 1538BOLB   C3A36895  14.610   7.840   8.650
 1538BOLB   C4A36896  14.210   7.590   8.500
 1538BOLB   C1B36897  14.700   8.490   8.550
 1538BOLB   C2B36898  14.470   8.190   8.340
 1538BOLB   C3B36899  14.080   8.110   7.910
 1538BOLB   C4B36900  13.830   8.240   7.580
 1538BOLB   NC236901  14.530   5.240   7.240
 1538BOLB   PO236902  14.270   5.610   7.340
 1538BOLB   GL336903  14.050   6.000   7.380
 1538BOLB   GL436904  14.270   6.170   7.100
 1538BOLB   C1C36905  13.900   6.350   7.580
 1538BOLB   C2C36906  13.880   6.730   7.770
 1538BOLB   C3C36907  14.020   7.030   7.860
 1538BOLB   C4C36908  13.980   7.200   8.290
 1538BOLB   C1D36909  14.470   6.440   6.960
 1538BOLB   C2D36910  14.800   6.740   6.830
 1538BOLB   C3D36911  15.040   7.140   6.880
 1538BOLB   C4D36912  15.180   7.540   7.020
 1539BOLB   NC136913  10.790  22.680  12.950
 1539BOLB   PO136914  10.570  22.670  12.550
 1539BOLB   GL136915  10.240  23.030  12.470
 1539BOLB   GL236916  10.020  22.830  12.280
 1539BOLB   C1A36917  10.190  23.480  12.340
 1539BOLB   C2A36918  10.060  23.850  12.090
 1539BOLB   C3A36919   9.820  24.160  12.040
 1539BOLB   C4A36920   9.530  24.210  11.820
 1539BOLB   C1B36921   9.730  23.100  12.150
 1539BOLB   C2B36922   9.650  23.550  12.190
 1539BOLB   C3B36923   9.440  23.900  12.240
 1539BOLB   C4B36924   9.350  24.170  12.470
 1539BOLB   NC236925   7.150  25.300  11.590
 1539BOLB   PO236926   7.590  25.290  11.480
 1539BOLB   GL336927   7.890  25.050  11.450
 1539BOLB   GL436928   8.180  25.220  11.560
 1539BOLB   C1C36929   8.270  24.930  11.210
 1539BOLB   C2C36930   8.680  24.840  11.280
 1539BOLB   C3C36931   9.130  24.870  11.380
 1539BOLB   C4C36932   9.250  24.480  11.640
 1539BOLB   C1D36933   8.270  24.760  11.690
 1539BOLB   C2D36934   8.460  24.490  11.540
 1539BOLB   C3D36935   8.810  24.250  11.670
 1539BOLB   C4D36936   8.880  23.870  11.870
 1540BOLB   NC136937  17.810  22.560   7.180
 1540BOLB   PO136938  18.190  22.390   7.350
 1540BOLB   GL136939  18.210  22.580   6.870
 1540BOLB   GL236940  17.870  22.890   6.850
 1540BOLB   C1A36941  18.370  22.800   6.570
 1540BOLB   C2A36942  18.290  23.050   6.250
 1540BOLB   C3A36943  18.270  23.350   5.930
 1540BOLB   C4A36944  18.600  23.670   5.700
 1540BOLB   C1B36945  17.800  23.040   6.460
 1540BOLB   C2B36946  17.750  23.090   6.060
 1540BOLB   C3B36947  17.750  23.370   5.730
 1540BOLB   C4B36948  17.750  23.660   5.350
 1540BOLB   NC236949  19.260  25.660   4.510
 1540BOLB   PO236950  19.260  25.150   4.320
 1540BOLB   GL336951  19.140  24.860   4.690
 1540BOLB   GL436952  19.270  24.510   4.640
 1540BOLB   C1C36953  19.120  24.940   5.120
 1540BOLB   C2C36954  19.010  24.710   5.400
 1540BOLB   C3C36955  18.920  24.350   5.560
 1540BOLB   C4C36956  18.780  24.020   5.790
 1540BOLB   C1D36957  19.560  24.180   4.830
 1540BOLB   C2D36958  19.620  23.940   5.230
 1540BOLB   C3D36959  19.580  23.610   5.520
 1540BOLB   C4D36960  19.470  23.410   5.910
 1541BOLB   NC136961  15.470  12.040   5.320
 1541BOLB   PO136962  15.730  11.690   5.530
 1541BOLB   GL136963  15.820  11.530   5.170
 1541BOLB   GL236964  15.740  11.830   4.950
 1541BOLB   C1A36965  15.590  11.310   4.880
 1541BOLB   C2A36966  15.350  11.220   4.570
 1541BOLB   C3A36967  15.150  10.900   4.260
 1541BOLB   C4A36968  15.280  11.030   3.820
 1541BOLB   C1B36969  15.750  11.580   4.500
 1541BOLB   C2B36970  15.630  11.270   4.120
 1541BOLB   C3B36971  15.750  10.850   3.870
 1541BOLB   C4B36972  15.690  10.660   3.540
 1541BOLB   NC236973  15.190   9.620   1.710
 1541BOLB   PO236974  15.360   9.530   2.140
 1541BOLB   GL336975  15.390   9.660   2.510
 1541BOLB   GL436976  15.090   9.610   2.680
 1541BOLB   C1C36977  15.720  10.040   2.730
 1541BOLB   C2C36978  15.600  10.370   2.990
 1541BOLB   C3C36979  15.350  10.700   3.150
 1541BOLB   C4C36980  15.390  11.020   3.410
 1541BOLB   C1D36981  15.290   9.980   3.010
 1541BOLB   C2D36982  15.620   9.890   3.260
 1541BOLB   C3D36983  15.840  10.150   3.520
 1541BOLB   C4D36984  16.130  10.340   3.630
 1542BOLB   NC136985  14.370  10.020   8.740
 1542BOLB   PO136986  14.390   9.670   8.540
 1542BOLB   GL136987  14.390   9.310   8.360
 1542BOLB   GL236988  14.110   9.360   8.160
 1542BOLB   C1A36989  14.340   8.850   8.080
 1542BOLB   C2A36990  13.960   8.650   8.010
 1542BOLB   C3A36991  13.600   8.280   8.100
 1542BOLB   C4A36992  13.610   7.850   7.850
 1542BOLB   C1B36993  13.940   9.140   7.830
 1542BOLB   C2B36994  14.180   8.690   7.570
 1542BOLB   C3B36995  14.340   8.320   7.330
 1542BOLB   C4B36996  14.410   7.990   7.020
 1542BOLB   NC236997  12.140   5.860   7.980
 1542BOLB   PO236998  11.960   5.940   8.350
 1542BOLB   GL336999  12.230   6.300   8.380
 1542BOLB   GL437000  12.450   6.210   8.420
 1542BOLB   C1C37001  12.450   6.760   8.230
 1542BOLB   C2C37002  12.600   7.160   8.140
 1542BOLB   C3C37003  12.880   7.490   8.060
 1542BOLB   C4C37004  13.230   7.520   7.830
 1542BOLB   C1D37005  12.740   6.390   8.570
 1542BOLB   C2D37006  13.190   6.550   8.790
 1542BOLB   C3D37007  13.100   6.940   8.980
 1542BOLB   C4D37008  12.910   7.300   9.110
 1543BOLB   NC137009  20.550  11.810   7.720
 1543BOLB   PO137010  20.810  11.710   7.400
 1543BOLB   GL137011  21.200  11.520   7.190
 1543BOLB   GL237012  21.070  11.230   7.170
 1543BOLB   C1A37013  21.560  11.280   7.090
 1543BOLB   C2A37014  22.050  11.230   6.900
 1543BOLB   C3A37015  22.430  11.040   6.860
 1543BOLB   C4A37016  22.620  10.720   6.570
 1543BOLB   C1B37017  21.210  10.830   6.980
 1543BOLB   C2B37018  21.450  10.440   6.750
 1543BOLB   C3B37019  21.480   9.950   6.740
 1543BOLB   C4B37020  21.350   9.660   6.400
 1543BOLB   NC237021  24.950  10.250   6.420
 1543BOLB   PO237022  24.780  10.100   5.970
 1543BOLB   GL337023  24.530  10.510   6.210
 1543BOLB   GL437024  24.470  10.400   6.560
 1543BOLB   C1C37025  24.100  10.580   6.300
 1543BOLB   C2C37026  23.760  10.790   6.080
 1543BOLB   C3C37027  23.300  10.860   6.120
 1543BOLB   C4C37028  22.850  10.890   6.200
 1543BOLB   C1D37029  24.270  10.780   6.680
 1543BOLB   C2D37030  24.200  11.100   6.880
 1543BOLB   C3D37031  24.280  11.480   6.780
 1543BOLB   C4D37032  24.230  11.770   6.590
 1544BOLB   NC137033  16.750  10.760  16.680
 1544BOLB   PO137034  16.440  10.440  17.020
 1544BOLB   GL137035  16.470  10.160  17.380
 1544BOLB   GL237036  16.230  10.360  17.660
 1544BOLB   C1A37037  16.480   9.890  17.800
 1544BOLB   C2A37038  16.730   9.680  17.950
 1544BOLB   C3A37039  17.140   9.540  17.960
 1544BOLB   C4A37040  17.190   9.050  18.000
 1544BOLB   C1B37041  16.150  10.200  17.990
 1544BOLB   C2B37042  16.160   9.870  18.140
 1544BOLB   C3B37043  16.330   9.500  18.250
 1544BOLB   C4B37044  16.200   9.020  18.260
 1544BOLB   NC237045  17.420   7.080  19.400
 1544BOLB   PO237046  17.820   7.250  19.480
 1544BOLB   GL337047  17.690   7.520  19.250
 1544BOLB   GL437048  17.430   7.540  19.250
 1544BOLB   C1C37049  17.700   7.640  18.820
 1544BOLB   C2C37050  17.430   7.970  18.540
 1544BOLB   C3C37051  17.240   8.200  18.510
 1544BOLB   C4C37052  17.180   8.590  18.300
 1544BOLB   C1D37053  17.040   7.580  19.260
 1544BOLB   C2D37054  16.730   7.870  19.340
 1544BOLB   C3D37055  16.460   8.160  19.070
 1544BOLB   C4D37056  16.270   8.510  18.930
 1545BOLB   NC137057  12.030  19.480   6.100
 1545BOLB   PO137058  12.170  19.050   6.080
 1545BOLB   GL137059  11.810  19.130   5.830
 1545BOLB   GL237060  11.870  19.310   5.630
 1545BOLB   C1A37061  11.390  19.090   5.680
 1545BOLB   C2A37062  11.020  19.190   5.400
 1545BOLB   C3A37063  10.590  19.120   5.150
 1545BOLB   C4A37064  10.190  18.960   5.170
 1545BOLB   C1B37065  11.550  19.540   5.570
 1545BOLB   C2B37066  11.550  19.860   5.250
 1545BOLB   C3B37067  11.700  20.080   5.000
 1545BOLB   C4B37068  11.910  20.330   4.710
 1545BOLB   NC237069   8.250  19.120   4.090
 1545BOLB   PO237070   8.500  19.380   3.780
 1545BOLB   GL337071   8.730  19.220   4.100
 1545BOLB   GL437072   9.020  19.110   4.070
 1545BOLB   C1C37073   8.780  19.220   4.610
 1545BOLB   C2C37074   9.120  19.080   4.860
 1545BOLB   C3C37075   9.360  18.840   4.930
 1545BOLB   C4C37076   9.830  18.820   4.970
 1545BOLB   C1D37077   9.300  18.770   3.940
 1545BOLB   C2D37078   9.730  18.870   3.900
 1545BOLB   C3D37079  10.090  18.630   3.850
 1545BOLB   C4D37080  10.430  18.570   4.120
 1546BOLB   NC137081  19.800   5.070  12.470
 1546BOLB   PO137082  20.130   5.250  12.170
 1546BOLB   GL137083  20.010   5.620  12.330
 1546BOLB   GL237084  19.980   5.810  12.680
 1546BOLB   C1A37085  19.540   5.870  12.220
 1546BOLB   C2A37086  19.570   6.330  12.180
 1546BOLB   C3A37087  19.260   6.650  12.400
 1546BOLB   C4A37088  18.920   6.850  12.230
 1546BOLB   C1B37089  19.680   6.160  12.620
 1546BOLB   C2B37090  19.270   6.260  12.650
 1546BOLB   C3B37091  18.900   6.650  12.780
 1546BOLB   C4B37092  18.500   6.880  12.730
 1546BOLB   NC237093  19.180   5.030  11.730
 1546BOLB   PO237094  19.360   5.250  11.420
 1546BOLB   GL337095  19.120   5.540  11.370
 1546BOLB   GL437096  19.100   5.650  11.140
 1546BOLB   C1C37097  18.800   5.750  11.510
 1546BOLB   C2C37098  18.500   6.080  11.620
 1546BOLB   C3C37099  18.480   6.400  11.880
 1546BOLB   C4C37100  18.660   6.750  11.870
 1546BOLB   C1D37101  18.990   6.110  11.080
 1546BOLB   C2D37102  19.260   6.500  11.260
 1546BOLB   C3D37103  19.230   6.990  11.200
 1546BOLB   C4D37104  19.000   7.030  10.810
 1547BOLB   NC137105  10.040  14.100   8.060
 1547BOLB   PO137106   9.770  13.820   8.230
 1547BOLB   GL137107   9.290  13.830   8.220
 1547BOLB   GL237108   9.300  13.670   8.070
 1547BOLB   C1A37109   8.840  14.040   8.300
 1547BOLB   C2A37110   8.530  13.820   8.200
 1547BOLB   C3A37111   8.080  13.680   8.470
 1547BOLB   C4A37112   7.620  13.760   8.520
 1547BOLB   C1B37113   8.930  13.690   7.800
 1547BOLB   C2B37114   8.530  13.790   7.710
 1547BOLB   C3B37115   8.180  13.560   7.910
 1547BOLB   C4B37116   7.780  13.590   8.090
 1547BOLB   NC237117   5.610  13.670   6.790
 1547BOLB   PO237118   5.610  13.340   7.190
 1547BOLB   GL337119   6.110  13.410   7.100
 1547BOLB   GL437120   6.070  13.690   6.920
 1547BOLB   C1C37121   6.500  13.350   7.310
 1547BOLB   C2C37122   6.800  13.560   7.420
 1547BOLB   C3C37123   7.170  13.760   7.710
 1547BOLB   C4C37124   7.300  13.630   8.140
 1547BOLB   C1D37125   6.330  13.820   7.350
 1547BOLB   C2D37126   6.700  14.120   7.390
 1547BOLB   C3D37127   7.030  14.210   7.670
 1547BOLB   C4D37128   7.440  14.260   7.850
 1548BOLB   NC137129   8.050  18.110  12.250
 1548BOLB   PO137130   8.000  18.470  12.350
 1548BOLB   GL137131   7.610  18.520  12.290
 1548BOLB   GL237132   7.520  18.840  12.430
 1548BOLB   C1A37133   7.170  18.470  12.390
 1548BOLB   C2A37134   6.820  18.480  12.200
 1548BOLB   C3A37135   6.390  18.640  12.180
 1548BOLB   C4A37136   6.060  18.910  12.030
 1548BOLB   C1B37137   7.110  18.990  12.580
 1548BOLB   C2B37138   6.690  19.320  12.490
 1548BOLB   C3B37139   6.380  19.350  12.200
 1548BOLB   C4B37140   6.100  19.690  12.200
 1548BOLB   NC237141   4.190  19.530  10.600
 1548BOLB   PO237142   4.460  19.890  10.590
 1548BOLB   GL337143   4.670  19.680  10.820
 1548BOLB   GL437144   4.480  19.680  11.090
 1548BOLB   C1C37145   4.840  19.300  11.090
 1548BOLB   C2C37146   5.130  19.160  11.350
 1548BOLB   C3C37147   5.550  19.010  11.460
 1548BOLB   C4C37148   5.930  18.980  11.640
 1548BOLB   C1D37149   4.430  19.390  11.350
 1548BOLB   C2D37150   4.510  19.240  11.730
 1548BOLB   C3D37151   4.860  19.310  12.120
 1548BOLB   C4D37152   5.270  19.300  12.090
 1549BOLB   NC137153  12.990   9.530  14.160
 1549BOLB   PO137154  13.370   9.450  14.270
 1549BOLB   GL137155  13.200   9.030  14.400
 1549BOLB   GL237156  13.440   8.780  14.340
 1549BOLB   C1A37157  12.860   8.700  14.520
 1549BOLB   C2A37158  12.790   8.270  14.680
 1549BOLB   C3A37159  12.790   7.920  14.830
 1549BOLB   C4A37160  12.870   7.460  15.040
 1549BOLB   C1B37161  13.270   8.470  14.650
 1549BOLB   C2B37162  13.190   8.180  15.030
 1549BOLB   C3B37163  12.920   7.820  15.370
 1549BOLB   C4B37164  13.050   7.500  15.660
 1549BOLB   NC237165  13.210   4.960  16.000
 1549BOLB   PO237166  12.780   5.220  15.850
 1549BOLB   GL337167  13.030   5.540  15.980
 1549BOLB   GL437168  13.180   5.570  16.230
 1549BOLB   C1C37169  13.070   5.940  15.820
 1549BOLB   C2C37170  12.940   6.300  15.630
 1549BOLB   C3C37171  13.060   6.610  15.440
 1549BOLB   C4C37172  12.970   7.040  15.280
 1549BOLB   C1D37173  12.890   5.770  16.550
 1549BOLB   C2D37174  12.450   5.970  16.570
 1549BOLB   C3D37175  12.230   6.250  16.210
 1549BOLB   C4D37176  12.430   6.440  15.910
 1550BOLB   NC137177  13.590   9.240  14.700
 1550BOLB   PO137178  13.570   9.610  14.940
 1550BOLB   GL137179  13.640   9.300  15.210
 1550BOLB   GL237180  13.510   9.440  15.540
 1550BOLB   C1A37181  13.550   8.920  15.440
 1550BOLB   C2A37182  13.210   8.600  15.470
 1550BOLB   C3A37183  13.010   8.250  15.670
 1550BOLB   C4A37184  13.220   7.930  15.900
 1550BOLB   C1B37185  13.090   9.170  15.370
 1550BOLB   C2B37186  12.680   9.240  15.150
 1550BOLB   C3B37187  12.510   8.960  14.920
 1550BOLB   C4B37188  12.430   8.660  14.700
 1550BOLB   NC237189  14.040   5.220  15.710
 1550BOLB   PO237190  14.030   5.650  15.980
 1550BOLB   GL337191  13.910   6.060  16.040
 1550BOLB   GL437192  13.880   6.070  15.760
 1550BOLB   C1C37193  13.660   6.480  16.060
 1550BOLB   C2C37194  13.600   6.810  16.120
 1550BOLB   C3C37195  13.500   7.240  16.110
 1550BOLB   C4C37196  13.320   7.590  16.160
 1550BOLB   C1D37197  14.050   6.520  15.730
 1550BOLB   C2D37198  14.310   6.940  15.510
 1550BOLB   C3D37199  14.600   7.170  15.620
 1550BOLB   C4D37200  14.760   7.500  15.820
 1551BOLB   NC137201   9.350  15.000  26.260
 1551BOLB   PO137202   9.790  14.900  26.450
 1551BOLB   GL137203   9.960  15.090  26.130
 1551BOLB   GL237204  10.080  15.420  26.300
 1551BOLB   C1A37205  10.020  15.390  25.760
 1551BOLB   C2A37206   9.880  15.550  25.400
 1551BOLB   C3A37207   9.590  15.410  25.230
 1551BOLB   C4A37208   9.170  15.530  25.030
 1551BOLB   C1B37209  10.320  15.700  26.030
 1551BOLB   C2B37210  10.530  15.600  25.670
 1551BOLB   C3B37211  10.380  15.460  25.270
 1551BOLB   C4B37212  10.580  15.410  24.850
 1551BOLB   NC237213   7.230  15.520  25.240
 1551BOLB   PO237214   7.350  15.560  25.730
 1551BOLB   GL337215   7.690  15.410  25.410
 1551BOLB   GL437216   8.050  15.330  25.420
 1551BOLB   C1C37217   7.950  15.410  24.980
 1551BOLB   C2C37218   8.180  15.450  24.700
 1551BOLB   C3C37219   8.560  15.470  24.750
 1551BOLB   C4C37220   8.780  15.420  25.030
 1551BOLB   C1D37221   8.360  15.300  25.230
 1551BOLB   C2D37222   8.660  14.980  25.240
 1551BOLB   C3D37223   8.860  14.960  24.920
 1551BOLB   C4D37224   8.960  15.100  24.500
 1552BOLB   NC137225  18.830  24.670  10.600
 1552BOLB   PO137226  19.140  24.320  10.580
 1552BOLB   GL137227  19.350  24.650  10.420
 1552BOLB   GL237228  19.230  24.960  10.610
 1552BOLB   C1A37229  19.410  24.940  10.180
 1552BOLB   C2A37230  19.360  25.380  10.050
 1552BOLB   C3A37231  19.350  25.530   9.730
 1552BOLB   C4A37232  19.320  25.980   9.470
 1552BOLB   C1B37233  19.060  25.280  10.430
 1552BOLB   C2B37234  19.080  25.730  10.200
 1552BOLB   C3B37235  18.990  26.010   9.870
 1552BOLB   C4B37236  18.690  26.100   9.630
 1552BOLB   NC237237  19.070  28.200   7.990
 1552BOLB   PO237238  19.190  28.050   8.330
 1552BOLB   GL337239  19.040  27.780   8.490
 1552BOLB   GL437240  19.080  27.450   8.280
 1552BOLB   C1C37241  19.080  27.480   8.870
 1552BOLB   C2C37242  19.450  27.220   9.070
 1552BOLB   C3C37243  19.470  26.800   8.990
 1552BOLB   C4C37244  19.430  26.390   9.170
 1552BOLB   C1D37245  18.640  27.260   8.620
 1552BOLB   C2D37246  18.590  27.030   8.970
 1552BOLB   C3D37247  18.560  26.520   9.060
 1552BOLB   C4D37248  18.880  26.390   9.190
 1553BOLB   NC137249   8.650  18.260  11.740
 1553BOLB   PO137250   8.150  18.350  11.790
 1553BOLB   GL137251   7.600  18.530  11.710
 1553BOLB   GL237252   7.500  18.680  11.520
 1553BOLB   C1A37253   7.200  18.370  11.780
 1553BOLB   C2A37254   6.800  18.210  11.690
 1553BOLB   C3A37255   6.390  18.190  11.500
 1553BOLB   C4A37256   5.980  18.090  11.440
 1553BOLB   C1B37257   7.080  18.820  11.500
 1553BOLB   C2B37258   6.740  18.740  11.700
 1553BOLB   C3B37259   6.330  18.700  11.510
 1553BOLB   C4B37260   6.020  18.610  11.300
 1553BOLB   NC237261   3.910  18.250  10.150
 1553BOLB   PO237262   3.810  17.770  10.160
 1553BOLB   GL337263   4.300  17.860  10.230
 1553BOLB   GL437264   4.470  17.740   9.970
 1553BOLB   C1C37265   4.650  17.780  10.470
 1553BOLB   C2C37266   5.040  17.740  10.860
 1553BOLB   C3C37267   5.540  17.740  10.990
 1553BOLB   C4C37268   5.580  17.930  11.340
 1553BOLB   C1D37269   4.860  17.500  10.030
 1553BOLB   C2D37270   5.370  17.660   9.920
 1553BOLB   C3D37271   5.820  17.670   9.830
 1553BOLB   C4D37272   6.190  17.740   9.720
 1554BOLB   NC137273  11.130  22.930  11.160
 1554BOLB   PO137274  11.440  23.190  10.800
 1554BOLB   GL137275  11.230  23.630  10.630
 1554BOLB   GL237276  11.050  23.660  10.350
 1554BOLB   C1A37277  11.350  24.030  10.460
 1554BOLB   C2A37278  11.330  24.430  10.230
 1554BOLB   C3A37279  11.130  24.610   9.930
 1554BOLB   C4A37280  10.880  24.650   9.590
 1554BOLB   C1B37281  10.820  23.660   9.980
 1554BOLB   C2B37282  10.450  23.920   9.840
 1554BOLB   C3B37283  10.220  24.190   9.590
 1554BOLB   C4B37284   9.850  24.400   9.680
 1554BOLB   NC237285  10.610  27.270   9.170
 1554BOLB   PO237286  10.270  26.960   9.230
 1554BOLB   GL337287  10.250  26.740   9.640
 1554BOLB   GL437288   9.950  26.640   9.740
 1554BOLB   C1C37289  10.420  26.260   9.740
 1554BOLB   C2C37290  10.560  25.990   9.410
 1554BOLB   C3C37291  10.660  25.500   9.340
 1554BOLB   C4C37292  10.650  24.980   9.380
 1554BOLB   C1D37293  10.070  26.410  10.170
 1554BOLB   C2D37294  10.520  26.220  10.230
 1554BOLB   C3D37295  10.780  26.000  10.440
 1554BOLB   C4D37296  11.110  25.690  10.590
 1555BOLB   NC137297  19.640  12.160   6.120
 1555BOLB   PO137298  19.280  12.220   5.830
 1555BOLB   GL137299  19.270  12.010   5.480
 1555BOLB   GL237300  19.140  11.670   5.550
 1555BOLB   C1A37301  19.490  11.770   5.160
 1555BOLB   C2A37302  19.850  11.590   5.070
 1555BOLB   C3A37303  20.120  11.460   4.860
 1555BOLB   C4A37304  20.380  11.210   4.710
 1555BOLB   C1B37305  19.010  11.530   5.160
 1555BOLB   C2B37306  18.850  11.520   4.690
 1555BOLB   C3B37307  19.070  11.620   4.300
 1555BOLB   C4B37308  19.310  12.110   4.320
 1555BOLB   NC237309  20.160  10.360   1.900
 1555BOLB   PO237310  20.040  10.610   2.260
 1555BOLB   GL337311  20.010  10.900   2.710
 1555BOLB   GL437312  20.240  10.710   3.060
 1555BOLB   C1C37313  20.120  11.200   2.920
 1555BOLB   C2C37314  20.220  11.180   3.410
 1555BOLB   C3C37315  20.350  11.340   3.880
 1555BOLB   C4C37316  20.370  11.210   4.260
 1555BOLB   C1D37317  19.870  10.870   3.220
 1555BOLB   C2D37318  19.700  11.030   3.430
 1555BOLB   C3D37319  19.720  11.330   3.720
 1555BOLB   C4D37320  19.380  11.260   4.140
 1556BOLB   NC137321  21.670  20.680   7.520
 1556BOLB   PO137322  21.640  20.580   7.070
 1556BOLB   GL137323  21.660  20.650   6.700
 1556BOLB   GL237324  21.870  20.900   6.810
 1556BOLB   C1A37325  21.500  20.750   6.270
 1556BOLB   C2A37326  21.530  20.820   5.860
 1556BOLB   C3A37327  21.820  21.130   5.690
 1556BOLB   C4A37328  22.100  21.280   5.380
 1556BOLB   C1B37329  21.930  21.160   6.480
 1556BOLB   C2B37330  22.090  21.260   6.150
 1556BOLB   C3B37331  22.150  21.580   5.850
 1556BOLB   C4B37332  22.020  21.800   5.460
 1556BOLB   NC237333  22.770  22.400   3.340
 1556BOLB   PO237334  22.790  21.940   3.230
 1556BOLB   GL337335  22.460  22.020   3.520
 1556BOLB   GL437336  22.620  22.170   3.810
 1556BOLB   C1C37337  22.460  21.670   3.990
 1556BOLB   C2C37338  22.590  21.720   4.320
 1556BOLB   C3C37339  22.590  21.440   4.630
 1556BOLB   C4C37340  22.380  21.400   4.990
 1556BOLB   C1D37341  22.540  22.250   4.290
 1556BOLB   C2D37342  22.550  22.000   4.700
 1556BOLB   C3D37343  22.150  21.940   4.950
 1556BOLB   C4D37344  21.760  22.010   5.130
 1557BOLB   NC137345  10.990  13.340   7.150
 1557BOLB   PO137346  10.740  13.610   6.960
 1557BOLB   GL137347  10.300  13.410   6.840
 1557BOLB   GL237348   9.990  13.700   6.880
 1557BOLB   C1A37349   9.990  13.290   6.510
 1557BOLB   C2A37350   9.720  13.230   6.220
 1557BOLB   C3A37351   9.350  13.150   5.920
 1557BOLB   C4A37352   8.960  13.520   5.860
 1557BOLB   C1B37353   9.660  13.650   6.550
 1557BOLB   C2B37354   9.310  13.580   6.360
 1557BOLB   C3B37355   8.890  13.320   6.350
 1557BOLB   C4B37356   8.860  13.020   6.000
 1557BOLB   NC237357   7.400  12.300   5.160
 1557BOLB   PO237358   7.260  12.630   5.130
 1557BOLB   GL337359   7.590  12.770   5.370
 1557BOLB   GL437360   7.710  12.430   5.600
 1557BOLB   C1C37361   7.710  12.960   5.690
 1557BOLB   C2C37362   7.810  13.190   6.040
 1557BOLB   C3C37363   8.090  13.400   6.130
 1557BOLB   C4C37364   8.540  13.460   6.060
 1557BOLB   C1D37365   7.880  12.620   5.930
 1557BOLB   C2D37366   7.790  12.760   6.370
 1557BOLB   C3D37367   7.920  12.660   6.730
 1557BOLB   C4D37368   8.230  12.540   7.050
 1558BOLB   NC137369  15.910  12.320   4.880
 1558BOLB   PO137370  15.510  12.280   4.880
 1558BOLB   GL137371  15.210  12.300   4.520
 1558BOLB   GL237372  15.300  12.470   4.240
 1558BOLB   C1A37373  15.020  12.010   4.150
 1558BOLB   C2A37374  15.010  11.910   3.700
 1558BOLB   C3A37375  14.570  11.730   3.620
 1558BOLB   C4A37376  14.320  11.450   3.590
 1558BOLB   C1B37377  15.460  12.110   3.930
 1558BOLB   C2B37378  15.780  12.110   3.660
 1558BOLB   C3B37379  16.150  11.880   3.530
 1558BOLB   C4B37380  16.410  11.800   3.370
 1558BOLB   NC237381  12.840  10.270   1.980
 1558BOLB   PO237382  13.020   9.960   2.180
 1558BOLB   GL337383  13.150  10.100   2.510
 1558BOLB   GL437384  13.190   9.910   2.750
 1558BOLB   C1C37385  13.280  10.450   2.720
 1558BOLB   C2C37386  13.450  10.790   2.870
 1558BOLB   C3C37387  13.750  10.960   3.120
 1558BOLB   C4C37388  13.970  11.190   3.360
 1558BOLB   C1D37389  12.880  10.210   3.000
 1558BOLB   C2D37390  12.540  10.340   3.330
 1558BOLB   C3D37391  12.810  10.320   3.730
 1558BOLB   C4D37392  13.010  10.400   4.030
 1559BOLB   NC137393  23.310  14.780   9.090
 1559BOLB   PO137394  23.090  14.380   8.880
 1559BOLB   GL137395  23.500  14.450   8.690
 1559BOLB   GL237396  23.570  14.070   8.820
 1559BOLB   C1A37397  23.740  14.280   8.360
 1559BOLB   C2A37398  24.120  14.120   8.270
 1559BOLB   C3A37399  24.470  14.240   8.030
 1559BOLB   C4A37400  24.690  14.240   7.630
 1559BOLB   C1B37401  23.930  14.090   8.780
 1559BOLB   C2B37402  24.300  14.110   8.910
 1559BOLB   C3B37403  24.760  14.040   8.880
 1559BOLB   C4B37404  25.040  13.980   8.520
 1559BOLB   NC237405  26.190  13.570   5.470
 1559BOLB   PO237406  26.250  13.600   5.900
 1559BOLB   GL337407  26.040  13.670   6.280
 1559BOLB   GL437408  26.110  13.480   6.520
 1559BOLB   C1C37409  25.730  13.760   6.580
 1559BOLB   C2C37410  25.570  14.170   6.640
 1559BOLB   C3C37411  25.280  14.340   7.050
 1559BOLB   C4C37412  25.000  14.400   7.320
 1559BOLB   C1D37413  25.750  13.300   6.430
 1559BOLB   C2D37414  25.350  13.030   6.520
 1559BOLB   C3D37415  25.200  12.820   6.810
 1559BOLB   C4D37416  24.810  12.530   6.810
 1560BOLB   NC137417  10.800  14.090   7.040
 1560BOLB   PO137418  11.130  13.980   6.810
 1560BOLB   GL137419  10.830  13.820   6.480
 1560BOLB   GL237420  10.990  13.720   6.110
 1560BOLB   C1A37421  10.320  13.700   6.440
 1560BOLB   C2A37422  10.030  13.680   6.160
 1560BOLB   C3A37423   9.690  13.680   5.870
 1560BOLB   C4A37424   9.370  13.510   5.520
 1560BOLB   C1B37425  10.550  13.650   5.950
 1560BOLB   C2B37426  10.250  13.770   5.560
 1560BOLB   C3B37427   9.830  13.810   5.320
 1560BOLB   C4B37428   9.540  13.690   5.040
 1560BOLB   NC237429   8.480  12.580   3.660
 1560BOLB   PO237430   8.400  13.020   3.490
 1560BOLB   GL337431   8.830  12.950   3.540
 1560BOLB   GL437432   8.950  12.710   3.750
 1560BOLB   C1C37433   9.130  13.190   3.860
 1560BOLB   C2C37434   9.310  13.450   4.200
 1560BOLB   C3C37435   9.300  13.330   4.660
 1560BOLB   C4C37436   9.380  13.250   5.180
 1560BOLB   C1D37437   9.360  12.520   3.960
 1560BOLB   C2D37438   9.710  12.470   4.220
 1560BOLB   C3D37439   9.900  12.770   4.630
 1560BOLB   C4D37440  10.190  13.070   4.830
 1561BOLB   NC137441  16.110  24.350   9.910
 1561BOLB   PO137442  16.510  24.530   9.950
 1561BOLB   GL137443  16.490  24.920   9.910
 1561BOLB   GL237444  16.440  25.220  10.030
 1561BOLB   C1A37445  16.460  25.230   9.500
 1561BOLB   C2A37446  16.360  25.430   9.000
 1561BOLB   C3A37447  16.240  25.740   8.720
 1561BOLB   C4A37448  16.380  26.100   8.680
 1561BOLB   C1B37449  16.610  25.500   9.950
 1561BOLB   C2B37450  16.550  25.850   9.620
 1561BOLB   C3B37451  16.570  25.860   9.160
 1561BOLB   C4B37452  16.810  25.690   8.820
 1561BOLB   NC237453  16.840  28.520   8.490
 1561BOLB   PO237454  16.530  28.740   8.670
 1561BOLB   GL337455  16.310  28.260   8.770
 1561BOLB   GL437456  16.340  28.180   9.120
 1561BOLB   C1C37457  16.200  27.780   8.740
 1561BOLB   C2C37458  16.340  27.290   8.800
 1561BOLB   C3C37459  16.280  26.850   8.870
 1561BOLB   C4C37460  16.310  26.540   8.610
 1561BOLB   C1D37461  16.580  28.080   9.460
 1561BOLB   C2D37462  16.410  27.770   9.680
 1561BOLB   C3D37463  16.540  27.350   9.860
 1561BOLB   C4D37464  16.560  26.980  10.040
 1562BOLB   NC137465  17.710  11.190   6.560
 1562BOLB   PO137466  17.830  10.780   6.280
 1562BOLB   GL137467  18.050  10.420   5.960
 1562BOLB   GL237468  17.840  10.220   5.960
 1562BOLB   C1A37469  18.200  10.340   5.630
 1562BOLB   C2A37470  18.300  10.240   5.230
 1562BOLB   C3A37471  18.170   9.980   4.920
 1562BOLB   C4A37472  17.990   9.520   4.880
 1562BOLB   C1B37473  17.980   9.890   5.750
 1562BOLB   C2B37474  18.140   9.800   5.340
 1562BOLB   C3B37475  18.600   9.770   5.150
 1562BOLB   C4B37476  19.060   9.750   5.350
 1562BOLB   NC237477  17.460   7.940   2.540
 1562BOLB   PO237478  17.810   8.100   2.750
 1562BOLB   GL337479  17.820   8.270   3.130
 1562BOLB   GL437480  17.500   8.090   3.150
 1562BOLB   C1C37481  17.840   8.420   3.520
 1562BOLB   C2C37482  17.770   8.550   4.020
 1562BOLB   C3C37483  17.850   8.890   4.320
 1562BOLB   C4C37484  17.880   9.330   4.460
 1562BOLB   C1D37485  17.390   8.500   3.290
 1562BOLB   C2D37486  17.420   8.920   3.580
 1562BOLB   C3D37487  17.270   9.290   3.740
 1562BOLB   C4D37488  17.060   9.440   4.190
 1563BOLB   NC137489  17.950  12.810   5.420
 1563BOLB   PO137490  18.400  13.090   5.340
 1563BOLB   GL137491  18.370  12.770   4.970
 1563BOLB   GL237492  18.180  12.780   4.940
 1563BOLB   C1A37493  18.480  12.610   4.520
 1563BOLB   C2A37494  18.600  12.790   4.210
 1563BOLB   C3A37495  18.750  12.820   3.760
 1563BOLB   C4A37496  19.210  12.910   3.630
 1563BOLB   C1B37497  17.920  12.500   4.610
 1563BOLB   C2B37498  17.900  12.370   4.260
 1563BOLB   C3B37499  17.720  12.200   3.820
 1563BOLB   C4B37500  17.780  11.950   3.520
 1563BOLB   NC237501  20.430  12.480   1.880
 1563BOLB   PO237502  20.840  12.150   1.910
 1563BOLB   GL337503  20.640  12.290   2.280
 1563BOLB   GL437504  20.930  12.230   2.550
 1563BOLB   C1C37505  20.430  12.560   2.540
 1563BOLB   C2C37506  20.370  12.630   3.030
 1563BOLB   C3C37507  20.170  12.710   3.440
 1563BOLB   C4C37508  19.710  12.830   3.390
 1563BOLB   C1D37509  20.820  12.410   2.880
 1563BOLB   C2D37510  20.760  12.510   3.310
 1563BOLB   C3D37511  20.510  12.470   3.720
 1563BOLB   C4D37512  20.330  12.250   4.170
 1564BOLB   NC137513  22.710  21.270  14.350
 1564BOLB   PO137514  22.720  21.570  13.910
 1564BOLB   GL137515  23.000  21.820  14.020
 1564BOLB   GL237516  22.880  21.940  14.360
 1564BOLB   C1A37517  23.370  22.050  14.220
 1564BOLB   C2A37518  23.600  22.390  14.270
 1564BOLB   C3A37519  23.940  22.730  14.250
 1564BOLB   C4A37520  23.990  23.170  14.130
 1564BOLB   C1B37521  23.160  21.880  14.710
 1564BOLB   C2B37522  23.640  22.090  14.800
 1564BOLB   C3B37523  23.910  22.070  15.130
 1564BOLB   C4B37524  24.360  22.060  15.080
 1564BOLB   NC237525  25.960  24.050  15.110
 1564BOLB   PO237526  25.980  24.330  14.810
 1564BOLB   GL337527  25.760  23.980  14.650
 1564BOLB   GL437528  25.510  24.220  14.850
 1564BOLB   C1C37529  25.550  23.590  14.630
 1564BOLB   C2C37530  25.270  23.470  14.390
 1564BOLB   C3C37531  24.850  23.580  14.220
 1564BOLB   C4C37532  24.360  23.460  14.100
 1564BOLB   C1D37533  25.380  24.410  14.460
 1564BOLB   C2D37534  25.110  24.570  14.190
 1564BOLB   C3D37535  24.820  24.620  13.740
 1564BOLB   C4D37536  24.470  24.540  13.420
 1565BOLB   NC137537  12.190   9.730  12.470
 1565BOLB   PO137538  12.160   9.430  12.760
 1565BOLB   GL137539  11.990   9.230  13.000
 1565BOLB   GL237540  12.190   9.000  13.110
 1565BOLB   C1A37541  11.700   8.980  13.310
 1565BOLB   C2A37542  11.420   8.590  13.380
 1565BOLB   C3A37543  11.070   8.190  13.340
 1565BOLB   C4A37544  10.860   7.880  13.390
 1565BOLB   C1B37545  12.040   8.580  13.280
 1565BOLB   C2B37546  11.950   8.280  13.360
 1565BOLB   C3B37547  12.180   7.820  13.270
 1565BOLB   C4B37548  12.490   7.540  13.080
 1565BOLB   NC237549  10.990   5.710  13.100
 1565BOLB   PO237550  11.230   5.700  12.790
 1565BOLB   GL337551  11.290   6.060  12.920
 1565BOLB   GL437552  11.460   6.120  13.250
 1565BOLB   C1C37553  11.350   6.470  12.950
 1565BOLB   C2C37554  11.370   6.880  13.100
 1565BOLB   C3C37555  11.000   7.080  12.990
 1565BOLB   C4C37556  10.890   7.450  13.310
 1565BOLB   C1D37557  11.540   6.480  13.440
 1565BOLB   C2D37558  11.620   6.820  13.540
 1565BOLB   C3D37559  11.560   7.300  13.320
 1565BOLB   C4D37560  11.790   7.670  13.050
 1566BOLB   NC137561  15.300  19.990  20.450
 1566BOLB   PO137562  15.710  20.130  20.370
 1566BOLB   GL137563  15.680  20.050  20.770
 1566BOLB   GL237564  15.850  19.870  20.930
 1566BOLB   C1A37565  15.660  20.260  21.170
 1566BOLB   C2A37566  15.710  20.570  21.600
 1566BOLB   C3A37567  15.840  20.900  21.800
 1566BOLB   C4A37568  16.090  21.170  22.070
 1566BOLB   C1B37569  15.600  19.730  21.340
 1566BOLB   C2B37570  15.520  19.860  21.670
 1566BOLB   C3B37571  15.510  20.190  21.990
 1566BOLB   C4B37572  15.730  20.530  22.100
 1566BOLB   NC237573  16.840  21.460  24.880
 1566BOLB   PO237574  17.120  21.190  24.720
 1566BOLB   GL337575  16.960  21.070  24.310
 1566BOLB   GL437576  17.120  21.170  24.090
 1566BOLB   C1C37577  16.800  21.050  23.730
 1566BOLB   C2C37578  16.640  21.340  23.350
 1566BOLB   C3C37579  16.310  21.350  22.990
 1566BOLB   C4C37580  16.190  21.290  22.520
 1566BOLB   C1D37581  16.700  21.470  24.110
 1566BOLB   C2D37582  16.380  21.380  23.960
 1566BOLB   C3D37583  15.860  21.240  23.910
 1566BOLB   C4D37584  15.600  20.900  23.580
 1567BOLB   NC137585  22.640  16.070  15.900
 1567BOLB   PO137586  22.790  16.340  15.590
 1567BOLB   GL137587  23.210  16.310  15.680
 1567BOLB   GL237588  23.170  16.280  15.960
 1567BOLB   C1A37589  23.650  16.230  15.880
 1567BOLB   C2A37590  23.910  16.260  16.210
 1567BOLB   C3A37591  24.210  16.200  16.330
 1567BOLB   C4A37592  24.630  16.130  16.530
 1567BOLB   C1B37593  23.330  15.880  16.080
 1567BOLB   C2B37594  23.610  15.710  15.960
 1567BOLB   C3B37595  24.070  15.840  15.950
 1567BOLB   C4B37596  24.520  15.680  16.030
 1567BOLB   NC237597  26.770  16.930  17.160
 1567BOLB   PO237598  26.980  16.950  16.780
 1567BOLB   GL337599  26.630  16.960  16.510
 1567BOLB   GL437600  26.570  16.720  16.740
 1567BOLB   C1C37601  26.250  16.820  16.190
 1567BOLB   C2C37602  25.860  16.740  16.220
 1567BOLB   C3C37603  25.380  16.480  16.380
 1567BOLB   C4C37604  25.030  16.330  16.600
 1567BOLB   C1D37605  26.120  16.670  16.640
 1567BOLB   C2D37606  25.670  16.840  16.650
 1567BOLB   C3D37607  25.240  16.920  16.500
 1567BOLB   C4D37608  24.870  16.730  16.310
 1568BOLB   NC137609  13.730  22.140   8.350
 1568BOLB   PO137610  14.030  22.360   8.140
 1568BOLB   GL137611  13.830  22.610   7.800
 1568BOLB   GL237612  13.700  22.500   7.620
 1568BOLB   C1A37613  14.030  23.000   7.560
 1568BOLB   C2A37614  14.010  23.350   7.260
 1568BOLB   C3A37615  13.920  23.470   6.910
 1568BOLB   C4A37616  13.950  23.710   6.620
 1568BOLB   C1B37617  13.670  22.730   7.220
 1568BOLB   C2B37618  13.530  22.980   6.890
 1568BOLB   C3B37619  13.280  22.870   6.580
 1568BOLB   C4B37620  12.820  22.840   6.420
 1568BOLB   NC237621  13.340  24.700   4.630
 1568BOLB   PO237622  13.160  24.790   5.030
 1568BOLB   GL337623  13.420  24.750   5.390
 1568BOLB   GL437624  13.200  24.470   5.540
 1568BOLB   C1C37625  13.610  24.590   5.760
 1568BOLB   C2C37626  13.850  24.640   6.110
 1568BOLB   C3C37627  13.960  24.310   6.360
 1568BOLB   C4C37628  13.840  24.090   6.640
 1568BOLB   C1D37629  13.460  24.090   5.600
 1568BOLB   C2D37630  13.500  23.640   5.800
 1568BOLB   C3D37631  13.470  23.160   5.700
 1568BOLB   C4D37632  13.460  22.810   5.430
 1569BOLB   NC137633  10.480  11.250   9.080
 1569BOLB   PO137634  10.330  11.620   8.820
 1569BOLB   GL137635  10.090  11.290   8.760
 1569BOLB   GL237636   9.950  11.290   8.470
 1569BOLB   C1A37637   9.710  11.050   8.800
 1569BOLB   C2A37638   9.440  10.730   8.640
 1569BOLB   C3A37639   8.930  10.720   8.800
 1569BOLB   C4A37640   8.790  10.520   9.250
 1569BOLB   C1B37641   9.430  11.150   8.440
 1569BOLB   C2B37642   9.110  10.940   8.250
 1569BOLB   C3B37643   8.980  10.690   8.020
 1569BOLB   C4B37644   8.610  10.460   7.710
 1569BOLB   NC237645   7.610   8.350   8.540
 1569BOLB   PO237646   7.830   8.470   8.730
 1569BOLB   GL337647   7.920   8.840   9.010
 1569BOLB   GL437648   7.720   9.040   8.910
 1569BOLB   C1C37649   8.300   9.010   8.970
 1569BOLB   C2C37650   8.440   9.280   9.330
 1569BOLB   C3C37651   8.730   9.670   9.270
 1569BOLB   C4C37652   8.890  10.080   9.270
 1569BOLB   C1D37653   8.040   9.420   9.010
 1569BOLB   C2D37654   8.360   9.800   8.990
 1569BOLB   C3D37655   8.180  10.200   9.110
 1569BOLB   C4D37656   8.320  10.570   8.930
 1570BOLB   NC137657   1.150  15.200  15.570
 1570BOLB   PO137658   1.240  14.720  15.690
 1570BOLB   GL137659   1.660  14.940  15.590
 1570BOLB   GL237660   1.570  15.220  15.740
 1570BOLB   C1A37661   2.010  15.080  15.530
 1570BOLB   C2A37662   2.550  14.980  15.490
 1570BOLB   C3A37663   2.840  14.810  15.270
 1570BOLB   C4A37664   2.950  14.500  14.840
 1570BOLB   C1B37665   2.000  15.250  16.060
 1570BOLB   C2B37666   2.480  15.110  15.950
 1570BOLB   C3B37667   2.890  14.920  16.000
 1570BOLB   C4B37668   3.340  14.970  15.910
 1570BOLB   NC237669   1.620  13.150  13.220
 1570BOLB   PO237670   1.710  13.400  13.690
 1570BOLB   GL337671   2.080  13.230  13.850
 1570BOLB   GL437672   2.250  13.430  13.600
 1570BOLB   C1C37673   2.520  13.080  13.930
 1570BOLB   C2C37674   2.870  13.250  14.250
 1570BOLB   C3C37675   2.940  13.710  14.400
 1570BOLB   C4C37676   2.910  14.120  14.640
 1570BOLB   C1D37677   2.320  13.690  13.900
 1570BOLB   C2D37678   2.620  13.990  14.120
 1570BOLB   C3D37679   2.890  14.230  14.110
 1570BOLB   C4D37680   3.210  14.420  13.910
 1571BOLB   NC137681  11.620  22.570  10.060
 1571BOLB   PO137682  11.800  23.030  10.190
 1571BOLB   GL137683  11.590  23.150  10.010
 1571BOLB   GL237684  11.400  23.410  10.190
 1571BOLB   C1A37685  11.240  23.470   9.680
 1571BOLB   C2A37686  11.230  23.830   9.450
 1571BOLB   C3A37687  11.380  24.290   9.400
 1571BOLB   C4A37688  11.450  24.750   9.340
 1571BOLB   C1B37689  11.390  23.790  10.000
 1571BOLB   C2B37690  11.520  24.160   9.860
 1571BOLB   C3B37691  11.590  24.540   9.840
 1571BOLB   C4B37692  11.920  24.730   9.580
 1571BOLB   NC237693  11.840  27.490   9.320
 1571BOLB   PO237694  11.540  27.180   9.060
 1571BOLB   GL337695  11.530  26.860   9.270
 1571BOLB   GL437696  11.250  26.810   9.510
 1571BOLB   C1C37697  11.350  26.470   9.150
 1571BOLB   C2C37698  11.500  26.000   9.120
 1571BOLB   C3C37699  11.430  25.550   9.090
 1571BOLB   C4C37700  11.570  25.210   9.170
 1571BOLB   C1D37701  11.320  26.330   9.680
 1571BOLB   C2D37702  11.650  25.990   9.640
 1571BOLB   C3D37703  11.860  25.660   9.340
 1571BOLB   C4D37704  11.970  25.420   8.990
 1572BOLB   NC137705   2.770  12.070  11.650
 1572BOLB   PO137706   3.170  12.160  11.510
 1572BOLB   GL137707   3.160  12.180  11.990
 1572BOLB   GL237708   3.420  12.030  12.180
 1572BOLB   C1A37709   3.290  12.450  12.440
 1572BOLB   C2A37710   3.560  12.650  12.760
 1572BOLB   C3A37711   3.470  13.030  12.880
 1572BOLB   C4A37712   3.630  13.470  13.020
 1572BOLB   C1B37713   3.780  11.780  12.500
 1572BOLB   C2B37714   3.750  11.650  12.940
 1572BOLB   C3B37715   3.750  11.300  13.250
 1572BOLB   C4B37716   3.930  11.150  13.690
 1572BOLB   NC237717   2.440  12.880  11.620
 1572BOLB   PO237718   2.640  13.040  11.280
 1572BOLB   GL337719   2.960  13.230  11.460
 1572BOLB   GL437720   2.990  13.550  11.280
 1572BOLB   C1C37721   3.260  13.220  11.850
 1572BOLB   C2C37722   3.680  13.180  11.850
 1572BOLB   C3C37723   3.880  13.380  12.220
 1572BOLB   C4C37724   3.820  13.630  12.620
 1572BOLB   C1D37725   3.050  13.710  11.680
 1572BOLB   C2D37726   2.940  13.580  12.050
 1572BOLB   C3D37727   2.910  13.310  12.310
 1572BOLB   C4D37728   2.890  12.990  12.590
 1573BOLB   NC137729   8.080  17.050  10.270
 1573BOLB   PO137730   8.070  17.060  10.700
 1573BOLB   GL137731   7.620  17.120  10.610
 1573BOLB   GL237732   7.510  17.580  10.670
 1573BOLB   C1A37733   7.220  16.970  10.740
 1573BOLB   C2A37734   6.910  16.970  11.070
 1573BOLB   C3A37735   6.500  17.110  11.110
 1573BOLB   C4A37736   6.000  17.030  11.160
 1573BOLB   C1B37737   7.210  17.810  10.550
 1573BOLB   C2B37738   6.860  17.610  10.400
 1573BOLB   C3B37739   6.440  17.600  10.620
 1573BOLB   C4B37740   6.010  17.570  10.850
 1573BOLB   NC237741   4.170  17.390  10.040
 1573BOLB   PO237742   3.830  17.220  10.340
 1573BOLB   GL337743   4.120  17.250  10.690
 1573BOLB   GL437744   4.270  17.440  10.520
 1573BOLB   C1C37745   4.330  17.420  11.020
 1573BOLB   C2C37746   4.790  17.450  11.160
 1573BOLB   C3C37747   5.170  17.130  10.970
 1573BOLB   C4C37748   5.580  17.160  11.150
 1573BOLB   C1D37749   4.700  17.270  10.700
 1573BOLB   C2D37750   4.920  16.890  10.650
 1573BOLB   C3D37751   5.380  16.670  10.500
 1573BOLB   C4D37752   5.520  16.320  10.580
 1574BOLB   NC137753   8.900  15.140   8.370
 1574BOLB   PO137754   9.110  15.450   8.050
 1574BOLB   GL137755   8.770  15.670   7.780
 1574BOLB   GL237756   8.700  15.800   8.100
 1574BOLB   C1A37757   8.360  15.690   7.470
 1574BOLB   C2A37758   8.240  15.580   7.050
 1574BOLB   C3A37759   7.940  15.310   6.850
 1574BOLB   C4A37760   7.720  15.130   6.520
 1574BOLB   C1B37761   8.260  15.810   7.970
 1574BOLB   C2B37762   7.760  15.710   7.930
 1574BOLB   C3B37763   7.620  15.240   7.850
 1574BOLB   C4B37764   8.010  14.950   7.840
 1574BOLB   NC237765   5.850  16.350   5.940
 1574BOLB   PO237766   5.700  16.020   6.210
 1574BOLB   GL337767   6.100  15.690   6.230
 1574BOLB   GL437768   6.060  15.570   6.480
 1574BOLB   C1C37769   6.400  15.230   6.300
 1574BOLB   C2C37770   6.740  14.950   6.200
 1574BOLB   C3C37771   7.040  14.870   6.110
 1574BOLB   C4C37772   7.420  14.930   6.300
 1574BOLB   C1D37773   6.340  15.400   6.800
 1574BOLB   C2D37774   6.730  15.430   6.840
 1574BOLB   C3D37775   7.030  15.400   7.240
 1574BOLB   C4D37776   6.970  15.360   7.650
 1575BOLB   NC137777  12.170  21.380   8.300
 1575BOLB   PO137778  11.950  21.770   8.090
 1575BOLB   GL137779  11.710  22.080   7.840
 1575BOLB   GL237780  11.400  21.990   7.870
 1575BOLB   C1A37781  11.740  22.510   7.740
 1575BOLB   C2A37782  11.550  22.880   7.830
 1575BOLB   C3A37783  11.450  23.240   7.970
 1575BOLB   C4A37784  11.150  23.540   7.930
 1575BOLB   C1B37785  11.140  22.230   7.730
 1575BOLB   C2B37786  11.190  22.550   7.340
 1575BOLB   C3B37787  11.340  22.890   7.070
 1575BOLB   C4B37788  11.260  22.850   6.620
 1575BOLB   NC237789   9.700  25.610   7.640
 1575BOLB   PO237790   9.600  25.220   7.430
 1575BOLB   GL337791   9.610  24.820   7.650
 1575BOLB   GL437792   9.590  24.530   7.560
 1575BOLB   C1C37793  10.000  24.780   7.910
 1575BOLB   C2C37794  10.360  24.520   8.080
 1575BOLB   C3C37795  10.570  24.170   8.120
 1575BOLB   C4C37796  10.880  23.950   8.020
 1575BOLB   C1D37797   9.730  24.380   7.920
 1575BOLB   C2D37798   9.970  24.090   8.020
 1575BOLB   C3D37799   9.910  23.610   8.170
 1575BOLB   C4D37800  10.120  23.340   8.420
 1576BOLB   NC137801  25.990  14.850  18.780
 1576BOLB   PO137802  25.530  14.920  18.900
 1576BOLB   GL137803  25.180  14.850  18.640
 1576BOLB   GL237804  25.000  14.450  18.590
 1576BOLB   C1A37805  24.800  14.940  18.500
 1576BOLB   C2A37806  24.530  14.830  18.220
 1576BOLB   C3A37807  24.300  14.750  17.810
 1576BOLB   C4A37808  24.070  14.560  17.400
 1576BOLB   C1B37809  24.750  14.370  18.240
 1576BOLB   C2B37810  24.790  14.150  17.880
 1576BOLB   C3B37811  25.020  14.270  17.570
 1576BOLB   C4B37812  25.320  14.570  17.360
 1576BOLB   NC237813  22.470  15.330  15.980
 1576BOLB   PO237814  22.540  15.620  15.780
 1576BOLB   GL337815  22.900  15.580  16.110
 1576BOLB   GL437816  22.850  15.640  16.360
 1576BOLB   C1C37817  23.320  15.390  16.250
 1576BOLB   C2C37818  23.350  15.080  16.530
 1576BOLB   C3C37819  23.600  14.850  16.870
 1576BOLB   C4C37820  23.910  14.730  17.040
 1576BOLB   C1D37821  23.090  15.470  16.830
 1576BOLB   C2D37822  23.540  15.380  16.960
 1576BOLB   C3D37823  23.870  15.390  16.780
 1576BOLB   C4D37824  24.140  15.090  16.690
 1577BOLB   NC137825  15.070   8.950  12.880
 1577BOLB   PO137826  15.380   9.350  13.120
 1577BOLB   GL137827  15.350   8.860  13.320
 1577BOLB   GL237828  15.250   8.760  13.670
 1577BOLB   C1A37829  15.230   8.440  13.270
 1577BOLB   C2A37830  15.410   8.030  13.270
 1577BOLB   C3A37831  15.390   7.720  12.960
 1577BOLB   C4A37832  15.210   7.420  12.750
 1577BOLB   C1B37833  15.420   8.430  13.770
 1577BOLB   C2B37834  15.530   8.080  13.810
 1577BOLB   C3B37835  15.660   7.560  13.810
 1577BOLB   C4B37836  15.970   7.260  13.980
 1577BOLB   NC237837  14.700   4.970  12.700
 1577BOLB   PO237838  14.910   4.860  13.030
 1577BOLB   GL337839  14.900   5.280  13.010
 1577BOLB   GL437840  14.810   5.400  12.840
 1577BOLB   C1C37841  15.270   5.710  12.850
 1577BOLB   C2C37842  15.460   6.180  12.790
 1577BOLB   C3C37843  15.460   6.560  12.680
 1577BOLB   C4C37844  15.290   6.970  12.830
 1577BOLB   C1D37845  14.840   5.800  13.130
 1577BOLB   C2D37846  14.820   6.190  13.470
 1577BOLB   C3D37847  14.780   6.180  13.930
 1577BOLB   C4D37848  14.480   6.110  14.200
 1578BOLB   NC137849  11.560   9.440  11.900
 1578BOLB   PO137850  11.860   9.410  12.300
 1578BOLB   GL137851  11.900   9.060  12.560
 1578BOLB   GL237852  11.610   9.000  12.530
 1578BOLB   C1A37853  11.850   8.730  12.860
 1578BOLB   C2A37854  11.670   8.480  12.970
 1578BOLB   C3A37855  11.530   8.100  13.310
 1578BOLB   C4A37856  11.710   7.760  13.580
 1578BOLB   C1B37857  11.650   8.620  12.320
 1578BOLB   C2B37858  11.360   8.250  12.310
 1578BOLB   C3B37859  11.320   7.750  12.260
 1578BOLB   C4B37860  11.220   7.490  12.620
 1578BOLB   NC237861  11.460   5.620  13.270
 1578BOLB   PO237862  11.170   5.520  13.540
 1578BOLB   GL337863  11.240   5.880  13.780
 1578BOLB   GL437864  11.550   5.950  13.790
 1578BOLB   C1C37865  11.180   6.310  13.780
 1578BOLB   C2C37866  11.280   6.750  13.910
 1578BOLB   C3C37867  11.670   6.970  14.040
 1578BOLB   C4C37868  11.840   7.390  13.940
 1578BOLB   C1D37869  11.830   6.230  13.760
 1578BOLB   C2D37870  11.960   6.630  13.880
 1578BOLB   C3D37871  12.210   7.020  13.820
 1578BOLB   C4D37872  12.470   7.080  13.370
 1579BOLB   NC137873  17.920  23.410   8.600
 1579BOLB   PO137874  18.120  23.770   8.460
 1579BOLB   GL137875  18.120  23.580   8.140
 1579BOLB   GL237876  18.430  23.690   8.000
 1579BOLB   C1A37877  17.930  23.740   7.690
 1579BOLB   C2A37878  17.950  24.120   7.300
 1579BOLB   C3A37879  17.860  24.150   6.820
 1579BOLB   C4A37880  17.960  24.430   6.540
 1579BOLB   C1B37881  18.500  24.100   7.740
 1579BOLB   C2B37882  18.470  24.220   7.370
 1579BOLB   C3B37883  18.280  24.420   6.990
 1579BOLB   C4B37884  18.420  24.630   6.690
 1579BOLB   NC237885  18.300  26.370   5.400
 1579BOLB   PO237886  18.310  26.150   4.980
 1579BOLB   GL337887  18.510  25.890   5.240
 1579BOLB   GL437888  18.790  25.710   5.310
 1579BOLB   C1C37889  18.380  25.430   5.290
 1579BOLB   C2C37890  18.140  25.160   5.550
 1579BOLB   C3C37891  18.130  25.040   5.980
 1579BOLB   C4C37892  18.130  24.820   6.330
 1579BOLB   C1D37893  18.840  25.220   5.510
 1579BOLB   C2D37894  18.960  24.880   5.830
 1579BOLB   C3D37895  19.160  24.620   6.110
 1579BOLB   C4D37896  19.380  24.240   6.230
 1580BOLB   NC137897  13.280  24.580  12.870
 1580BOLB   PO137898  13.170  24.370  12.430
 1580BOLB   GL137899  12.890  24.620  12.520
 1580BOLB   GL237900  12.680  24.530  12.640
 1580BOLB   C1A37901  12.840  25.030  12.530
 1580BOLB   C2A37902  12.580  25.390  12.400
 1580BOLB   C3A37903  12.640  25.740  12.230
 1580BOLB   C4A37904  12.590  25.780  11.670
 1580BOLB   C1B37905  12.400  24.760  12.500
 1580BOLB   C2B37906  12.140  25.010  12.370
 1580BOLB   C3B37907  12.120  25.420  12.460
 1580BOLB   C4B37908  12.190  25.860  12.390
 1580BOLB   NC237909  12.590  28.310  11.170
 1580BOLB   PO237910  12.300  28.160  11.370
 1580BOLB   GL337911  12.540  27.840  11.380
 1580BOLB   GL437912  12.800  27.750  11.140
 1580BOLB   C1C37913  12.580  27.360  11.420
 1580BOLB   C2C37914  12.800  27.030  11.460
 1580BOLB   C3C37915  12.650  26.700  11.660
 1580BOLB   C4C37916  12.640  26.220  11.520
 1580BOLB   C1D37917  13.050  27.370  11.080
 1580BOLB   C2D37918  12.980  26.900  11.010
 1580BOLB   C3D37919  12.920  26.450  11.130
 1580BOLB   C4D37920  12.960  26.070  11.150
 1581BOLB   NC137921  14.360  22.460   8.530
 1581BOLB   PO137922  13.900  22.700   8.460
 1581BOLB   GL137923  13.780  23.210   8.500
 1581BOLB   GL237924  13.840  23.510   8.640
 1581BOLB   C1A37925  13.460  23.400   8.220
 1581BOLB   C2A37926  13.190  23.680   8.000
 1581BOLB   C3A37927  13.080  24.000   7.980
 1581BOLB   C4A37928  12.810  24.310   7.700
 1581BOLB   C1B37929  13.780  23.770   8.300
 1581BOLB   C2B37930  13.650  23.970   7.940
 1581BOLB   C3B37931  13.440  24.240   7.630
 1581BOLB   C4B37932  13.190  24.600   7.640
 1581BOLB   NC237933  12.410  26.610   7.230
 1581BOLB   PO237934  11.960  26.500   7.240
 1581BOLB   GL337935  12.250  26.120   7.280
 1581BOLB   GL437936  12.050  25.880   7.200
 1581BOLB   C1C37937  12.480  25.750   7.290
 1581BOLB   C2C37938  12.830  25.560   7.380
 1581BOLB   C3C37939  12.900  25.180   7.540
 1581BOLB   C4C37940  12.710  24.800   7.570
 1581BOLB   C1D37941  12.270  25.570   6.880
 1581BOLB   C2D37942  12.230  25.110   6.850
 1581BOLB   C3D37943  12.510  24.760   7.090
 1581BOLB   C4D37944  12.500  24.290   7.180
 1582BOLB   NC137945  22.050  16.190   6.930
 1582BOLB   PO137946  21.710  16.020   6.600
 1582BOLB   GL137947  22.130  15.990   6.430
 1582BOLB   GL237948  22.090  16.110   6.220
 1582BOLB   C1A37949  22.470  15.730   6.340
 1582BOLB   C2A37950  22.690  15.590   6.100
 1582BOLB   C3A37951  23.040  15.450   5.790
 1582BOLB   C4A37952  23.070  15.410   5.400
 1582BOLB   C1B37953  22.500  16.080   5.950
 1582BOLB   C2B37954  22.760  15.760   5.590
 1582BOLB   C3B37955  22.870  15.920   5.170
 1582BOLB   C4B37956  23.000  16.030   4.790
 1582BOLB   NC237957  24.790  15.120   3.620
 1582BOLB   PO237958  24.720  14.720   3.900
 1582BOLB   GL337959  24.360  14.860   4.240
 1582BOLB   GL437960  24.520  14.750   4.600
 1582BOLB   C1C37961  24.010  15.060   4.170
 1582BOLB   C2C37962  23.600  15.450   4.230
 1582BOLB   C3C37963  23.320  15.650   4.540
 1582BOLB   C4C37964  23.030  15.500   4.990
 1582BOLB   C1D37965  24.190  15.000   4.710
 1582BOLB   C2D37966  23.890  14.800   4.680
 1582BOLB   C3D37967  23.510  14.650   4.750
 1582BOLB   C4D37968  23.070  14.500   4.950
 1583BOLB   NC137969  17.410  10.510   6.090
 1583BOLB   PO137970  17.370  10.040   6.160
 1583BOLB   GL137971  17.340   9.720   5.920
 1583BOLB   GL237972  17.540   9.800   5.720
 1583BOLB   C1A37973  17.160   9.280   5.850
 1583BOLB   C2A37974  16.740   9.040   5.600
 1583BOLB   C3A37975  16.430   8.630   5.530
 1583BOLB   C4A37976  15.950   8.650   5.430
 1583BOLB   C1B37977  17.670   9.440   5.590
 1583BOLB   C2B37978  18.130   9.100   5.320
 1583BOLB   C3B37979  18.530   8.810   5.370
 1583BOLB   C4B37980  18.720   8.470   5.150
 1583BOLB   NC237981  15.730   6.440   4.650
 1583BOLB   PO237982  15.280   6.550   4.560
 1583BOLB   GL337983  15.070   6.910   4.710
 1583BOLB   GL437984  15.420   7.040   4.800
 1583BOLB   C1C37985  14.900   7.410   4.930
 1583BOLB   C2C37986  15.060   7.690   5.140
 1583BOLB   C3C37987  15.280   8.000   5.470
 1583BOLB   C4C37988  15.560   8.240   5.580
 1583BOLB   C1D37989  15.300   7.220   5.150
 1583BOLB   C2D37990  15.490   7.550   5.360
 1583BOLB   C3D37991  15.700   7.810   5.210
 1583BOLB   C4D37992  15.940   8.220   5.130
 1584BOLB   NC137993  20.790  11.020   8.200
 1584BOLB   PO137994  20.400  10.920   8.090
 1584BOLB   GL137995  20.570  10.610   7.990
 1584BOLB   GL237996  20.820  10.810   7.750
 1584BOLB   C1A37997  20.950  10.270   7.880
 1584BOLB   C2A37998  21.170   9.990   7.790
 1584BOLB   C3A37999  21.320   9.720   7.410
 1584BOLB   C4A38000  21.700   9.360   7.480
 1584BOLB   C1B38001  20.670  10.460   7.500
 1584BOLB   C2B38002  20.620  10.090   7.290
 1584BOLB   C3B38003  20.880   9.790   7.220
 1584BOLB   C4B38004  20.970   9.370   7.390
 1584BOLB   NC238005  22.000   7.410   6.540
 1584BOLB   PO238006  22.280   7.510   6.800
 1584BOLB   GL338007  22.030   7.890   6.940
 1584BOLB   GL438008  21.730   7.910   7.030
 1584BOLB   C1C38009  22.150   8.270   6.860
 1584BOLB   C2C38010  22.510   8.650   6.850
 1584BOLB   C3C38011  22.470   8.980   7.200
 1584BOLB   C4C38012  22.010   9.180   7.280
 1584BOLB   C1D38013  21.350   8.020   6.710
 1584BOLB   C2D38014  21.120   8.100   6.400
 1584BOLB   C3D38015  20.860   7.850   6.330
 1584BOLB   C4D38016  20.480   7.730   6.500
 1585BOLB   NC138017   9.400  18.090   8.040
 1585BOLB   PO138018   9.140  18.290   8.130
 1585BOLB   GL138019   8.840  18.380   7.830
 1585BOLB   GL238020   8.950  18.510   7.590
 1585BOLB   C1A38021   8.430  18.450   7.620
 1585BOLB   C2A38022   7.960  18.530   7.640
 1585BOLB   C3A38023   7.640  18.640   7.380
 1585BOLB   C4A38024   7.220  18.750   7.210
 1585BOLB   C1B38025   8.780  18.860   7.750
 1585BOLB   C2B38026   8.540  19.220   7.670
 1585BOLB   C3B38027   8.580  19.640   7.420
 1585BOLB   C4B38028   8.380  19.820   7.070
 1585BOLB   NC238029   5.860  18.150   5.100
 1585BOLB   PO238030   6.130  18.570   5.230
 1585BOLB   GL338031   6.350  18.440   5.630
 1585BOLB   GL438032   6.290  18.200   5.650
 1585BOLB   C1C38033   6.600  18.450   6.010
 1585BOLB   C2C38034   6.790  18.410   6.370
 1585BOLB   C3C38035   6.870  18.590   6.740
 1585BOLB   C4C38036   7.180  18.700   6.900
 1585BOLB   C1D38037   6.740  18.050   5.740
 1585BOLB   C2D38038   7.150  17.810   5.720
 1585BOLB   C3D38039   7.430  17.530   5.930
 1585BOLB   C4D38040   7.530  17.230   6.200
 1586BOLB   NC138041  10.340  11.300  10.660
 1586BOLB   PO138042  10.020  11.570  10.550
 1586BOLB   GL138043   9.490  11.520  10.760
 1586BOLB   GL238044   9.210  11.600  10.470
 1586BOLB   C1A38045   9.230  11.170  10.790
 1586BOLB   C2A38046   8.800  10.860  10.750
 1586BOLB   C3A38047   8.770  10.380  10.830
 1586BOLB   C4A38048   8.640  10.040  10.700
 1586BOLB   C1B38049   8.790  11.440  10.630
 1586BOLB   C2B38050   8.470  11.190  10.570
 1586BOLB   C3B38051   8.270  11.010  10.270
 1586BOLB   C4B38052   8.270  10.620   9.950
 1586BOLB   NC238053   7.590   8.340   9.250
 1586BOLB   PO238054   7.430   8.560   9.610
 1586BOLB   GL338055   7.630   9.000   9.680
 1586BOLB   GL438056   7.980   9.010   9.480
 1586BOLB   C1C38057   7.560   9.410   9.750
 1586BOLB   C2C38058   7.780   9.770  10.000
 1586BOLB   C3C38059   7.880   9.720  10.420
 1586BOLB   C4C38060   8.300   9.760  10.580
 1586BOLB   C1D38061   8.350   9.200   9.800
 1586BOLB   C2D38062   8.730   9.460   9.790
 1586BOLB   C3D38063   9.050   9.720   9.700
 1586BOLB   C4D38064   9.360   9.990   9.440
 1587BOLB   NC138065  13.560  21.160   8.090
 1587BOLB   PO138066  13.370  21.590   7.760
 1587BOLB   GL138067  13.210  21.840   7.430
 1587BOLB   GL238068  13.030  21.670   7.310
 1587BOLB   C1A38069  13.310  22.100   7.240
 1587BOLB   C2A38070  13.220  22.420   6.820
 1587BOLB   C3A38071  13.080  22.300   6.400
 1587BOLB   C4A38072  12.840  22.410   6.050
 1587BOLB   C1B38073  12.860  21.970   6.980
 1587BOLB   C2B38074  12.690  22.170   6.650
 1587BOLB   C3B38075  12.290  22.320   6.270
 1587BOLB   C4B38076  12.030  22.550   6.020
 1587BOLB   NC238077  12.400  24.050   4.120
 1587BOLB   PO238078  12.580  24.410   4.420
 1587BOLB   GL338079  12.550  24.200   4.800
 1587BOLB   GL438080  12.550  23.940   4.670
 1587BOLB   C1C38081  12.470  23.900   5.180
 1587BOLB   C2C38082  12.490  23.590   5.570
 1587BOLB   C3C38083  12.430  23.220   5.870
 1587BOLB   C4C38084  12.540  22.710   6.050
 1587BOLB   C1D38085  12.910  23.910   4.780
 1587BOLB   C2D38086  13.050  23.410   4.790
 1587BOLB   C3D38087  13.360  23.130   4.730
 1587BOLB   C4D38088  13.440  22.780   4.940
 1588BOLB   NC138089  16.730   9.240   9.740
 1588BOLB   PO138090  16.500   8.900   9.590
 1588BOLB   GL138091  16.340   8.510   9.550
 1588BOLB   GL238092  16.160   8.610   9.250
 1588BOLB   C1A38093  16.410   8.180   9.440
 1588BOLB   C2A38094  16.610   7.780   9.330
 1588BOLB   C3A38095  16.810   7.440   9.560
 1588BOLB   C4A38096  16.670   7.130   9.770
 1588BOLB   C1B38097  16.080   8.210   9.070
 1588BOLB   C2B38098  16.210   7.860   8.870
 1588BOLB   C3B38099  16.330   7.460   9.070
 1588BOLB   C4B38100  16.450   7.170   9.280
 1588BOLB   NC238101  17.310   4.790   9.870
 1588BOLB   PO238102  16.870   4.680   9.730
 1588BOLB   GL338103  16.800   5.140   9.600
 1588BOLB   GL438104  16.950   5.410   9.380
 1588BOLB   C1C38105  16.600   5.470   9.740
 1588BOLB   C2C38106  16.560   5.850   9.610
 1588BOLB   C3C38107  16.630   6.230   9.820
 1588BOLB   C4C38108  16.710   6.710   9.990
 1588BOLB   C1D38109  17.010   5.700   9.570
 1588BOLB   C2D38110  16.970   6.100   9.470
 1588BOLB   C3D38111  16.850   6.420   9.240
 1588BOLB   C4D38112  16.570   6.730   9.400
 1589BOLB   NC138113  21.300  20.940  16.660
 1589BOLB   PO138114  21.600  20.850  16.890
 1589BOLB   GL138115  21.690  20.770  17.310
 1589BOLB   GL238116  21.980  20.430  17.390
 1589BOLB   C1A38117  22.000  20.880  17.610
 1589BOLB   C2A38118  22.290  20.760  17.910
 1589BOLB   C3A38119  22.520  20.910  18.240
 1589BOLB   C4A38120  22.480  21.020  18.750
 1589BOLB   C1B38121  22.340  20.560  17.360
 1589BOLB   C2B38122  22.700  20.570  17.660
 1589BOLB   C3B38123  22.640  20.360  18.130
 1589BOLB   C4B38124  22.750  20.540  18.590
 1589BOLB   NC238125  24.030  22.330  19.650
 1589BOLB   PO238126  23.950  21.990  20.000
 1589BOLB   GL338127  23.560  21.860  19.900
 1589BOLB   GL438128  23.570  21.730  19.670
 1589BOLB   C1C38129  23.210  21.550  19.920
 1589BOLB   C2C38130  23.090  21.350  19.680
 1589BOLB   C3C38131  22.740  21.160  19.550
 1589BOLB   C4C38132  22.630  21.000  19.160
 1589BOLB   C1D38133  23.630  21.490  19.340
 1589BOLB   C2D38134  23.520  21.380  18.970
 1589BOLB   C3D38135  23.180  21.260  18.610
 1589BOLB   C4D38136  22.910  21.230  18.320
 1590BOLB   NC138137  14.880  24.570  10.160
 1590BOLB   PO138138  14.650  24.540  10.570
 1590BOLB   GL138139  14.630  25.000  10.340
 1590BOLB   GL238140  14.730  25.060  10.060
 1590BOLB   C1A38141  14.470  25.440  10.250
 1590BOLB   C2A38142  14.500  25.850  10.420
 1590BOLB   C3A38143  14.350  26.160  10.700
 1590BOLB   C4A38144  14.560  26.420  11.050
 1590BOLB   C1B38145  14.880  25.540   9.940
 1590BOLB   C2B38146  14.500  25.860   9.940
 1590BOLB   C3B38147  14.250  26.160  10.080
 1590BOLB   C4B38148  13.920  26.540  10.030
 1590BOLB   NC238149  14.400  29.000  10.090
 1590BOLB   PO238150  14.260  28.630   9.970
 1590BOLB   GL338151  14.230  28.250  10.120
 1590BOLB   GL438152  14.490  28.190   9.880
 1590BOLB   C1C38153  14.310  27.950  10.490
 1590BOLB   C2C38154  14.340  27.530  10.590
 1590BOLB   C3C38155  14.450  27.080  10.690
 1590BOLB   C4C38156  14.330  26.820  11.020
 1590BOLB   C1D38157  14.760  27.940  10.100
 1590BOLB   C2D38158  15.100  27.590  10.080
 1590BOLB   C3D38159  14.960  27.240  10.410
 1590BOLB   C4D38160  14.770  26.930  10.370
 1591BOLB   NC138161  22.430  16.510   7.490
 1591BOLB   PO138162  22.880  16.490   7.290
 1591BOLB   GL138163  23.280  16.670   7.120
 1591BOLB   GL238164  23.200  17.070   6.940
 1591BOLB   C1A38165  23.450  16.690   6.750
 1591BOLB   C2A38166  23.500  16.990   6.470
 1591BOLB   C3A38167  23.820  17.180   6.240
 1591BOLB   C4A38168  24.060  17.290   5.760
 1591BOLB   C1B38169  23.560  17.200   6.900
 1591BOLB   C2B38170  23.950  17.080   6.770
 1591BOLB   C3B38171  24.260  17.180   6.510
 1591BOLB   C4B38172  24.430  17.370   6.150
 1591BOLB   NC238173  25.410  18.480   3.870
 1591BOLB   PO238174  25.210  18.640   4.190
 1591BOLB   GL338175  24.850  18.530   4.220
 1591BOLB   GL438176  24.720  18.470   3.830
 1591BOLB   C1C38177  24.480  18.250   4.410
 1591BOLB   C2C38178  24.260  18.090   4.730
 1591BOLB   C3C38179  24.140  17.890   5.130
 1591BOLB   C4C38180  24.120  17.670   5.520
 1591BOLB   C1D38181  24.320  18.590   3.750
 1591BOLB   C2D38182  23.980  18.600   3.740
 1591BOLB   C3D38183  23.620  18.560   4.020
 1591BOLB   C4D38184  23.160  18.610   4.140
 1592BOLB   NC138185  18.050  24.900  14.780
 1592BOLB   PO138186  17.720  25.040  14.770
 1592BOLB   GL138187  17.880  25.350  15.010
 1592BOLB   GL238188  17.720  25.540  15.170
 1592BOLB   C1A38189  18.220  25.640  15.180
 1592BOLB   C2A38190  18.380  25.980  15.350
 1592BOLB   C3A38191  18.150  26.310  15.590
 1592BOLB   C4A38192  17.900  26.630  15.800
 1592BOLB   C1B38193  17.600  25.980  15.290
 1592BOLB   C2B38194  17.610  26.240  15.590
 1592BOLB   C3B38195  17.260  26.560  15.730
 1592BOLB   C4B38196  17.380  26.920  16.010
 1592BOLB   NC238197  18.910  29.020  15.510
 1592BOLB   PO238198  18.510  29.060  15.600
 1592BOLB   GL338199  18.440  28.590  15.570
 1592BOLB   GL438200  18.360  28.610  15.230
 1592BOLB   C1C38201  18.390  28.150  15.670
 1592BOLB   C2C38202  18.100  27.860  15.740
 1592BOLB   C3C38203  17.990  27.390  15.640
 1592BOLB   C4C38204  17.810  27.060  15.600
 1592BOLB   C1D38205  18.080  28.300  15.290
 1592BOLB   C2D38206  17.760  28.080  15.070
 1592BOLB   C3D38207  17.370  27.760  15.020
 1592BOLB   C4D38208  17.080  27.490  15.030
 1593BOLB   NC138209  17.080  23.120   8.310
 1593BOLB   PO138210  16.940  23.240   7.930
 1593BOLB   GL138211  17.200  23.450   7.710
 1593BOLB   GL238212  17.460  23.370   7.660
 1593BOLB   C1A38213  17.000  23.730   7.410
 1593BOLB   C2A38214  17.040  24.130   7.240
 1593BOLB   C3A38215  17.020  24.230   6.830
 1593BOLB   C4A38216  17.070  24.500   6.410
 1593BOLB   C1B38217  17.550  23.590   7.300
 1593BOLB   C2B38218  17.410  23.890   7.020
 1593BOLB   C3B38219  17.490  24.320   7.060
 1593BOLB   C4B38220  17.800  24.550   7.140
 1593BOLB   NC238221  16.650  26.720   5.300
 1593BOLB   PO238222  16.970  26.510   5.550
 1593BOLB   GL338223  16.900  26.260   5.880
 1593BOLB   GL438224  16.680  26.050   5.890
 1593BOLB   C1C38225  17.220  26.100   6.090
 1593BOLB   C2C38226  17.170  25.760   6.420
 1593BOLB   C3C38227  17.230  25.360   6.540
 1593BOLB   C4C38228  17.160  24.960   6.330
 1593BOLB   C1D38229  16.760  25.650   6.120
 1593BOLB   C2D38230  17.090  25.420   5.980
 1593BOLB   C3D38231  17.480  25.480   5.750
 1593BOLB   C4D38232  17.830  25.630   5.400
 1594BOLB   NC138233  12.640  14.870   5.040
 1594BOLB   PO138234  12.410  15.230   5.080
 1594BOLB   GL138235  12.220  15.380   4.650
 1594BOLB   GL238236  12.300  15.730   4.580
 1594BOLB   C1A38237  12.100  15.340   4.320
 1594BOLB   C2A38238  12.220  15.080   3.960
 1594BOLB   C3A38239  12.280  14.870   3.580
 1594BOLB   C4A38240  12.010  14.870   3.280
 1594BOLB   C1B38241  11.990  15.850   4.310
 1594BOLB   C2B38242  11.810  15.530   3.960
 1594BOLB   C3B38243  11.750  15.160   4.020
 1594BOLB   C4B38244  11.940  14.790   4.310
 1594BOLB   NC238245  11.340  15.810   0.860
 1594BOLB   PO238246  11.030  15.530   1.030
 1594BOLB   GL338247  11.300  15.430   1.340
 1594BOLB   GL438248  11.480  15.250   1.340
 1594BOLB   C1C38249  11.610  15.510   1.740
 1594BOLB   C2C38250  11.730  15.080   2.030
 1594BOLB   C3C38251  11.780  14.850   2.520
 1594BOLB   C4C38252  11.730  14.710   2.920
 1594BOLB   C1D38253  11.780  14.930   1.470
 1594BOLB   C2D38254  11.720  14.540   1.890
 1594BOLB   C3D38255  11.860  14.320   2.200
 1594BOLB   C4D38256  12.110  14.000   2.290
 1595BOLB   NC138257  19.860  24.690  13.690
 1595BOLB   PO138258  20.170  24.770  13.960
 1595BOLB   GL138259  20.090  25.050  13.510
 1595BOLB   GL238260  20.350  24.980  13.250
 1595BOLB   C1A38261  20.390  25.460  13.400
 1595BOLB   C2A38262  20.490  25.780  13.160
 1595BOLB   C3A38263  20.540  26.240  13.040
 1595BOLB   C4A38264  20.820  26.580  12.950
 1595BOLB   C1B38265  20.210  25.310  12.930
 1595BOLB   C2B38266  19.960  25.600  12.820
 1595BOLB   C3B38267  19.660  25.830  12.540
 1595BOLB   C4B38268  19.260  25.850  12.260
 1595BOLB   NC238269  21.220  28.250  12.360
 1595BOLB   PO238270  21.650  28.350  12.700
 1595BOLB   GL338271  21.690  27.990  12.720
 1595BOLB   GL438272  22.000  27.820  12.960
 1595BOLB   C1C38273  21.570  27.580  12.830
 1595BOLB   C2C38274  21.490  27.260  13.180
 1595BOLB   C3C38275  21.440  26.840  13.370
 1595BOLB   C4C38276  21.240  26.610  13.060
 1595BOLB   C1D38277  21.910  27.620  13.360
 1595BOLB   C2D38278  21.930  27.280  13.390
 1595BOLB   C3D38279  21.920  26.810  13.410
 1595BOLB   C4D38280  21.850  26.500  13.790
 1596BOLB   NC138281  13.050  21.350   6.930
 1596BOLB   PO138282  12.760  21.020   7.070
 1596BOLB   GL138283  12.590  21.480   6.870
 1596BOLB   GL238284  12.720  21.570   6.620
 1596BOLB   C1A38285  12.370  21.810   6.950
 1596BOLB   C2A38286  12.200  22.200   6.800
 1596BOLB   C3A38287  11.900  22.590   6.760
 1596BOLB   C4A38288  11.740  22.940   6.790
 1596BOLB   C1B38289  12.370  21.760   6.470
 1596BOLB   C2B38290  11.910  21.970   6.490
 1596BOLB   C3B38291  11.660  22.260   6.260
 1596BOLB   C4B38292  11.620  22.330   5.770
 1596BOLB   NC238293  10.600  25.270   5.780
 1596BOLB   PO238294  10.390  24.910   5.830
 1596BOLB   GL338295  10.810  24.670   5.830
 1596BOLB   GL438296  11.110  24.750   5.650
 1596BOLB   C1C38297  10.850  24.150   5.960
 1596BOLB   C2C38298  11.030  23.800   6.160
 1596BOLB   C3C38299  11.350  23.610   6.390
 1596BOLB   C4C38300  11.560  23.350   6.510
 1596BOLB   C1D38301  10.950  24.280   5.510
 1596BOLB   C2D38302  10.890  23.840   5.610
 1596BOLB   C3D38303  10.930  23.390   5.870
 1596BOLB   C4D38304  11.040  23.040   6.140
 1597BOLB   NC138305  13.080  23.740  17.130
 1597BOLB   PO138306  13.050  24.090  16.990
 1597BOLB   GL138307  13.040  24.470  17.120
 1597BOLB   GL238308  13.110  24.860  17.110
 1597BOLB   C1A38309  12.850  24.660  17.470
 1597BOLB   C2A38310  12.860  24.780  17.890
 1597BOLB   C3A38311  12.620  25.070  18.200
 1597BOLB   C4A38312  12.420  25.290  18.410
 1597BOLB   C1B38313  12.770  25.010  17.110
 1597BOLB   C2B38314  12.440  25.100  17.450
 1597BOLB   C3B38315  12.030  25.280  17.580
 1597BOLB   C4B38316  11.610  25.220  17.730
 1597BOLB   NC238317  11.030  27.120  17.670
 1597BOLB   PO238318  11.300  27.090  18.040
 1597BOLB   GL338319  11.600  26.700  18.160
 1597BOLB   GL438320  11.820  26.490  18.010
 1597BOLB   C1C38321  11.640  26.340  18.510
 1597BOLB   C2C38322  11.620  25.940  18.660
 1597BOLB   C3C38323  11.740  25.710  18.460
 1597BOLB   C4C38324  12.080  25.420  18.530
 1597BOLB   C1D38325  12.090  26.110  17.880
 1597BOLB   C2D38326  12.600  26.100  17.810
 1597BOLB   C3D38327  12.900  25.920  18.060
 1597BOLB   C4D38328  13.130  25.630  17.940
 1598BOLB   NC138329  18.640  24.800  13.690
 1598BOLB   PO138330  18.570  25.260  13.570
 1598BOLB   GL138331  18.880  25.570  13.780
 1598BOLB   GL238332  18.720  25.820  13.790
 1598BOLB   C1A38333  19.160  25.730  14.060
 1598BOLB   C2A38334  19.370  26.100  14.030
 1598BOLB   C3A38335  19.590  26.500  13.960
 1598BOLB   C4A38336  19.980  26.780  14.020
 1598BOLB   C1B38337  18.840  26.180  13.710
 1598BOLB   C2B38338  18.820  26.530  13.740
 1598BOLB   C3B38339  18.810  26.900  13.800
 1598BOLB   C4B38340  18.960  27.240  14.030
 1598BOLB   NC238341  22.020  28.320  13.840
 1598BOLB   PO238342  21.670  28.580  13.660
 1598BOLB   GL338343  21.390  28.200  13.480
 1598BOLB   GL438344  21.520  27.950  13.210
 1598BOLB   C1C38345  20.990  27.930  13.300
 1598BOLB   C2C38346  20.810  27.460  13.380
 1598BOLB   C3C38347  20.640  27.240  13.720
 1598BOLB   C4C38348  20.350  27.040  14.030
 1598BOLB   C1D38349  21.450  27.660  13.440
 1598BOLB   C2D38350  21.200  27.260  13.690
 1598BOLB   C3D38351  21.310  27.010  14.180
 1598BOLB   C4D38352  21.170  26.570  14.210
 1599BOLB   NC138353  16.540  18.290   4.010
 1599BOLB   PO138354  16.850  18.370   4.180
 1599BOLB   GL138355  16.920  18.300   3.670
 1599BOLB   GL238356  16.640  18.170   3.490
 1599BOLB   C1A38357  17.250  18.030   3.420
 1599BOLB   C2A38358  17.560  18.030   3.170
 1599BOLB   C3A38359  17.670  18.440   2.990
 1599BOLB   C4A38360  17.770  18.500   2.510
 1599BOLB   C1B38361  16.780  18.280   3.080
 1599BOLB   C2B38362  16.750  18.640   2.950
 1599BOLB   C3B38363  16.750  19.120   2.850
 1599BOLB   C4B38364  16.530  19.540   2.670
 1599BOLB   NC238365  18.170  18.220   0.270
 1599BOLB   PO238366  17.960  18.570   0.140
 1599BOLB   GL338367  17.870  18.640   0.590
 1599BOLB   GL438368  17.880  18.890   0.810
 1599BOLB   C1C38369  17.850  18.410   1.030
 1599BOLB   C2C38370  17.560  18.480   1.370
 1599BOLB   C3C38371  17.540  18.520   1.780
 1599BOLB   C4C38372  17.750  18.460   2.090
 1599BOLB   C1D38373  17.920  18.860   1.210
 1599BOLB   C2D38374  17.980  18.530   1.580
 1599BOLB   C3D38375  18.250  18.580   2.000
 1599BOLB   C4D38376  18.240  18.430   2.400
 1600BOLB   NC138377  16.210  24.680  14.950
 1600BOLB   PO138378  16.060  25.200  15.030
 1600BOLB   GL138379  16.020  25.700  15.140
 1600BOLB   GL238380  16.010  25.740  15.500
 1600BOLB   C1A38381  15.970  26.130  15.190
 1600BOLB   C2A38382  15.850  26.560  15.280
 1600BOLB   C3A38383  15.950  26.970  15.490
 1600BOLB   C4A38384  15.830  27.490  15.430
 1600BOLB   C1B38385  15.810  26.170  15.720
 1600BOLB   C2B38386  15.690  26.470  15.890
 1600BOLB   C3B38387  15.860  26.820  16.160
 1600BOLB   C4B38388  15.760  27.080  16.440
 1600BOLB   NC238389  16.750  30.140  17.050
 1600BOLB   PO238390  16.420  29.870  16.720
 1600BOLB   GL338391  16.300  29.440  16.590
 1600BOLB   GL438392  16.290  29.160  16.860
 1600BOLB   C1C38393  16.230  29.040  16.380
 1600BOLB   C2C38394  16.170  28.580  16.200
 1600BOLB   C3C38395  15.820  28.310  15.990
 1600BOLB   C4C38396  15.780  27.900  15.670
 1600BOLB   C1D38397  16.080  28.750  16.790
 1600BOLB   C2D38398  16.050  28.270  16.660
 1600BOLB   C3D38399  15.820  27.940  16.630
 1600BOLB   C4D38400  15.580  27.590  16.540
 1601BOLB   NC138401   9.090  21.140  12.010
 1601BOLB   PO138402   8.780  20.770  12.000
 1601BOLB   GL138403   8.480  20.840  12.140
 1601BOLB   GL238404   8.500  20.820  12.400
 1601BOLB   C1A38405   8.170  21.250  12.120
 1601BOLB   C2A38406   7.890  21.520  12.050
 1601BOLB   C3A38407   7.480  21.640  12.010
 1601BOLB   C4A38408   7.140  21.800  11.860
 1601BOLB   C1B38409   8.030  20.820  12.320
 1601BOLB   C2B38410   7.570  20.700  12.410
 1601BOLB   C3B38411   7.180  20.690  12.300
 1601BOLB   C4B38412   6.810  20.760  12.310
 1601BOLB   NC238413   5.010  22.110  10.810
 1601BOLB   PO238414   5.160  22.120  10.350
 1601BOLB   GL338415   5.540  21.910  10.560
 1601BOLB   GL438416   5.550  21.470  10.560
 1601BOLB   C1C38417   5.870  21.800  10.800
 1601BOLB   C2C38418   6.130  21.580  11.070
 1601BOLB   C3C38419   6.470  21.540  11.370
 1601BOLB   C4C38420   6.770  21.570  11.720
 1601BOLB   C1D38421   6.010  21.360  10.540
 1601BOLB   C2D38422   6.420  21.330  10.690
 1601BOLB   C3D38423   6.770  21.090  10.840
 1601BOLB   C4D38424   7.090  21.290  10.660
 1602BOLB   NC138425  21.770  12.500   8.180
 1602BOLB   PO138426  22.130  12.460   8.470
 1602BOLB   GL138427  22.560  12.400   8.390
 1602BOLB   GL238428  22.800  12.660   8.190
 1602BOLB   C1A38429  22.720  12.200   8.160
 1602BOLB   C2A38430  22.950  11.910   7.950
 1602BOLB   C3A38431  23.390  11.800   7.770
 1602BOLB   C4A38432  23.730  11.730   7.500
 1602BOLB   C1B38433  23.110  12.540   7.980
 1602BOLB   C2B38434  23.390  12.310   7.810
 1602BOLB   C3B38435  23.680  12.150   8.050
 1602BOLB   C4B38436  23.670  11.780   8.220
 1602BOLB   NC238437  25.310  11.380   6.050
 1602BOLB   PO238438  25.560  11.800   5.960
 1602BOLB   GL338439  25.200  12.040   6.170
 1602BOLB   GL438440  25.280  12.150   6.450
 1602BOLB   C1C38441  24.760  12.110   6.350
 1602BOLB   C2C38442  24.510  12.210   6.630
 1602BOLB   C3C38443  24.200  12.130   6.940
 1602BOLB   C4C38444  23.980  11.730   7.160
 1602BOLB   C1D38445  25.230  12.510   6.470
 1602BOLB   C2D38446  24.870  12.770   6.380
 1602BOLB   C3D38447  24.610  12.980   6.680
 1602BOLB   C4D38448  24.190  13.100   6.740
 1603BOLB   NC138449  17.270  20.810   5.910
 1603BOLB   PO138450  17.590  20.970   6.240
 1603BOLB   GL138451  17.720  21.100   5.860
 1603BOLB   GL238452  17.720  21.360   5.810
 1603BOLB   C1A38453  17.730  21.080   5.400
 1603BOLB   C2A38454  18.010  21.080   5.050
 1603BOLB   C3A38455  18.030  21.110   4.550
 1603BOLB   C4A38456  18.310  21.420   4.230
 1603BOLB   C1B38457  17.710  21.750   5.560
 1603BOLB   C2B38458  17.680  22.060   5.260
 1603BOLB   C3B38459  17.560  22.180   4.810
 1603BOLB   C4B38460  17.600  22.010   4.440
 1603BOLB   NC238461  18.320  23.150   2.090
 1603BOLB   PO238462  18.420  22.830   2.440
 1603BOLB   GL338463  18.200  22.520   2.710
 1603BOLB   GL438464  17.860  22.460   2.700
 1603BOLB   C1C38465  18.280  22.180   2.830
 1603BOLB   C2C38466  18.310  21.870   3.060
 1603BOLB   C3C38467  18.280  21.630   3.460
 1603BOLB   C4C38468  18.240  21.520   3.830
 1603BOLB   C1D38469  17.830  22.180   3.030
 1603BOLB   C2D38470  17.760  22.040   3.250
 1603BOLB   C3D38471  17.840  21.580   3.280
 1603BOLB   C4D38472  17.710  21.280   3.660
 1604BOLB   NC138473  13.510  24.450  14.390
 1604BOLB   PO138474  13.260  24.880  14.300
 1604BOLB   GL138475  13.090  25.250  14.220
 1604BOLB   GL238476  13.180  25.540  14.460
 1604BOLB   C1A38477  12.780  25.530  14.170
 1604BOLB   C2A38478  12.550  25.940  14.110
 1604BOLB   C3A38479  12.250  26.240  14.030
 1604BOLB   C4A38480  12.000  26.620  14.000
 1604BOLB   C1B38481  13.010  25.880  14.650
 1604BOLB   C2B38482  12.960  26.330  14.790
 1604BOLB   C3B38483  12.760  26.620  15.000
 1604BOLB   C4B38484  12.330  26.750  15.270
 1604BOLB   NC238485  12.040  28.690  14.090
 1604BOLB   PO238486  11.770  28.680  14.380
 1604BOLB   GL338487  11.530  28.280  14.290
 1604BOLB   GL438488  11.730  28.030  14.260
 1604BOLB   C1C38489  11.350  27.830  14.050
 1604BOLB   C2C38490  11.350  27.460  13.930
 1604BOLB   C3C38491  11.430  27.150  13.860
 1604BOLB   C4C38492  11.750  26.810  13.850
 1604BOLB   C1D38493  12.150  27.760  14.300
 1604BOLB   C2D38494  12.590  27.580  14.300
 1604BOLB   C3D38495  12.770  27.170  14.370
 1604BOLB   C4D38496  12.940  26.880  14.620
 1605BOLB   NC138497   9.230  21.340  14.250
 1605BOLB   PO138498   9.350  21.740  14.500
 1605BOLB   GL138499   9.190  21.900  14.760
 1605BOLB   GL238500   9.170  22.250  14.830
 1605BOLB   C1A38501   8.850  21.880  14.990
 1605BOLB   C2A38502   8.450  21.910  14.950
 1605BOLB   C3A38503   8.070  22.150  14.950
 1605BOLB   C4A38504   8.010  22.540  14.970
 1605BOLB   C1B38505   8.700  22.110  14.540
 1605BOLB   C2B38506   8.330  22.360  14.670
 1605BOLB   C3B38507   8.220  22.790  14.550
 1605BOLB   C4B38508   7.810  22.980  14.410
 1605BOLB   NC238509   6.790  24.680  14.480
 1605BOLB   PO238510   6.760  24.480  14.930
 1605BOLB   GL338511   7.060  24.230  14.780
 1605BOLB   GL438512   7.010  24.060  15.010
 1605BOLB   C1C38513   7.450  23.900  14.660
 1605BOLB   C2C38514   7.530  23.540  14.870
 1605BOLB   C3C38515   7.700  23.290  15.070
 1605BOLB   C4C38516   7.780  22.930  14.890
 1605BOLB   C1D38517   6.930  23.670  14.880
 1605BOLB   C2D38518   6.780  23.300  14.980
 1605BOLB   C3D38519   6.820  23.040  15.250
 1605BOLB   C4D38520   6.990  22.610  15.560
 1606BOLB   NC138521   8.950  14.280   8.960
 1606BOLB   PO138522   9.160  13.880   8.750
 1606BOLB   GL138523   8.920  13.580   8.510
 1606BOLB   GL238524   8.920  13.440   8.230
 1606BOLB   C1A38525   8.680  13.040   8.430
 1606BOLB   C2A38526   8.320  12.700   8.270
 1606BOLB   C3A38527   7.870  12.740   8.390
 1606BOLB   C4A38528   7.460  12.800   8.440
 1606BOLB   C1B38529   8.580  13.320   7.940
 1606BOLB   C2B38530   8.420  13.130   7.660
 1606BOLB   C3B38531   8.300  12.960   7.270
 1606BOLB   C4B38532   7.880  12.980   7.070
 1606BOLB   NC238533   6.460  12.130   6.190
 1606BOLB   PO238534   6.270  12.250   6.660
 1606BOLB   GL338535   6.570  12.470   6.770
 1606BOLB   GL438536   6.840  12.360   6.490
 1606BOLB   C1C38537   6.740  12.450   7.290
 1606BOLB   C2C38538   6.530  12.470   7.700
 1606BOLB   C3C38539   6.810  12.500   8.130
 1606BOLB   C4C38540   7.040  12.640   8.390
 1606BOLB   C1D38541   6.800  12.820   6.370
 1606BOLB   C2D38542   7.010  13.240   6.620
 1606BOLB   C3D38543   7.170  13.570   6.730
 1606BOLB   C4D38544   7.610  13.630   6.720
 1607BOLB   NC138545   5.610   6.950  14.110
 1607BOLB   PO138546   5.780   6.790  13.800
 1607BOLB   GL138547   5.990   7.070  13.780
 1607BOLB   GL238548   5.830   7.360  13.820
 1607BOLB   C1A38549   6.220   7.340  14.050
 1607BOLB   C2A38550   6.060   7.530  14.410
 1607BOLB   C3A38551   5.930   7.750  14.710
 1607BOLB   C4A38552   5.950   7.890  15.160
 1607BOLB   C1B38553   5.750   7.740  14.060
 1607BOLB   C2B38554   5.550   7.930  14.450
 1607BOLB   C3B38555   5.350   8.340  14.590
 1607BOLB   C4B38556   5.300   8.690  14.250
 1607BOLB   NC238557   5.720   6.670  17.470
 1607BOLB   PO238558   5.840   6.990  17.200
 1607BOLB   GL338559   6.130   7.120  16.860
 1607BOLB   GL438560   6.250   7.380  17.090
 1607BOLB   C1C38561   6.220   7.170  16.450
 1607BOLB   C2C38562   6.430   7.450  16.180
 1607BOLB   C3C38563   6.220   7.710  15.950
 1607BOLB   C4C38564   5.870   7.910  15.640
 1607BOLB   C1D38565   6.130   7.770  17.030
 1607BOLB   C2D38566   5.810   8.080  17.170
 1607BOLB   C3D38567   5.750   8.510  17.350
 1607BOLB   C4D38568   5.700   8.690  17.800
 1608BOLB   NC138569  11.170  14.230   6.330
 1608BOLB   PO138570  10.930  14.410   6.670
 1608BOLB   GL138571  10.510  14.310   6.550
 1608BOLB   GL238572  10.350  14.480   6.280
 1608BOLB   C1A38573  10.030  14.110   6.470
 1608BOLB   C2A38574   9.660  14.090   6.290
 1608BOLB   C3A38575   9.370  14.040   6.010
 1608BOLB   C4A38576   9.210  13.970   5.690
 1608BOLB   C1B38577   9.910  14.500   6.150
 1608BOLB   C2B38578   9.520  14.540   5.910
 1608BOLB   C3B38579   9.240  14.450   5.590
 1608BOLB   C4B38580   8.900  14.750   5.560
 1608BOLB   NC238581   7.450  13.510   3.510
 1608BOLB   PO238582   7.860  13.570   3.760
 1608BOLB   GL338583   8.210  13.780   4.000
 1608BOLB   GL438584   8.310  13.400   4.090
 1608BOLB   C1C38585   8.490  13.830   4.290
 1608BOLB   C2C38586   8.880  13.780   4.450
 1608BOLB   C3C38587   9.050  13.740   4.850
 1608BOLB   C4C38588   9.030  13.760   5.340
 1608BOLB   C1D38589   8.630  13.520   3.800
 1608BOLB   C2D38590   8.990  13.740   3.880
 1608BOLB   C3D38591   9.280  13.960   3.630
 1608BOLB   C4D38592   9.650  14.150   3.640
 1609BOLB   NC138593   2.890  12.500  19.170
 1609BOLB   PO138594   2.820  12.990  19.170
 1609BOLB   GL138595   3.230  12.980  19.310
 1609BOLB   GL238596   3.270  12.970  19.620
 1609BOLB   C1A38597   3.630  12.820  19.110
 1609BOLB   C2A38598   4.000  12.820  18.910
 1609BOLB   C3A38599   4.340  13.050  19.060
 1609BOLB   C4A38600   4.590  13.450  18.930
 1609BOLB   C1B38601   3.700  13.060  19.540
 1609BOLB   C2B38602   3.930  13.310  19.740
 1609BOLB   C3B38603   4.270  13.380  19.980
 1609BOLB   C4B38604   4.430  13.260  20.350
 1609BOLB   NC238605   2.610  14.140  19.140
 1609BOLB   PO238606   2.720  13.850  19.270
 1609BOLB   GL338607   2.910  13.980  18.810
 1609BOLB   GL438608   2.740  13.940  18.540
 1609BOLB   C1C38609   3.340  14.060  18.710
 1609BOLB   C2C38610   3.700  14.270  18.650
 1609BOLB   C3C38611   4.180  14.230  18.700
 1609BOLB   C4C38612   4.400  13.830  18.680
 1609BOLB   C1D38613   3.050  13.900  18.320
 1609BOLB   C2D38614   3.490  14.020  18.200
 1609BOLB   C3D38615   3.620  14.160  17.730
 1609BOLB   C4D38616   3.670  14.330  17.300
 1610BOLB   NC138617  16.990   4.400  10.200
 1610BOLB   PO138618  17.320   4.740  10.390
 1610BOLB   GL138619  17.200   5.110  10.400
 1610BOLB   GL238620  17.080   5.160  10.120
 1610BOLB   C1A38621  17.220   5.510  10.570
 1610BOLB   C2A38622  17.360   5.870  10.660
 1610BOLB   C3A38623  17.270   6.350  10.710
 1610BOLB   C4A38624  17.390   6.690  10.980
 1610BOLB   C1B38625  17.290   5.450   9.930
 1610BOLB   C2B38626  17.530   5.610  10.220
 1610BOLB   C3B38627  17.740   5.980  10.320
 1610BOLB   C4B38628  18.180   6.070  10.510
 1610BOLB   NC238629  17.960   8.990  11.980
 1610BOLB   PO238630  17.600   8.770  11.930
 1610BOLB   GL338631  17.640   8.410  11.980
 1610BOLB   GL438632  17.310   8.400  11.670
 1610BOLB   C1C38633  17.460   8.050  11.960
 1610BOLB   C2C38634  17.330   7.740  11.690
 1610BOLB   C3C38635  17.510   7.410  11.420
 1610BOLB   C4C38636  17.450   6.970  11.280
 1610BOLB   C1D38637  17.190   8.140  11.400
 1610BOLB   C2D38638  17.080   7.690  11.310
 1610BOLB   C3D38639  17.010   7.290  11.220
 1610BOLB   C4D38640  16.900   6.870  11.090
 1611BOLB   NC138641  22.860  20.130  15.310
 1611BOLB   PO138642  22.790  19.940  15.750
 1611BOLB   GL138643  23.130  20.190  15.880
 1611BOLB   GL238644  23.230  20.370  15.690
 1611BOLB   C1A38645  23.530  20.120  16.180
 1611BOLB   C2A38646  23.860  20.040  16.400
 1611BOLB   C3A38647  24.130  20.030  16.790
 1611BOLB   C4A38648  24.330  20.240  17.100
 1611BOLB   C1B38649  23.660  20.490  15.820
 1611BOLB   C2B38650  24.050  20.530  15.880
 1611BOLB   C3B38651  24.480  20.540  16.010
 1611BOLB   C4B38652  24.770  20.680  16.450
 1611BOLB   NC238653  25.510  21.500  18.770
 1611BOLB   PO238654  25.440  21.150  18.880
 1611BOLB   GL338655  25.140  20.930  18.640
 1611BOLB   GL438656  25.130  20.680  18.700
 1611BOLB   C1C38657  25.010  21.020  18.310
 1611BOLB   C2C38658  24.930  20.710  18.070
 1611BOLB   C3C38659  24.700  20.460  17.850
 1611BOLB   C4C38660  24.660  20.450  17.380
 1611BOLB   C1D38661  24.650  20.760  18.640
 1611BOLB   C2D38662  24.500  20.770  18.230
 1611BOLB   C3D38663  24.240  20.470  17.940
 1611BOLB   C4D38664  23.830  20.440  17.790
 1612BOLB   NC138665   2.450  16.760  19.770
 1612BOLB   PO138666   2.450  16.290  19.840
 1612BOLB   GL138667   2.770  16.290  19.690
 1612BOLB   GL238668   2.890  16.060  19.710
 1612BOLB   C1A38669   3.170  16.370  19.490
 1612BOLB   C2A38670   3.290  16.600  19.040
 1612BOLB   C3A38671   3.470  16.810  18.630
 1612BOLB   C4A38672   3.350  16.940  18.170
 1612BOLB   C1B38673   3.200  15.810  19.740
 1612BOLB   C2B38674   3.620  15.900  19.570
 1612BOLB   C3B38675   3.860  15.650  19.360
 1612BOLB   C4B38676   4.080  15.560  18.880
 1612BOLB   NC238677   1.580  16.280  18.690
 1612BOLB   PO238678   1.580  16.240  18.170
 1612BOLB   GL338679   1.780  16.500  17.940
 1612BOLB   GL438680   1.870  16.770  18.100
 1612BOLB   C1C38681   1.930  16.680  17.560
 1612BOLB   C2C38682   2.320  16.680  17.460
 1612BOLB   C3C38683   2.720  16.830  17.620
 1612BOLB   C4C38684   2.970  17.080  17.940
 1612BOLB   C1D38685   2.280  16.590  17.930
 1612BOLB   C2D38686   2.550  16.370  17.770
 1612BOLB   C3D38687   2.940  16.180  17.510
 1612BOLB   C4D38688   3.190  15.860  17.400
 1613BOLB   NC138689  19.060  16.570   4.290
 1613BOLB   PO138690  19.260  16.980   4.450
 1613BOLB   GL138691  19.480  16.950   4.110
 1613BOLB   GL238692  19.750  16.890   4.290
 1613BOLB   C1A38693  19.560  17.020   3.720
 1613BOLB   C2A38694  19.440  17.150   3.360
 1613BOLB   C3A38695  19.480  17.510   3.000
 1613BOLB   C4A38696  19.560  17.650   2.700
 1613BOLB   C1B38697  19.980  17.070   4.020
 1613BOLB   C2B38698  20.050  17.160   3.570
 1613BOLB   C3B38699  19.900  17.280   3.180
 1613BOLB   C4B38700  19.930  17.390   2.750
 1613BOLB   NC238701  20.790  18.860   1.010
 1613BOLB   PO238702  20.810  18.480   0.770
 1613BOLB   GL338703  20.510  18.340   1.000
 1613BOLB   GL438704  20.480  17.960   0.940
 1613BOLB   C1C38705  20.140  18.340   1.270
 1613BOLB   C2C38706  19.790  18.330   1.690
 1613BOLB   C3C38707  19.810  18.240   2.050
 1613BOLB   C4C38708  19.830  17.900   2.520
 1613BOLB   C1D38709  20.610  18.060   1.420
 1613BOLB   C2D38710  20.740  18.030   1.820
 1613BOLB   C3D38711  20.790  18.240   2.170
 1613BOLB   C4D38712  20.550  18.180   2.530
 1614BOLB   NC138713  12.950   5.390   8.190
 1614BOLB   PO138714  13.430   5.470   8.170
 1614BOLB   GL138715  13.300   5.930   8.320
 1614BOLB   GL238716  13.140   6.050   8.110
 1614BOLB   C1A38717  13.740   6.080   8.460
 1614BOLB   C2A38718  13.760   6.540   8.740
 1614BOLB   C3A38719  13.640   6.960   9.020
 1614BOLB   C4A38720  13.340   6.950   9.390
 1614BOLB   C1B38721  13.360   6.460   8.270
 1614BOLB   C2B38722  13.010   6.770   8.260
 1614BOLB   C3B38723  12.790   7.010   8.600
 1614BOLB   C4B38724  12.540   7.170   8.780
 1614BOLB   NC238725  12.550   5.070   9.860
 1614BOLB   PO238726  12.810   5.210   9.530
 1614BOLB   GL338727  12.570   5.560   9.590
 1614BOLB   GL438728  12.860   5.720   9.730
 1614BOLB   C1C38729  12.340   5.940   9.680
 1614BOLB   C2C38730  12.330   6.390   9.840
 1614BOLB   C3C38731  12.590   6.730   9.670
 1614BOLB   C4C38732  12.850   6.950   9.470
 1614BOLB   C1D38733  13.210   5.800   9.840
 1614BOLB   C2D38734  13.610   6.000   9.900
 1614BOLB   C3D38735  14.010   5.870   9.640
 1614BOLB   C4D38736  14.360   5.690   9.670
 1615BOLB   NC138737  10.770  10.610   8.820
 1615BOLB   PO138738  10.540  11.000   8.630
 1615BOLB   GL138739  10.280  10.850   8.580
 1615BOLB   GL238740  10.280  10.580   8.570
 1615BOLB   C1A38741   9.870  10.780   8.360
 1615BOLB   C2A38742   9.550  10.740   8.100
 1615BOLB   C3A38743   9.290  10.930   7.730
 1615BOLB   C4A38744   9.260  11.010   7.280
 1615BOLB   C1B38745  10.250  10.140   8.620
 1615BOLB   C2B38746  10.060   9.690   8.720
 1615BOLB   C3B38747   9.750   9.300   8.700
 1615BOLB   C4B38748   9.550   8.940   8.690
 1615BOLB   NC238749   7.980   9.740   5.910
 1615BOLB   PO238750   7.950  10.020   6.240
 1615BOLB   GL338751   8.200  10.330   6.290
 1615BOLB   GL438752   8.050  10.540   6.180
 1615BOLB   C1C38753   8.490  10.710   6.300
 1615BOLB   C2C38754   8.800  10.860   6.550
 1615BOLB   C3C38755   9.160  10.750   6.650
 1615BOLB   C4C38756   9.360  10.910   6.840
 1615BOLB   C1D38757   8.080  10.930   6.190
 1615BOLB   C2D38758   7.920  11.150   6.580
 1615BOLB   C3D38759   8.060  11.240   7.010
 1615BOLB   C4D38760   8.300  11.320   7.370
 1616BOLB   NC138761   5.880  14.180  24.420
 1616BOLB   PO138762   6.340  14.250  24.340
 1616BOLB   GL138763   6.640  14.280  24.110
 1616BOLB   GL238764   6.750  14.020  24.000
 1616BOLB   C1A38765   6.850  14.740  24.070
 1616BOLB   C2A38766   7.160  15.060  23.960
 1616BOLB   C3A38767   7.590  15.310  23.850
 1616BOLB   C4A38768   8.010  15.490  23.880
 1616BOLB   C1B38769   7.060  14.190  23.680
 1616BOLB   C2B38770   7.310  14.180  23.420
 1616BOLB   C3B38771   7.640  14.470  23.360
 1616BOLB   C4B38772   7.970  14.780  23.190
 1616BOLB   NC238773   8.330  15.610  26.390
 1616BOLB   PO238774   8.170  15.520  26.050
 1616BOLB   GL338775   8.050  15.830  25.740
 1616BOLB   GL438776   8.050  16.180  25.870
 1616BOLB   C1C38777   8.250  15.780  25.310
 1616BOLB   C2C38778   8.350  15.900  24.880
 1616BOLB   C3C38779   8.370  15.920  24.450
 1616BOLB   C4C38780   8.190  15.660  24.130
 1616BOLB   C1D38781   7.910  16.420  25.450
 1616BOLB   C2D38782   8.110  16.760  25.150
 1616BOLB   C3D38783   8.220  16.950  24.760
 1616BOLB   C4D38784   8.330  17.270  24.500
 1617BOLB   NC138785  15.200  20.590   5.540
 1617BOLB   PO138786  14.840  20.520   5.830
 1617BOLB   GL138787  14.780  20.640   5.320
 1617BOLB   GL238788  14.440  20.630   5.390
 1617BOLB   C1A38789  14.930  20.880   4.920
 1617BOLB   C2A38790  15.040  20.990   4.520
 1617BOLB   C3A38791  15.000  21.070   4.140
 1617BOLB   C4A38792  14.860  21.270   3.880
 1617BOLB   C1B38793  14.200  20.740   5.090
 1617BOLB   C2B38794  13.920  21.020   4.860
 1617BOLB   C3B38795  13.860  21.430   4.730
 1617BOLB   C4B38796  13.770  21.850   4.570
 1617BOLB   NC238797  13.900  21.660   1.240
 1617BOLB   PO238798  14.100  21.690   1.640
 1617BOLB   GL338799  14.330  21.450   1.970
 1617BOLB   GL438800  14.650  21.470   2.000
 1617BOLB   C1C38801  14.360  21.560   2.420
 1617BOLB   C2C38802  14.500  21.370   2.810
 1617BOLB   C3C38803  14.580  21.400   3.280
 1617BOLB   C4C38804  14.570  21.400   3.700
 1617BOLB   C1D38805  14.590  21.140   2.380
 1617BOLB   C2D38806  14.880  21.080   2.700
 1617BOLB   C3D38807  15.040  20.780   2.970
 1617BOLB   C4D38808  15.050  20.380   2.900
 1618BOLB   NC138809  15.170  25.490  13.620
 1618BOLB   PO138810  15.350  25.600  13.980
 1618BOLB   GL138811  15.190  25.950  13.780
 1618BOLB   GL238812  15.390  26.050  14.000
 1618BOLB   C1A38813  15.090  26.280  13.620
 1618BOLB   C2A38814  14.950  26.690  13.700
 1618BOLB   C3A38815  14.670  27.020  13.760
 1618BOLB   C4A38816  14.420  27.200  13.960
 1618BOLB   C1B38817  15.410  26.470  13.970
 1618BOLB   C2B38818  15.330  26.820  13.990
 1618BOLB   C3B38819  15.300  27.190  14.150
 1618BOLB   C4B38820  15.290  27.610  14.300
 1618BOLB   NC238821  14.990  29.760  14.180
 1618BOLB   PO238822  15.030  29.520  14.580
 1618BOLB   GL338823  15.100  29.030  14.410
 1618BOLB   GL438824  15.270  28.990  14.730
 1618BOLB   C1C38825  15.000  28.610  14.420
 1618BOLB   C2C38826  14.730  28.250  14.250
 1618BOLB   C3C38827  14.730  27.840  14.270
 1618BOLB   C4C38828  14.390  27.590  14.200
 1618BOLB   C1D38829  15.350  28.600  14.810
 1618BOLB   C2D38830  15.190  28.320  15.060
 1618BOLB   C3D38831  14.990  28.010  15.100
 1618BOLB   C4D38832  15.200  27.620  14.900
 1619BOLB   NC138833  13.160  14.060   4.570
 1619BOLB   PO138834  12.990  13.880   4.920
 1619BOLB   GL138835  13.020  13.600   4.630
 1619BOLB   GL238836  13.070  13.230   4.560
 1619BOLB   C1A38837  12.830  13.580   4.200
 1619BOLB   C2A38838  12.730  13.340   3.870
 1619BOLB   C3A38839  12.840  13.150   3.580
 1619BOLB   C4A38840  12.930  13.040   3.280
 1619BOLB   C1B38841  12.830  13.060   4.250
 1619BOLB   C2B38842  12.700  12.840   3.920
 1619BOLB   C3B38843  12.780  12.560   3.670
 1619BOLB   C4B38844  13.050  12.390   3.330
 1619BOLB   NC238845  12.120  12.220   1.090
 1619BOLB   PO238846  12.120  12.620   1.130
 1619BOLB   GL338847  12.160  12.840   1.470
 1619BOLB   GL438848  11.760  13.030   1.530
 1619BOLB   C1C38849  12.350  13.170   1.800
 1619BOLB   C2C38850  12.430  13.200   2.250
 1619BOLB   C3C38851  12.700  13.290   2.620
 1619BOLB   C4C38852  13.000  13.320   2.990
 1619BOLB   C1D38853  11.910  13.240   1.840
 1619BOLB   C2D38854  12.130  13.590   1.980
 1619BOLB   C3D38855  12.370  13.990   1.850
 1619BOLB   C4D38856  12.450  14.080   1.410
 1620BOLB   NC138857  10.810  23.100  13.250
 1620BOLB   PO138858  11.170  23.300  13.150
 1620BOLB   GL138859  10.930  23.720  12.840
 1620BOLB   GL238860  10.610  23.570  12.770
 1620BOLB   C1A38861  10.690  24.020  12.690
 1620BOLB   C2A38862  10.590  24.460  12.790
 1620BOLB   C3A38863  10.520  24.730  13.170
 1620BOLB   C4A38864  10.550  25.190  13.140
 1620BOLB   C1B38865  10.220  23.770  12.760
 1620BOLB   C2B38866   9.800  23.840  12.620
 1620BOLB   C3B38867   9.340  23.760  12.760
 1620BOLB   C4B38868   8.990  23.920  12.990
 1620BOLB   NC238869   8.940  27.060  13.550
 1620BOLB   PO238870   8.620  26.830  13.430
 1620BOLB   GL338871   8.810  26.410  13.380
 1620BOLB   GL438872   8.830  26.350  13.670
 1620BOLB   C1C38873   9.260  26.260  13.510
 1620BOLB   C2C38874   9.750  26.130  13.480
 1620BOLB   C3C38875  10.180  26.040  13.270
 1620BOLB   C4C38876  10.510  25.630  13.170
 1620BOLB   C1D38877   8.880  26.250  14.100
 1620BOLB   C2D38878   9.090  25.860  13.890
 1620BOLB   C3D38879   9.250  25.540  14.190
 1620BOLB   C4D38880   9.340  25.280  14.500
 1621BOLB   NC138881  19.990  23.770  16.670
 1621BOLB   PO138882  20.140  24.010  16.380
 1621BOLB   GL138883  20.540  24.230  16.340
 1621BOLB   GL238884  20.760  24.230  16.100
 1621BOLB   C1A38885  20.840  24.380  16.600
 1621BOLB   C2A38886  21.150  24.640  16.900
 1621BOLB   C3A38887  21.370  24.890  17.030
 1621BOLB   C4A38888  21.690  25.220  16.950
 1621BOLB   C1B38889  20.930  24.700  16.180
 1621BOLB   C2B38890  21.100  25.110  16.190
 1621BOLB   C3B38891  21.360  25.510  16.030
 1621BOLB   C4B38892  21.310  25.860  16.000
 1621BOLB   NC238893  23.940  25.610  17.630
 1621BOLB   PO238894  23.820  25.590  17.190
 1621BOLB   GL338895  23.420  25.350  17.040
 1621BOLB   GL438896  23.230  25.650  16.830
 1621BOLB   C1C38897  23.110  25.010  16.970
 1621BOLB   C2C38898  22.710  24.970  17.020
 1621BOLB   C3C38899  22.350  25.060  16.720
 1621BOLB   C4C38900  22.030  25.300  16.730
 1621BOLB   C1D38901  22.850  25.480  17.110
 1621BOLB   C2D38902  22.910  25.310  17.500
 1621BOLB   C3D38903  23.170  24.990  17.570
 1621BOLB   C4D38904  23.500  24.790  17.400
 1622BOLB   NC138905  20.440  14.640   1.080
 1622BOLB   PO138906  20.240  14.240   0.950
 1622BOLB   GL138907  19.980  14.470   1.250
 1622BOLB   GL238908  19.680  14.570   1.190
 1622BOLB   C1A38909  20.050  14.650   1.620
 1622BOLB   C2A38910  20.280  14.470   1.990
 1622BOLB   C3A38911  20.300  14.280   2.450
 1622BOLB   C4A38912  20.260  14.120   2.840
 1622BOLB   C1B38913  19.370  14.950   1.280
 1622BOLB   C2B38914  19.210  15.290   1.500
 1622BOLB   C3B38915  19.160  15.630   1.290
 1622BOLB   C4B38916  19.160  15.980   1.080
 1622BOLB   NC238917  19.430  15.380   5.400
 1622BOLB   PO238918  19.440  15.110   5.040
 1622BOLB   GL338919  19.470  14.770   4.760
 1622BOLB   GL438920  19.700  14.990   4.600
 1622BOLB   C1C38921  19.660  14.550   4.380
 1622BOLB   C2C38922  19.600  14.380   4.000
 1622BOLB   C3C38923  19.770  14.190   3.670
 1622BOLB   C4C38924  20.110  14.160   3.380
 1622BOLB   C1D38925  20.040  14.870   4.330
 1622BOLB   C2D38926  20.560  14.890   4.340
 1622BOLB   C3D38927  21.030  15.040   4.220
 1622BOLB   C4D38928  21.450  14.950   4.120
 1623BOLB   NC138929  26.280  22.610   6.430
 1623BOLB   PO138930  25.910  22.710   6.490
 1623BOLB   GL138931  25.570  22.660   6.670
 1623BOLB   GL238932  25.350  22.870   6.790
 1623BOLB   C1A38933  25.160  22.450   6.730
 1623BOLB   C2A38934  25.060  22.050   6.690
 1623BOLB   C3A38935  24.750  21.750   6.590
 1623BOLB   C4A38936  24.800  21.390   6.300
 1623BOLB   C1B38937  25.000  22.800   7.080
 1623BOLB   C2B38938  24.780  22.660   7.450
 1623BOLB   C3B38939  24.340  22.620   7.790
 1623BOLB   C4B38940  24.220  22.600   8.210
 1623BOLB   NC238941  25.950  20.490   4.480
 1623BOLB   PO238942  25.650  20.170   4.780
 1623BOLB   GL338943  25.440  20.090   5.140
 1623BOLB   GL438944  25.530  19.740   5.210
 1623BOLB   C1C38945  25.440  20.180   5.560
 1623BOLB   C2C38946  25.470  20.340   5.900
 1623BOLB   C3C38947  25.200  20.760   5.890
 1623BOLB   C4C38948  24.980  21.160   5.910
 1623BOLB   C1D38949  25.200  19.610   5.600
 1623BOLB   C2D38950  24.970  19.600   6.050
 1623BOLB   C3D38951  25.230  19.610   6.370
 1623BOLB   C4D38952  25.260  19.780   6.810
 1624BOLB   NC138953  11.740  23.390  12.140
 1624BOLB   PO138954  11.510  23.320  11.740
 1624BOLB   GL138955  11.150  23.360  11.410
 1624BOLB   GL238956  10.970  23.480  11.660
 1624BOLB   C1A38957  11.010  23.550  11.070
 1624BOLB   C2A38958  10.670  23.820  10.910
 1624BOLB   C3A38959  10.320  24.050  10.850
 1624BOLB   C4A38960  10.160  24.290  11.180
 1624BOLB   C1B38961  10.790  23.900  11.490
 1624BOLB   C2B38962  10.700  24.220  11.210
 1624BOLB   C3B38963  10.480  24.510  10.850
 1624BOLB   C4B38964  10.090  24.540  10.700
 1624BOLB   NC238965   8.910  26.870  11.040
 1624BOLB   PO238966   8.840  26.440  10.920
 1624BOLB   GL338967   9.150  26.200  10.860
 1624BOLB   GL438968   9.320  26.050  10.500
 1624BOLB   C1C38969   9.480  25.880  11.030
 1624BOLB   C2C38970   9.750  25.580  11.270
 1624BOLB   C3C38971  10.020  25.170  11.290
 1624BOLB   C4C38972  10.230  24.750  11.170
 1624BOLB   C1D38973   9.330  25.670  10.290
 1624BOLB   C2D38974   9.450  25.220  10.360
 1624BOLB   C3D38975   9.870  24.900  10.330
 1624BOLB   C4D38976  10.120  24.610  10.130
 1625BOLB   NC138977  13.460  19.730   5.500
 1625BOLB   PO138978  13.800  19.480   5.540
 1625BOLB   GL138979  13.930  19.490   5.150
 1625BOLB   GL238980  13.680  19.660   5.040
 1625BOLB   C1A38981  14.110  19.880   4.840
 1625BOLB   C2A38982  13.760  20.190   4.570
 1625BOLB   C3A38983  13.620  20.600   4.680
 1625BOLB   C4A38984  13.530  21.040   4.500
 1625BOLB   C1B38985  13.770  19.620   4.550
 1625BOLB   C2B38986  13.760  19.870   4.160
 1625BOLB   C3B38987  13.710  20.170   3.820
 1625BOLB   C4B38988  13.500  20.320   3.570
 1625BOLB   NC238989  12.750  22.030   2.470
 1625BOLB   PO238990  12.360  22.180   2.600
 1625BOLB   GL338991  12.340  22.150   2.980
 1625BOLB   GL438992  12.460  22.330   3.230
 1625BOLB   C1C38993  12.570  21.830   3.300
 1625BOLB   C2C38994  12.760  21.670   3.660
 1625BOLB   C3C38995  13.110  21.630   3.970
 1625BOLB   C4C38996  13.360  21.390   4.310
 1625BOLB   C1D38997  12.600  22.180   3.650
 1625BOLB   C2D38998  12.450  22.270   4.080
 1625BOLB   C3D38999  12.300  22.580   4.250
 1625BOLB   C4D39000  12.400  22.980   4.280
 1626BOLB   NC139001  23.080  18.160   7.740
 1626BOLB   PO139002  23.130  18.590   7.970
 1626BOLB   GL139003  23.610  18.440   7.890
 1626BOLB   GL239004  23.880  18.510   8.170
 1626BOLB   C1A39005  23.750  18.520   7.500
 1626BOLB   C2A39006  23.860  18.410   7.080
 1626BOLB   C3A39007  23.990  18.400   6.690
 1626BOLB   C4A39008  24.210  18.710   6.310
 1626BOLB   C1B39009  24.090  18.650   7.850
 1626BOLB   C2B39010  24.260  18.520   7.470
 1626BOLB   C3B39011  24.550  18.250   7.200
 1626BOLB   C4B39012  24.940  18.280   7.000
 1626BOLB   NC239013  26.210  19.310   4.970
 1626BOLB   PO239014  25.780  19.330   4.920
 1626BOLB   GL339015  25.410  19.180   5.120
 1626BOLB   GL439016  25.280  18.840   5.190
 1626BOLB   C1C39017  24.960  19.520   5.200
 1626BOLB   C2C39018  24.650  19.520   5.570
 1626BOLB   C3C39019  24.640  19.270   5.890
 1626BOLB   C4C39020  24.400  19.010   6.030
 1626BOLB   C1D39021  24.890  18.630   5.300
 1626BOLB   C2D39022  24.610  18.690   5.640
 1626BOLB   C3D39023  24.270  18.500   5.870
 1626BOLB   C4D39024  23.890  18.180   5.770
 1627BOLB   NC139025  15.430  25.160  15.690
 1627BOLB   PO139026  15.680  25.370  15.410
 1627BOLB   GL139027  15.460  25.710  15.620
 1627BOLB   GL239028  15.530  25.870  15.310
 1627BOLB   C1A39029  15.310  26.060  15.870
 1627BOLB   C2A39030  15.150  26.430  15.830
 1627BOLB   C3A39031  14.920  26.910  15.730
 1627BOLB   C4A39032  14.960  27.290  15.910
 1627BOLB   C1B39033  15.430  26.330  15.440
 1627BOLB   C2B39034  15.420  26.830  15.590
 1627BOLB   C3B39035  15.440  27.020  16.000
 1627BOLB   C4B39036  15.270  27.120  16.280
 1627BOLB   NC239037  13.920  29.150  16.660
 1627BOLB   PO239038  14.130  29.120  16.970
 1627BOLB   GL339039  14.310  28.730  16.850
 1627BOLB   GL439040  14.110  28.690  16.600
 1627BOLB   C1C39041  14.540  28.350  16.760
 1627BOLB   C2C39042  14.830  27.970  16.870
 1627BOLB   C3C39043  15.010  27.760  16.660
 1627BOLB   C4C39044  15.050  27.540  16.260
 1627BOLB   C1D39045  14.010  28.350  16.920
 1627BOLB   C2D39046  13.710  28.260  17.230
 1627BOLB   C3D39047  13.310  28.140  17.470
 1627BOLB   C4D39048  13.270  27.790  17.650
 1628BOLB   NC139049   9.630   9.010   4.700
 1628BOLB   PO139050   9.930   9.300   4.480
 1628BOLB   GL139051  10.230   9.270   4.800
 1628BOLB   GL239052  10.320   9.640   4.850
 1628BOLB   C1A39053  10.550   9.350   5.190
 1628BOLB   C2A39054  10.740   9.320   5.480
 1628BOLB   C3A39055  10.930   9.670   5.690
 1628BOLB   C4A39056  11.060  10.130   5.880
 1628BOLB   C1B39057  10.640   9.860   4.860
 1628BOLB   C2B39058  10.900  10.180   4.880
 1628BOLB   C3B39059  11.300  10.240   5.190
 1628BOLB   C4B39060  11.380   9.940   5.500
 1628BOLB   NC239061  12.520  10.970   7.410
 1628BOLB   PO239062  12.620  11.290   7.110
 1628BOLB   GL339063  12.280  11.040   6.910
 1628BOLB   GL439064  12.070  10.920   7.110
 1628BOLB   C1C39065  12.060  11.090   6.500
 1628BOLB   C2C39066  11.810  10.740   6.320
 1628BOLB   C3C39067  11.690  10.590   5.930
 1628BOLB   C4C39068  11.400  10.370   5.730
 1628BOLB   C1D39069  12.010  10.570   6.850
 1628BOLB   C2D39070  12.200  10.210   6.630
 1628BOLB   C3D39071  12.480  10.010   6.330
 1628BOLB   C4D39072  12.860   9.760   6.420
 1629BOLB   NC139073  24.120  18.710  11.220
 1629BOLB   PO139074  24.350  18.370  11.060
 1629BOLB   GL139075  24.820  18.260  10.830
 1629BOLB   GL239076  24.850  18.590  10.830
 1629BOLB   C1A39077  25.140  17.980  10.730
 1629BOLB   C2A39078  25.510  17.840  10.800
 1629BOLB   C3A39079  26.000  17.730  10.770
 1629BOLB   C4A39080  26.260  17.380  10.670
 1629BOLB   C1B39081  25.170  18.820  10.620
 1629BOLB   C2B39082  25.390  19.050  10.400
 1629BOLB   C3B39083  25.690  19.400  10.280
 1629BOLB   C4B39084  26.110  19.680  10.140
 1629BOLB   NC239085  27.550  15.630   8.900
 1629BOLB   PO239086  27.740  15.980   9.120
 1629BOLB   GL339087  27.360  15.990   9.300
 1629BOLB   GL439088  27.120  15.850   9.040
 1629BOLB   C1C39089  27.040  16.150   9.590
 1629BOLB   C2C39090  26.730  16.410   9.930
 1629BOLB   C3C39091  26.610  16.730  10.170
 1629BOLB   C4C39092  26.460  17.020  10.450
 1629BOLB   C1D39093  26.700  15.940   9.180
 1629BOLB   C2D39094  26.540  16.260   9.440
 1629BOLB   C3D39095  26.350  16.580   9.690
 1629BOLB   C4D39096  26.160  16.970   9.470
 1630BOLB   NC139097  12.930  14.350   4.890
 1630BOLB   PO139098  13.140  14.570   4.490
 1630BOLB   GL139099  12.850  14.210   4.240
 1630BOLB   GL239100  12.490  14.170   4.230
 1630BOLB   C1A39101  12.750  14.020   3.890
 1630BOLB   C2A39102  12.530  13.730   3.670
 1630BOLB   C3A39103  12.390  13.470   3.390
 1630BOLB   C4A39104  12.240  13.600   2.920
 1630BOLB   C1B39105  12.130  14.020   3.800
 1630BOLB   C2B39106  12.080  13.930   3.380
 1630BOLB   C3B39107  11.880  13.920   2.880
 1630BOLB   C4B39108  11.650  13.990   2.560
 1630BOLB   NC239109  10.730  12.580   1.240
 1630BOLB   PO239110  11.190  12.460   1.370
 1630BOLB   GL339111  11.050  12.710   1.650
 1630BOLB   GL439112  11.080  12.670   1.980
 1630BOLB   C1C39113  11.090  13.130   1.710
 1630BOLB   C2C39114  11.390  13.270   1.990
 1630BOLB   C3C39115  11.700  13.320   2.300
 1630BOLB   C4C39116  12.080  13.610   2.530
 1630BOLB   C1D39117  10.940  13.000   2.200
 1630BOLB   C2D39118  10.750  13.040   2.530
 1630BOLB   C3D39119  10.820  13.030   3.010
 1630BOLB   C4D39120  10.790  13.140   3.350
 1631BOLB   NC139121   9.320  13.410   9.740
 1631BOLB   PO139122   8.890  13.240   9.540
 1631BOLB   GL139123   8.610  13.180   9.830
 1631BOLB   GL239124   8.330  13.170   9.620
 1631BOLB   C1A39125   8.460  12.970  10.200
 1631BOLB   C2A39126   8.070  12.770  10.370
 1631BOLB   C3A39127   7.600  12.740  10.380
 1631BOLB   C4A39128   7.200  12.790  10.400
 1631BOLB   C1B39129   7.850  13.010   9.550
 1631BOLB   C2B39130   7.550  12.690   9.470
 1631BOLB   C3B39131   7.000  12.950   9.370
 1631BOLB   C4B39132   6.600  12.960   9.540
 1631BOLB   NC239133   5.190  12.250   8.930
 1631BOLB   PO239134   5.450  11.880   8.970
 1631BOLB   GL339135   5.910  11.850   9.270
 1631BOLB   GL439136   6.270  11.610   9.180
 1631BOLB   C1C39137   6.180  12.140   9.500
 1631BOLB   C2C39138   6.300  12.220   9.920
 1631BOLB   C3C39139   6.440  12.530  10.320
 1631BOLB   C4C39140   6.840  12.690  10.400
 1631BOLB   C1D39141   6.600  11.650   8.840
 1631BOLB   C2D39142   7.030  11.680   8.770
 1631BOLB   C3D39143   7.410  11.940   8.830
 1631BOLB   C4D39144   7.750  11.850   8.790
 1632BOLB   NC139145  20.170  29.360  14.160
 1632BOLB   PO139146  20.200  28.990  14.400
 1632BOLB   GL139147  19.940  28.620  14.340
 1632BOLB   GL239148  20.240  28.400  14.480
 1632BOLB   C1A39149  19.890  28.170  14.140
 1632BOLB   C2A39150  19.830  27.780  14.080
 1632BOLB   C3A39151  19.850  27.300  14.080
 1632BOLB   C4A39152  19.530  27.040  14.090
 1632BOLB   C1B39153  20.410  28.150  14.850
 1632BOLB   C2B39154  20.570  27.800  15.020
 1632BOLB   C3B39155  20.700  27.770  15.470
 1632BOLB   C4B39156  20.930  27.670  15.860
 1632BOLB   NC239157  18.720  24.710  14.200
 1632BOLB   PO239158  18.700  24.960  14.510
 1632BOLB   GL339159  18.950  25.370  14.500
 1632BOLB   GL439160  18.750  25.560  14.330
 1632BOLB   C1C39161  19.010  25.720  14.710
 1632BOLB   C2C39162  19.070  26.140  14.570
 1632BOLB   C3C39163  19.070  26.460  14.280
 1632BOLB   C4C39164  19.170  26.750  14.070
 1632BOLB   C1D39165  18.730  26.080  14.220
 1632BOLB   C2D39166  18.590  26.500  14.180
 1632BOLB   C3D39167  18.370  26.850  13.990
 1632BOLB   C4D39168  18.490  27.260  13.850
 1633BOLB   NC139169  20.130  28.390   9.180
 1633BOLB   PO139170  20.020  28.160   8.860
 1633BOLB   GL139171  19.940  27.680   9.000
 1633BOLB   GL239172  19.880  27.400   8.800
 1633BOLB   C1A39173  19.920  27.350   9.400
 1633BOLB   C2A39174  20.070  26.960   9.470
 1633BOLB   C3A39175  20.010  26.580   9.480
 1633BOLB   C4A39176  19.670  26.400   9.640
 1633BOLB   C1B39177  20.010  26.990   8.930
 1633BOLB   C2B39178  19.950  26.560   8.940
 1633BOLB   C3B39179  19.900  26.210   9.170
 1633BOLB   C4B39180  19.790  25.940   9.500
 1633BOLB   NC239181  19.350  24.800  11.320
 1633BOLB   PO239182  19.020  24.610  11.050
 1633BOLB   GL339183  18.980  24.980  11.070
 1633BOLB   GL439184  18.740  25.200  11.180
 1633BOLB   C1C39185  19.160  25.390  10.980
 1633BOLB   C2C39186  19.240  25.840  10.910
 1633BOLB   C3C39187  19.270  26.120  10.500
 1633BOLB   C4C39188  19.490  26.160  10.010
 1633BOLB   C1D39189  18.820  25.530  11.380
 1633BOLB   C2D39190  18.990  25.890  11.440
 1633BOLB   C3D39191  19.040  26.200  11.700
 1633BOLB   C4D39192  19.190  26.550  11.660
 1634BOLB   NC139193  23.470  18.300   8.400
 1634BOLB   PO139194  23.250  18.010   8.170
 1634BOLB   GL139195  23.590  17.980   7.820
 1634BOLB   GL239196  23.460  18.050   7.400
 1634BOLB   C1A39197  24.010  18.010   7.730
 1634BOLB   C2A39198  24.160  18.060   7.410
 1634BOLB   C3A39199  24.220  17.990   6.940
 1634BOLB   C4A39200  24.440  18.130   6.640
 1634BOLB   C1B39201  23.840  17.780   7.210
 1634BOLB   C2B39202  24.030  17.580   6.800
 1634BOLB   C3B39203  23.980  17.630   6.390
 1634BOLB   C4B39204  24.090  18.070   6.250
 1634BOLB   NC239205  25.420  18.830   4.650
 1634BOLB   PO239206  25.520  18.350   4.510
 1634BOLB   GL339207  25.230  18.430   4.820
 1634BOLB   GL439208  25.010  18.490   4.710
 1634BOLB   C1C39209  25.080  18.210   5.100
 1634BOLB   C2C39210  24.910  18.130   5.510
 1634BOLB   C3C39211  24.770  18.220   5.930
 1634BOLB   C4C39212  24.590  18.340   6.300
 1634BOLB   C1D39213  24.630  18.450   4.930
 1634BOLB   C2D39214  24.430  18.310   5.260
 1634BOLB   C3D39215  24.400  18.090   5.550
 1634BOLB   C4D39216  24.450  17.780   5.890
 1635BOLB   NC139217  21.270  10.960  10.570
 1635BOLB   PO139218  21.530  11.300  10.540
 1635BOLB   GL139219  21.730  10.890  10.750
 1635BOLB   GL239220  21.800  11.010  11.100
 1635BOLB   C1A39221  22.010  10.540  10.560
 1635BOLB   C2A39222  22.070  10.170  10.390
 1635BOLB   C3A39223  22.400   9.830  10.470
 1635BOLB   C4A39224  22.570   9.410  10.580
 1635BOLB   C1B39225  22.050  10.670  11.070
 1635BOLB   C2B39226  22.310  10.340  11.130
 1635BOLB   C3B39227  22.630  10.090  10.830
 1635BOLB   C4B39228  22.860  10.440  10.520
 1635BOLB   NC239229  24.070   7.660  10.850
 1635BOLB   PO239230  23.800   7.710  10.420
 1635BOLB   GL339231  23.300   7.730  10.320
 1635BOLB   GL439232  23.110   7.730  10.060
 1635BOLB   C1C39233  23.050   7.980  10.510
 1635BOLB   C2C39234  22.810   8.250  10.700
 1635BOLB   C3C39235  22.690   8.600  10.890
 1635BOLB   C4C39236  22.550   8.930  10.590
 1635BOLB   C1D39237  22.660   7.900  10.180
 1635BOLB   C2D39238  22.500   8.310  10.150
 1635BOLB   C3D39239  22.400   8.770  10.080
 1635BOLB   C4D39240  22.260   9.210  10.160
 1636BOLB   NC139241  20.930  22.900   8.520
 1636BOLB   PO139242  20.820  22.960   8.130
 1636BOLB   GL139243  21.130  22.880   7.870
 1636BOLB   GL239244  21.410  22.860   8.050
 1636BOLB   C1A39245  21.370  23.080   7.610
 1636BOLB   C2A39246  21.670  23.320   7.400
 1636BOLB   C3A39247  21.920  23.490   7.110
 1636BOLB   C4A39248  22.230  23.870   7.080
 1636BOLB   C1B39249  21.820  22.970   7.790
 1636BOLB   C2B39250  22.130  23.200   7.530
 1636BOLB   C3B39251  22.410  23.100   7.250
 1636BOLB   C4B39252  22.640  22.780   7.280
 1636BOLB   NC239253  20.970  22.850   8.990
 1636BOLB   PO239254  21.370  22.990   9.040
 1636BOLB   GL339255  21.510  23.370   8.850
 1636BOLB   GL439256  21.890  23.260   8.890
 1636BOLB   C1C39257  21.780  23.640   8.620
 1636BOLB   C2C39258  21.840  23.950   8.280
 1636BOLB   C3C39259  21.950  24.060   7.890
 1636BOLB   C4C39260  22.240  24.090   7.560
 1636BOLB   C1D39261  21.950  23.650   9.140
 1636BOLB   C2D39262  22.180  24.100   9.210
 1636BOLB   C3D39263  22.540  24.010   9.090
 1636BOLB   C4D39264  22.840  23.730   8.910
 1637BOLB   NC139265  19.810  10.190  11.030
 1637BOLB   PO139266  20.210  10.110  11.000
 1637BOLB   GL139267  20.390   9.740  10.900
 1637BOLB   GL239268  20.290   9.530  10.710
 1637BOLB   C1A39269  20.640   9.400  11.110
 1637BOLB   C2A39270  20.910   9.110  11.000
 1637BOLB   C3A39271  20.990   9.010  10.630
 1637BOLB   C4A39272  20.910   8.580  10.370
 1637BOLB   C1B39273  20.520   9.220  10.690
 1637BOLB   C2B39274  20.560   8.850  10.610
 1637BOLB   C3B39275  20.480   8.480  10.710
 1637BOLB   C4B39276  20.810   8.090  10.630
 1637BOLB   NC239277  21.350   6.010   9.510
 1637BOLB   PO239278  21.660   6.150   9.210
 1637BOLB   GL339279  21.400   6.550   9.470
 1637BOLB   GL439280  21.120   6.420   9.720
 1637BOLB   C1C39281  21.140   6.880   9.580
 1637BOLB   C2C39282  21.060   7.270   9.750
 1637BOLB   C3C39283  21.110   7.720   9.890
 1637BOLB   C4C39284  21.010   8.210  10.020
 1637BOLB   C1D39285  21.260   6.740  10.050
 1637BOLB   C2D39286  21.250   6.990  10.280
 1637BOLB   C3D39287  21.400   7.390  10.530
 1637BOLB   C4D39288  21.110   7.600  10.710
 1638BOLB   NC139289  24.160  17.880  11.960
 1638BOLB   PO139290  24.230  17.680  11.570
 1638BOLB   GL139291  24.610  17.540  11.550
 1638BOLB   GL239292  24.480  17.230  11.500
 1638BOLB   C1A39293  24.940  17.740  11.590
 1638BOLB   C2A39294  25.150  18.030  11.270
 1638BOLB   C3A39295  25.420  18.340  10.940
 1638BOLB   C4A39296  25.840  18.310  10.820
 1638BOLB   C1B39297  24.970  17.190  11.530
 1638BOLB   C2B39298  25.490  17.350  11.550
 1638BOLB   C3B39299  25.830  17.610  11.460
 1638BOLB   C4B39300  25.740  17.990  11.220
 1638BOLB   NC239301  28.340  18.720  11.920
 1638BOLB   PO239302  28.070  19.020  11.830
 1638BOLB   GL339303  27.630  18.910  11.640
 1638BOLB   GL439304  27.600  19.020  11.300
 1638BOLB   C1C39305  27.110  18.920  11.370
 1638BOLB   C2C39306  26.790  18.700  11.280
 1638BOLB   C3C39307  26.520  18.630  10.930
 1638BOLB   C4C39308  26.130  18.560  10.710
 1638BOLB   C1D39309  27.420  18.580  11.290
 1638BOLB   C2D39310  27.120  18.350  11.150
 1638BOLB   C3D39311  26.710  18.190  11.270
 1638BOLB   C4D39312  26.800  17.870  11.500
 1639BOLB   NC139313  22.970  22.140  12.890
 1639BOLB   PO139314  23.230  22.070  12.580
 1639BOLB   GL139315  23.420  22.400  12.850
 1639BOLB   GL239316  23.700  22.430  12.770
 1639BOLB   C1A39317  23.590  22.760  13.130
 1639BOLB   C2A39318  23.910  22.970  13.400
 1639BOLB   C3A39319  24.210  23.250  13.580
 1639BOLB   C4A39320  24.440  23.470  13.370
 1639BOLB   C1B39321  24.060  22.700  12.950
 1639BOLB   C2B39322  24.350  22.960  13.120
 1639BOLB   C3B39323  24.710  22.930  13.420
 1639BOLB   C4B39324  24.880  22.720  13.840
 1639BOLB   NC239325  25.700  24.900  14.090
 1639BOLB   PO239326  25.840  25.110  13.750
 1639BOLB   GL339327  25.580  24.820  13.600
 1639BOLB   GL439328  25.310  25.130  13.480
 1639BOLB   C1C39329  25.430  24.530  13.440
 1639BOLB   C2C39330  25.000  24.430  13.270
 1639BOLB   C3C39331  24.750  24.130  13.240
 1639BOLB   C4C39332  24.520  23.820  13.090
 1639BOLB   C1D39333  25.020  24.920  13.290
 1639BOLB   C2D39334  24.450  24.970  13.280
 1639BOLB   C3D39335  24.120  24.760  13.000
 1639BOLB   C4D39336  23.720  24.780  12.970
 1640BOLB   NC139337  10.530  22.230  15.190
 1640BOLB   PO139338  10.640  22.630  15.210
 1640BOLB   GL139339  10.290  22.850  15.350
 1640BOLB   GL239340  10.210  22.620  15.520
 1640BOLB   C1A39341   9.930  23.040  15.410
 1640BOLB   C2A39342   9.580  23.400  15.580
 1640BOLB   C3A39343   9.110  23.500  15.690
 1640BOLB   C4A39344   8.890  23.740  15.500
 1640BOLB   C1B39345   9.790  22.550  15.540
 1640BOLB   C2B39346   9.420  22.910  15.510
 1640BOLB   C3B39347   8.950  23.020  15.580
 1640BOLB   C4B39348   8.610  22.980  15.760
 1640BOLB   NC239349   6.790  24.990  14.960
 1640BOLB   PO239350   7.150  24.900  14.770
 1640BOLB   GL339351   7.270  24.690  15.090
 1640BOLB   GL439352   7.100  24.420  15.280
 1640BOLB   C1C39353   7.700  24.560  15.300
 1640BOLB   C2C39354   7.930  24.220  15.390
 1640BOLB   C3C39355   8.110  23.940  15.530
 1640BOLB   C4C39356   8.430  23.690  15.500
 1640BOLB   C1D39357   7.140  24.000  15.490
 1640BOLB   C2D39358   7.210  23.670  15.700
 1640BOLB   C3D39359   7.200  23.170  15.710
 1640BOLB   C4D39360   7.560  22.980  15.920
 1641BOLB   NC139361  11.360  23.710   4.080
 1641BOLB   PO139362  11.350  23.940   4.520
 1641BOLB   GL139363  11.310  23.730   4.870
 1641BOLB   GL239364  11.140  23.820   5.060
 1641BOLB   C1A39365  11.150  23.350   5.240
 1641BOLB   C2A39366  11.060  22.880   5.270
 1641BOLB   C3A39367  11.050  22.440   5.440
 1641BOLB   C4A39368  11.150  22.100   5.520
 1641BOLB   C1B39369  11.330  23.720   5.570
 1641BOLB   C2B39370  11.440  23.600   5.900
 1641BOLB   C3B39371  11.550  23.180   6.060
 1641BOLB   C4B39372  11.710  22.790   6.320
 1641BOLB   NC239373  10.390  23.350   3.680
 1641BOLB   PO239374  10.050  23.030   3.440
 1641BOLB   GL339375  10.290  22.860   3.880
 1641BOLB   GL439376  10.270  23.170   4.160
 1641BOLB   C1C39377  10.490  22.510   4.080
 1641BOLB   C2C39378  10.660  22.400   4.420
 1641BOLB   C3C39379  10.740  22.120   4.750
 1641BOLB   C4C39380  11.110  21.970   5.070
 1641BOLB   C1D39381  10.500  22.890   4.350
 1641BOLB   C2D39382  10.610  22.640   4.850
 1641BOLB   C3D39383  11.000  22.490   4.930
 1641BOLB   C4D39384  11.450  22.320   4.700
 1642BOLB   NC139385  20.840  21.260  17.530
 1642BOLB   PO139386  20.750  21.740  17.440
 1642BOLB   GL139387  20.890  21.870  17.840
 1642BOLB   GL239388  20.720  22.170  17.900
 1642BOLB   C1A39389  21.120  21.830  18.210
 1642BOLB   C2A39390  21.450  21.930  18.480
 1642BOLB   C3A39391  21.890  22.040  18.690
 1642BOLB   C4A39392  22.310  22.340  18.640
 1642BOLB   C1B39393  21.070  22.310  18.240
 1642BOLB   C2B39394  21.460  22.430  18.470
 1642BOLB   C3B39395  21.770  22.550  18.750
 1642BOLB   C4B39396  22.060  22.730  19.000
 1642BOLB   NC239397  24.520  23.190  19.880
 1642BOLB   PO239398  24.170  23.420  19.820
 1642BOLB   GL339399  23.810  23.300  19.710
 1642BOLB   GL439400  23.430  23.230  19.870
 1642BOLB   C1C39401  23.580  23.180  19.330
 1642BOLB   C2C39402  23.330  22.950  19.030
 1642BOLB   C3C39403  23.040  22.720  18.650
 1642BOLB   C4C39404  22.680  22.580  18.510
 1642BOLB   C1D39405  23.110  23.300  19.480
 1642BOLB   C2D39406  22.960  23.250  19.040
 1642BOLB   C3D39407  22.770  23.090  18.500
 1642BOLB   C4D39408  22.330  23.300  18.300
 1643BOLB   NC139409  16.670  24.890  14.000
 1643BOLB   PO139410  16.590  25.310  13.850
 1643BOLB   GL139411  16.660  25.700  14.110
 1643BOLB   GL239412  16.330  25.800  14.160
 1643BOLB   C1A39413  16.810  26.040  14.080
 1643BOLB   C2A39414  16.810  26.440  13.990
 1643BOLB   C3A39415  16.930  26.880  13.980
 1643BOLB   C4A39416  16.960  27.280  13.710
 1643BOLB   C1B39417  16.250  26.270  14.330
 1643BOLB   C2B39418  16.320  26.500  14.060
 1643BOLB   C3B39419  16.430  26.950  13.930
 1643BOLB   C4B39420  16.560  27.290  14.050
 1643BOLB   NC239421  18.480  29.290  12.790
 1643BOLB   PO239422  18.150  29.110  13.080
 1643BOLB   GL339423  17.990  28.670  12.910
 1643BOLB   GL439424  18.350  28.700  12.870
 1643BOLB   C1C39425  17.850  28.310  12.960
 1643BOLB   C2C39426  17.720  27.940  13.130
 1643BOLB   C3C39427  17.550  27.610  13.410
 1643BOLB   C4C39428  17.430  27.270  13.530
 1643BOLB   C1D39429  18.340  28.490  13.260
 1643BOLB   C2D39430  18.090  28.180  13.370
 1643BOLB   C3D39431  18.120  27.720  13.330
 1643BOLB   C4D39432  17.970  27.310  13.120
 1644BOLB   NC139433  13.620  29.460  14.450
 1644BOLB   PO139434  13.760  29.220  14.010
 1644BOLB   GL139435  13.820  28.730  13.930
 1644BOLB   GL239436  13.560  28.540  13.990
 1644BOLB   C1A39437  14.040  28.350  14.180
 1644BOLB   C2A39438  13.970  27.960  14.020
 1644BOLB   C3A39439  13.980  27.410  14.010
 1644BOLB   C4A39440  14.010  27.210  14.280
 1644BOLB   C1B39441  13.730  28.230  13.690
 1644BOLB   C2B39442  14.060  27.960  13.520
 1644BOLB   C3B39443  14.260  27.650  13.720
 1644BOLB   C4B39444  14.750  27.570  13.840
 1644BOLB   NC239445  13.970  29.880  15.320
 1644BOLB   PO239446  13.910  29.520  15.060
 1644BOLB   GL339447  14.100  29.080  15.140
 1644BOLB   GL439448  14.030  28.850  15.450
 1644BOLB   C1C39449  14.110  28.550  14.970
 1644BOLB   C2C39450  14.040  28.090  14.980
 1644BOLB   C3C39451  14.000  27.590  14.970
 1644BOLB   C4C39452  14.180  27.370  14.660
 1644BOLB   C1D39453  14.210  28.480  15.570
 1644BOLB   C2D39454  14.090  28.210  15.910
 1644BOLB   C3D39455  14.140  27.710  15.880
 1644BOLB   C4D39456  13.890  27.420  16.130
 1645BOLB   NC139457  26.680  16.060   5.770
 1645BOLB   PO139458  26.560  15.970   6.220
 1645BOLB   GL139459  26.200  16.150   6.330
 1645BOLB   GL239460  26.130  16.500   6.300
 1645BOLB   C1A39461  25.890  16.050   6.630
 1645BOLB   C2A39462  25.580  15.930   6.790
 1645BOLB   C3A39463  25.200  15.880   6.950
 1645BOLB   C4A39464  25.120  15.850   7.280
 1645BOLB   C1B39465  25.820  16.570   6.560
 1645BOLB   C2B39466  25.520  16.740   6.790
 1645BOLB   C3B39467  25.140  16.510   6.910
 1645BOLB   C4B39468  24.710  16.480   7.000
 1645BOLB   NC239469  23.910  15.930   9.090
 1645BOLB   PO239470  23.830  16.420   9.000
 1645BOLB   GL339471  24.260  16.510   8.780
 1645BOLB   GL439472  24.440  16.690   8.930
 1645BOLB   C1C39473  24.430  16.300   8.410
 1645BOLB   C2C39474  24.600  15.950   8.380
 1645BOLB   C3C39475  24.790  15.690   8.130
 1645BOLB   C4C39476  24.990  15.590   7.720
 1645BOLB   C1D39477  24.870  16.590   9.200
 1645BOLB   C2D39478  25.240  16.400   8.910
 1645BOLB   C3D39479  25.320  16.580   8.580
 1645BOLB   C4D39480  25.330  16.770   8.180
 1646BOLB   NC139481  22.110  25.810   6.450
 1646BOLB   PO139482  22.230  26.080   6.770
 1646BOLB   GL139483  22.130  25.740   6.970
 1646BOLB   GL239484  21.850  25.740   7.110
 1646BOLB   C1A39485  22.060  25.300   7.110
 1646BOLB   C2A39486  21.930  24.910   6.960
 1646BOLB   C3A39487  21.790  24.610   6.750
 1646BOLB   C4A39488  21.520  24.410   6.540
 1646BOLB   C1B39489  21.650  25.550   7.340
 1646BOLB   C2B39490  21.330  25.260   7.380
 1646BOLB   C3B39491  21.270  24.860   7.510
 1646BOLB   C4B39492  21.200  24.610   7.950
 1646BOLB   NC239493  21.090  25.190   4.260
 1646BOLB   PO239494  21.200  24.960   4.690
 1646BOLB   GL339495  21.210  24.440   5.010
 1646BOLB   GL439496  20.950  24.160   4.940
 1646BOLB   C1C39497  21.060  24.180   5.420
 1646BOLB   C2C39498  20.790  24.030   5.770
 1646BOLB   C3C39499  20.750  24.180   6.130
 1646BOLB   C4C39500  21.210  24.200   6.370
 1646BOLB   C1D39501  21.240  23.980   4.920
 1646BOLB   C2D39502  21.480  23.940   5.230
 1646BOLB   C3D39503  21.530  24.240   5.470
 1646BOLB   C4D39504  21.430  24.570   5.460
 1647BOLB   NC139505  17.670  24.720  13.530
 1647BOLB   PO139506  17.860  24.900  13.200
 1647BOLB   GL139507  17.780  25.380  13.080
 1647BOLB   GL239508  17.890  25.650  12.800
 1647BOLB   C1A39509  17.830  25.700  13.440
 1647BOLB   C2A39510  17.760  25.980  13.820
 1647BOLB   C3A39511  17.860  26.440  13.810
 1647BOLB   C4A39512  17.720  26.890  13.680
 1647BOLB   C1B39513  18.090  25.930  12.740
 1647BOLB   C2B39514  18.140  26.350  12.490
 1647BOLB   C3B39515  18.290  26.710  12.250
 1647BOLB   C4B39516  18.150  27.120  12.170
 1647BOLB   NC239517  17.690  29.250  13.420
 1647BOLB   PO239518  17.460  29.160  13.810
 1647BOLB   GL339519  17.530  28.790  13.790
 1647BOLB   GL439520  17.330  28.640  13.700
 1647BOLB   C1C39521  17.770  28.360  13.910
 1647BOLB   C2C39522  17.840  27.940  13.770
 1647BOLB   C3C39523  17.990  27.510  13.770
 1647BOLB   C4C39524  18.020  27.160  13.620
 1647BOLB   C1D39525  17.180  28.540  13.380
 1647BOLB   C2D39526  17.260  28.350  13.000
 1647BOLB   C3D39527  16.960  28.160  12.640
 1647BOLB   C4D39528  16.640  27.930  12.650
 1648BOLB   NC139529   9.040  16.400   8.820
 1648BOLB   PO139530   8.800  16.020   8.620
 1648BOLB   GL139531   8.380  16.150   8.640
 1648BOLB   GL239532   8.290  15.860   8.690
 1648BOLB   C1A39533   8.130  16.350   8.310
 1648BOLB   C2A39534   7.870  16.230   7.970
 1648BOLB   C3A39535   7.480  16.120   7.900
 1648BOLB   C4A39536   7.070  15.960   8.020
 1648BOLB   C1B39537   7.970  15.820   8.420
 1648BOLB   C2B39538   7.500  15.810   8.380
 1648BOLB   C3B39539   7.280  16.010   8.670
 1648BOLB   C4B39540   7.280  16.070   9.070
 1648BOLB   NC239541   5.040  14.890   7.770
 1648BOLB   PO239542   4.870  14.980   8.250
 1648BOLB   GL339543   5.090  15.280   8.210
 1648BOLB   GL439544   5.020  15.600   8.060
 1648BOLB   C1C39545   5.520  15.550   8.210
 1648BOLB   C2C39546   5.820  15.750   7.900
 1648BOLB   C3C39547   6.210  15.810   7.690
 1648BOLB   C4C39548   6.700  15.640   7.890
 1648BOLB   C1D39549   5.030  15.740   8.530
 1648BOLB   C2D39550   5.400  15.590   8.730
 1648BOLB   C3D39551   5.530  15.230   8.580
 1648BOLB   C4D39552   5.670  14.800   8.610
 1649BOLB   NC139553  13.190  23.820  10.430
 1649BOLB   PO139554  13.130  23.700   9.980
 1649BOLB   GL139555  13.020  23.800   9.630
 1649BOLB   GL239556  12.740  23.530   9.630
 1649BOLB   C1A39557  12.650  23.860   9.210
 1649BOLB   C2A39558  12.370  24.210   9.110
 1649BOLB   C3A39559  12.140  24.580   8.870
 1649BOLB   C4A39560  11.820  24.970   8.780
 1649BOLB   C1B39561  12.430  23.650   9.840
 1649BOLB   C2B39562  12.210  23.880  10.220
 1649BOLB   C3B39563  12.180  24.040  10.630
 1649BOLB   C4B39564  11.920  24.300  10.810
 1649BOLB   NC239565  10.960  26.560   6.840
 1649BOLB   PO239566  11.330  26.480   7.140
 1649BOLB   GL339567  11.390  26.170   7.430
 1649BOLB   GL439568  11.680  26.130   7.450
 1649BOLB   C1C39569  11.480  25.730   7.620
 1649BOLB   C2C39570  11.760  25.370   7.630
 1649BOLB   C3C39571  11.680  25.100   7.990
 1649BOLB   C4C39572  11.820  25.110   8.390
 1649BOLB   C1D39573  12.100  25.950   7.730
 1649BOLB   C2D39574  12.350  25.850   8.050
 1649BOLB   C3D39575  12.670  25.850   8.310
 1649BOLB   C4D39576  13.080  25.860   8.450
 1650BOLB   NC139577  23.810  20.400  12.210
 1650BOLB   PO139578  23.910  20.450  11.880
 1650BOLB   GL139579  24.210  20.600  11.670
 1650BOLB   GL239580  24.500  20.780  11.990
 1650BOLB   C1A39581  24.590  20.430  11.530
 1650BOLB   C2A39582  24.910  20.690  11.420
 1650BOLB   C3A39583  25.300  21.010  11.340
 1650BOLB   C4A39584  25.340  21.390  11.110
 1650BOLB   C1B39585  24.930  20.910  11.910
 1650BOLB   C2B39586  25.160  21.270  12.070
 1650BOLB   C3B39587  25.410  21.630  12.200
 1650BOLB   C4B39588  25.790  21.720  12.060
 1650BOLB   NC239589  27.120  23.060  11.220
 1650BOLB   PO239590  27.280  22.880  10.920
 1650BOLB   GL339591  26.920  22.680  11.000
 1650BOLB   GL439592  26.940  22.410  10.810
 1650BOLB   C1C39593  26.510  22.520  11.110
 1650BOLB   C2C39594  26.190  22.260  11.200
 1650BOLB   C3C39595  26.000  21.970  11.230
 1650BOLB   C4C39596  25.610  21.790  11.060
 1650BOLB   C1D39597  26.720  21.970  10.930
 1650BOLB   C2D39598  26.370  21.630  10.870
 1650BOLB   C3D39599  25.980  21.290  10.810
 1650BOLB   C4D39600  26.010  20.900  10.620
 1651BOLB   NC139601  11.970  23.140  11.700
 1651BOLB   PO139602  12.110  23.530  11.480
 1651BOLB   GL139603  11.930  23.800  11.690
 1651BOLB   GL239604  11.540  23.870  11.650
 1651BOLB   C1A39605  11.840  24.220  11.870
 1651BOLB   C2A39606  11.680  24.590  11.650
 1651BOLB   C3A39607  11.450  25.020  11.630
 1651BOLB   C4A39608  11.320  25.400  11.440
 1651BOLB   C1B39609  11.240  24.120  11.640
 1651BOLB   C2B39610  11.190  24.480  11.370
 1651BOLB   C3B39611  11.030  24.620  11.030
 1651BOLB   C4B39612  10.990  24.690  10.560
 1651BOLB   NC239613  10.110  27.280  10.650
 1651BOLB   PO239614  10.450  27.410  10.700
 1651BOLB   GL339615  10.730  27.150  10.850
 1651BOLB   GL439616  11.140  27.070  10.780
 1651BOLB   C1C39617  10.670  26.800  11.090
 1651BOLB   C2C39618  10.940  26.520  11.210
 1651BOLB   C3C39619  11.010  26.100  11.560
 1651BOLB   C4C39620  11.240  25.820  11.620
 1651BOLB   C1D39621  11.360  26.690  11.060
 1651BOLB   C2D39622  11.570  26.150  11.010
 1651BOLB   C3D39623  11.700  25.820  11.220
 1651BOLB   C4D39624  11.800  25.520  11.570
 1652BOLB   NC139625  22.620  17.220   8.140
 1652BOLB   PO139626  22.940  17.160   7.840
 1652BOLB   GL139627  23.410  17.180   7.640
 1652BOLB   GL239628  23.530  17.350   7.390
 1652BOLB   C1A39629  23.650  16.860   7.580
 1652BOLB   C2A39630  23.960  16.580   7.530
 1652BOLB   C3A39631  24.360  16.620   7.440
 1652BOLB   C4A39632  24.770  16.460   7.550
 1652BOLB   C1B39633  23.970  17.120   7.230
 1652BOLB   C2B39634  24.330  16.840   6.990
 1652BOLB   C3B39635  24.660  16.870   6.680
 1652BOLB   C4B39636  24.960  16.570   6.420
 1652BOLB   NC239637  27.390  16.850   6.610
 1652BOLB   PO239638  27.040  16.620   6.520
 1652BOLB   GL339639  26.600  16.630   6.640
 1652BOLB   GL439640  26.590  16.350   6.560
 1652BOLB   C1C39641  26.220  16.650   6.840
 1652BOLB   C2C39642  25.920  16.450   7.020
 1652BOLB   C3C39643  25.490  16.280   7.220
 1652BOLB   C4C39644  25.100  16.310   7.400
 1652BOLB   C1D39645  26.440  16.240   6.940
 1652BOLB   C2D39646  26.080  16.010   7.090
 1652BOLB   C3D39647  25.780  15.820   7.280
 1652BOLB   C4D39648  25.470  15.670   7.540
 1653BOLB   NC139649  20.190  23.060   9.190
 1653BOLB   PO139650  19.960  23.460   9.190
 1653BOLB   GL139651  19.970  24.010   9.120
 1653BOLB   GL239652  20.160  23.960   8.860
 1653BOLB   C1A39653  19.760  24.440   8.990
 1653BOLB   C2A39654  19.760  24.780   8.690
 1653BOLB   C3A39655  19.960  25.160   8.680
 1653BOLB   C4A39656  19.930  25.540   8.400
 1653BOLB   C1B39657  20.070  24.400   8.630
 1653BOLB   C2B39658  20.390  24.670   8.710
 1653BOLB   C3B39659  20.590  25.070   8.730
 1653BOLB   C4B39660  20.900  25.330   8.850
 1653BOLB   NC239661  19.600  27.280   6.580
 1653BOLB   PO239662  19.650  27.080   6.970
 1653BOLB   GL339663  19.740  26.670   7.070
 1653BOLB   GL439664  19.930  26.460   6.830
 1653BOLB   C1C39665  19.450  26.350   7.210
 1653BOLB   C2C39666  19.370  26.070   7.470
 1653BOLB   C3C39667  19.390  25.800   7.830
 1653BOLB   C4C39668  19.800  25.800   8.120
 1653BOLB   C1D39669  19.890  26.140   6.570
 1653BOLB   C2D39670  19.940  25.860   6.330
 1653BOLB   C3D39671  20.030  25.610   5.890
 1653BOLB   C4D39672  19.820  25.360   5.630
 1654BOLB   NC139673   9.080  14.920   1.900
 1654BOLB   PO139674   9.170  14.580   2.020
 1654BOLB   GL139675   9.430  14.910   2.260
 1654BOLB   GL239676   9.530  15.240   2.080
 1654BOLB   C1A39677   9.480  14.960   2.600
 1654BOLB   C2A39678   9.830  15.200   2.760
 1654BOLB   C3A39679  10.120  15.410   2.970
 1654BOLB   C4A39680  10.640  15.190   3.080
 1654BOLB   C1B39681   9.900  15.300   2.310
 1654BOLB   C2B39682  10.060  15.710   2.530
 1654BOLB   C3B39683  10.040  15.890   2.870
 1654BOLB   C4B39684  10.110  15.760   3.310
 1654BOLB   NC239685  10.940  13.550   1.000
 1654BOLB   PO239686  10.750  13.940   1.240
 1654BOLB   GL339687  10.880  13.980   1.730
 1654BOLB   GL439688  10.720  13.850   1.990
 1654BOLB   C1C39689  10.940  14.340   1.860
 1654BOLB   C2C39690  10.820  14.540   2.190
 1654BOLB   C3C39691  10.860  14.730   2.590
 1654BOLB   C4C39692  10.870  14.930   2.840
 1654BOLB   C1D39693  10.890  14.120   2.350
 1654BOLB   C2D39694  11.200  13.990   2.590
 1654BOLB   C3D39695  11.410  13.680   2.860
 1654BOLB   C4D39696  11.770  13.400   2.900
 1655BOLB   NC139697  22.940  17.020   7.330
 1655BOLB   PO139698  22.540  16.860   7.180
 1655BOLB   GL139699  22.910  16.700   6.790
 1655BOLB   GL239700  22.910  17.030   6.550
 1655BOLB   C1A39701  23.000  16.440   6.610
 1655BOLB   C2A39702  23.330  16.540   6.240
 1655BOLB   C3A39703  23.590  16.760   6.020
 1655BOLB   C4A39704  24.020  16.800   5.970
 1655BOLB   C1B39705  23.030  16.900   6.130
 1655BOLB   C2B39706  23.220  16.670   5.680
 1655BOLB   C3B39707  23.510  16.490   5.480
 1655BOLB   C4B39708  23.840  16.480   5.620
 1655BOLB   NC239709  25.500  17.860   4.460
 1655BOLB   PO239710  25.890  17.680   4.760
 1655BOLB   GL339711  25.620  17.700   4.950
 1655BOLB   GL439712  25.490  17.930   5.060
 1655BOLB   C1C39713  25.320  17.270   4.960
 1655BOLB   C2C39714  24.900  17.250   5.090
 1655BOLB   C3C39715  24.630  16.950   5.410
 1655BOLB   C4C39716  24.180  16.870   5.560
 1655BOLB   C1D39717  25.440  18.210   5.440
 1655BOLB   C2D39718  25.420  18.440   5.670
 1655BOLB   C3D39719  25.090  18.690   5.820
 1655BOLB   C4D39720  24.870  18.770   6.140
 1656BOLB   NC139721  13.890  23.860   9.540
 1656BOLB   PO139722  13.460  24.020   9.480
 1656BOLB   GL139723  13.190  24.390   9.350
 1656BOLB   GL239724  12.990  24.260   9.370
 1656BOLB   C1A39725  13.190  24.830   9.080
 1656BOLB   C2A39726  13.460  25.110   8.930
 1656BOLB   C3A39727  13.810  25.380   8.850
 1656BOLB   C4A39728  13.940  25.610   8.520
 1656BOLB   C1B39729  12.720  24.530   9.040
 1656BOLB   C2B39730  12.600  24.960   9.160
 1656BOLB   C3B39731  12.550  25.310   9.190
 1656BOLB   C4B39732  12.360  25.520   9.530
 1656BOLB   NC239733  14.280  28.260   7.760
 1656BOLB   PO239734  13.990  28.180   8.080
 1656BOLB   GL339735  13.900  27.770   8.450
 1656BOLB   GL439736  13.670  27.810   8.730
 1656BOLB   C1C39737  13.960  27.290   8.390
 1656BOLB   C2C39738  13.970  26.930   8.180
 1656BOLB   C3C39739  14.110  26.590   8.190
 1656BOLB   C4C39740  14.100  26.050   8.280
 1656BOLB   C1D39741  14.070  27.500   8.830
 1656BOLB   C2D39742  14.340  27.170   9.070
 1656BOLB   C3D39743  14.700  27.040   9.010
 1656BOLB   C4D39744  14.940  26.760   9.180
 1657BOLB   NC139745   9.830  21.670  12.750
 1657BOLB   PO139746   9.670  21.990  12.510
 1657BOLB   GL139747   9.170  22.010  12.520
 1657BOLB   GL239748   9.080  22.300  12.530
 1657BOLB   C1A39749   8.730  21.970  12.490
 1657BOLB   C2A39750   8.360  22.210  12.550
 1657BOLB   C3A39751   8.010  22.420  12.540
 1657BOLB   C4A39752   7.780  22.610  12.270
 1657BOLB   C1B39753   8.730  22.550  12.530
 1657BOLB   C2B39754   8.450  22.660  12.870
 1657BOLB   C3B39755   8.190  22.760  13.200
 1657BOLB   C4B39756   7.810  22.610  13.490
 1657BOLB   NC239757   6.700  24.400  11.600
 1657BOLB   PO239758   6.490  24.150  11.690
 1657BOLB   GL339759   6.690  24.080  12.010
 1657BOLB   GL439760   6.880  24.280  12.160
 1657BOLB   C1C39761   7.120  23.890  11.950
 1657BOLB   C2C39762   7.420  23.540  11.940
 1657BOLB   C3C39763   7.410  23.190  12.240
 1657BOLB   C4C39764   7.390  22.790  12.130
 1657BOLB   C1D39765   7.000  23.910  12.390
 1657BOLB   C2D39766   6.690  23.720  12.620
 1657BOLB   C3D39767   6.940  23.420  12.950
 1657BOLB   C4D39768   7.220  23.390  13.180
 1658BOLB   NC139769  15.640  17.690   4.340
 1658BOLB   PO139770  15.750  18.170   4.170
 1658BOLB   GL139771  15.970  18.050   3.690
 1658BOLB   GL239772  16.250  18.040   3.690
 1658BOLB   C1A39773  15.860  17.950   3.200
 1658BOLB   C2A39774  15.830  17.970   2.740
 1658BOLB   C3A39775  16.000  18.070   2.340
 1658BOLB   C4A39776  16.250  18.060   1.980
 1658BOLB   C1B39777  16.310  17.750   3.380
 1658BOLB   C2B39778  16.310  17.650   2.970
 1658BOLB   C3B39779  16.120  17.590   2.540
 1658BOLB   C4B39780  16.470  17.670   2.130
 1658BOLB   NC239781  17.020  17.390  31.290
 1658BOLB   PO239782  17.340  17.470   0.020
 1658BOLB   GL339783  17.360  17.640   0.500
 1658BOLB   GL439784  17.510  17.670   0.830
 1658BOLB   C1C39785  16.930  17.530   0.780
 1658BOLB   C2C39786  16.750  17.710   1.110
 1658BOLB   C3C39787  16.460  17.580   1.370
 1658BOLB   C4C39788  16.360  17.860   1.650
 1658BOLB   C1D39789  17.720  17.930   1.150
 1658BOLB   C2D39790  17.640  18.050   1.610
 1658BOLB   C3D39791  17.650  17.780   1.990
 1658BOLB   C4D39792  17.890  17.500   2.210
 1659BOLB   NC139793   3.260  15.960  21.300
 1659BOLB   PO139794   2.970  15.630  21.090
 1659BOLB   GL139795   3.200  15.300  20.780
 1659BOLB   GL239796   3.590  15.250  20.870
 1659BOLB   C1A39797   3.450  15.260  20.350
 1659BOLB   C2A39798   3.770  15.370  20.080
 1659BOLB   C3A39799   4.210  15.370  19.770
 1659BOLB   C4A39800   4.180  15.300  19.320
 1659BOLB   C1B39801   3.760  15.540  20.630
 1659BOLB   C2B39802   4.010  15.730  20.400
 1659BOLB   C3B39803   4.360  15.920  20.200
 1659BOLB   C4B39804   4.790  16.010  20.330
 1659BOLB   NC239805   2.050  14.420  18.620
 1659BOLB   PO239806   2.510  14.340  18.700
 1659BOLB   GL339807   2.850  14.440  18.450
 1659BOLB   GL439808   2.880  14.340  18.120
 1659BOLB   C1C39809   3.220  14.540  18.470
 1659BOLB   C2C39810   3.470  14.770  18.700
 1659BOLB   C3C39811   3.490  15.020  18.980
 1659BOLB   C4C39812   3.870  15.150  19.110
 1659BOLB   C1D39813   3.300  14.460  18.000
 1659BOLB   C2D39814   3.510  14.730  17.780
 1659BOLB   C3D39815   3.670  15.160  17.710
 1659BOLB   C4D39816   3.510  15.600  17.660
 1660BOLB   NC139817  15.200  24.080  18.090
 1660BOLB   PO139818  15.490  24.070  18.150
 1660BOLB   GL139819  15.560  24.310  18.390
 1660BOLB   GL239820  15.390  24.020  18.640
 1660BOLB   C1A39821  15.700  24.600  18.610
 1660BOLB   C2A39822  15.700  25.060  18.660
 1660BOLB   C3A39823  16.140  25.160  18.750
 1660BOLB   C4A39824  16.270  25.600  18.950
 1660BOLB   C1B39825  15.390  24.420  18.930
 1660BOLB   C2B39826  15.280  24.710  19.250
 1660BOLB   C3B39827  15.140  24.960  19.600
 1660BOLB   C4B39828  14.930  25.200  19.880
 1660BOLB   NC239829  16.520  27.460  20.310
 1660BOLB   PO239830  16.430  27.010  20.530
 1660BOLB   GL339831  16.420  26.900  20.210
 1660BOLB   GL439832  16.630  26.660  20.250
 1660BOLB   C1C39833  16.410  26.800  19.860
 1660BOLB   C2C39834  16.750  26.590  19.630
 1660BOLB   C3C39835  16.700  26.310  19.260
 1660BOLB   C4C39836  16.520  25.930  19.200
 1660BOLB   C1D39837  16.700  26.280  20.080
 1660BOLB   C2D39838  16.370  26.260  19.750
 1660BOLB   C3D39839  16.050  26.200  19.750
 1660BOLB   C4D39840  15.610  26.340  19.910
 1661BOLB   NC139841  14.370   9.370  14.370
 1661BOLB   PO139842  14.460   9.040  14.750
 1661BOLB   GL139843  14.380   8.600  14.710
 1661BOLB   GL239844  14.650   8.490  14.560
 1661BOLB   C1A39845  14.090   8.260  14.770
 1661BOLB   C2A39846  13.940   7.820  14.740
 1661BOLB   C3A39847  13.750   7.390  14.700
 1661BOLB   C4A39848  13.530   7.040  14.460
 1661BOLB   C1B39849  14.670   8.160  14.750
 1661BOLB   C2B39850  14.560   7.800  15.000
 1661BOLB   C3B39851  14.450   7.550  15.290
 1661BOLB   C4B39852  14.160   7.380  15.530
 1661BOLB   NC239853  12.350   5.390  15.560
 1661BOLB   PO239854  12.380   5.160  15.180
 1661BOLB   GL339855  12.340   5.680  15.090
 1661BOLB   GL439856  12.340   5.830  15.430
 1661BOLB   C1C39857  12.290   5.990  14.910
 1661BOLB   C2C39858  12.550   6.310  14.670
 1661BOLB   C3C39859  12.940   6.430  14.520
 1661BOLB   C4C39860  13.350   6.630  14.530
 1661BOLB   C1D39861  12.490   6.230  15.440
 1661BOLB   C2D39862  12.560   6.680  15.310
 1661BOLB   C3D39863  12.360   7.120  15.330
 1661BOLB   C4D39864  12.200   7.580  15.160
 1662BOLB   NC139865  19.880  11.770  15.850
 1662BOLB   PO139866  19.830  11.580  16.320
 1662BOLB   GL139867  20.260  11.500  16.520
 1662BOLB   GL239868  20.530  11.270  16.530
 1662BOLB   C1A39869  20.310  11.370  16.990
 1662BOLB   C2A39870  20.610  11.230  17.180
 1662BOLB   C3A39871  20.800  10.910  17.270
 1662BOLB   C4A39872  20.960  10.620  17.530
 1662BOLB   C1B39873  20.670  10.940  16.790
 1662BOLB   C2B39874  20.760  10.530  16.950
 1662BOLB   C3B39875  20.460  10.160  17.110
 1662BOLB   C4B39876  20.020  10.030  16.930
 1662BOLB   NC239877  21.210   8.840  19.130
 1662BOLB   PO239878  21.200   9.170  19.440
 1662BOLB   GL339879  21.110   9.380  18.980
 1662BOLB   GL439880  20.740   9.640  18.870
 1662BOLB   C1C39881  21.270   9.590  18.610
 1662BOLB   C2C39882  21.430  10.010  18.430
 1662BOLB   C3C39883  21.400  10.300  18.170
 1662BOLB   C4C39884  21.210  10.330  17.750
 1662BOLB   C1D39885  20.520  10.010  18.880
 1662BOLB   C2D39886  20.260  10.230  18.640
 1662BOLB   C3D39887  19.910  10.510  18.540
 1662BOLB   C4D39888  19.580  10.800  18.380
 1663BOLB   NC139889   8.740  17.670   8.810
 1663BOLB   PO139890   8.570  17.820   9.200
 1663BOLB   GL139891   8.180  17.850   8.820
 1663BOLB   GL239892   8.270  17.750   8.590
 1663BOLB   C1A39893   7.740  17.960   8.530
 1663BOLB   C2A39894   7.490  17.740   8.280
 1663BOLB   C3A39895   7.330  17.400   7.990
 1663BOLB   C4A39896   7.020  17.280   7.880
 1663BOLB   C1B39897   7.980  17.600   8.280
 1663BOLB   C2B39898   7.770  17.590   7.870
 1663BOLB   C3B39899   7.510  17.510   7.560
 1663BOLB   C4B39900   7.130  17.330   7.330
 1663BOLB   NC239901   4.670  16.060   7.590
 1663BOLB   PO239902   4.880  16.390   7.520
 1663BOLB   GL339903   5.050  16.300   7.880
 1663BOLB   GL439904   5.110  15.970   7.760
 1663BOLB   C1C39905   5.400  16.510   7.890
 1663BOLB   C2C39906   5.800  16.810   8.070
 1663BOLB   C3C39907   6.170  17.020   8.040
 1663BOLB   C4C39908   6.580  17.170   7.990
 1663BOLB   C1D39909   5.420  16.050   8.080
 1663BOLB   C2D39910   5.820  16.030   8.310
 1663BOLB   C3D39911   5.990  15.760   8.640
 1663BOLB   C4D39912   5.920  15.410   8.640
 1664BOLB   NC139913  16.360  29.960  12.260
 1664BOLB   PO139914  16.040  29.660  12.210
 1664BOLB   GL139915  16.200  29.200  12.300
 1664BOLB   GL239916  16.420  28.970  12.440
 1664BOLB   C1A39917  16.000  28.810  12.280
 1664BOLB   C2A39918  16.080  28.400  12.190
 1664BOLB   C3A39919  15.870  27.970  12.320
 1664BOLB   C4A39920  15.590  27.970  12.660
 1664BOLB   C1B39921  16.400  28.610  12.660
 1664BOLB   C2B39922  16.230  28.180  12.640
 1664BOLB   C3B39923  16.080  27.840  12.760
 1664BOLB   C4B39924  16.150  27.490  12.780
 1664BOLB   NC239925  16.250  29.340  14.690
 1664BOLB   PO239926  15.820  29.200  14.790
 1664BOLB   GL339927  15.800  29.080  14.460
 1664BOLB   GL439928  15.650  28.820  14.440
 1664BOLB   C1C39929  15.630  29.070  14.040
 1664BOLB   C2C39930  15.620  28.820  13.640
 1664BOLB   C3C39931  15.400  28.690  13.150
 1664BOLB   C4C39932  15.460  28.230  12.920
 1664BOLB   C1D39933  15.810  28.400  14.470
 1664BOLB   C2D39934  16.090  28.090  14.700
 1664BOLB   C3D39935  16.330  27.780  14.870
 1664BOLB   C4D39936  16.670  27.380  14.770
 1665BOLB   NC139937  18.830  20.070   5.260
 1665BOLB   PO139938  19.180  20.090   5.170
 1665BOLB   GL139939  19.300  20.330   4.800
 1665BOLB   GL239940  19.570  20.480   5.020
 1665BOLB   C1A39941  19.340  20.490   4.390
 1665BOLB   C2A39942  19.430  20.820   4.320
 1665BOLB   C3A39943  19.650  21.110   4.570
 1665BOLB   C4A39944  19.920  21.460   4.490
 1665BOLB   C1B39945  19.780  20.600   4.600
 1665BOLB   C2B39946  19.870  20.460   4.220
 1665BOLB   C3B39947  20.130  20.250   3.810
 1665BOLB   C4B39948  20.440  20.000   3.600
 1665BOLB   NC239949  19.720  22.790   2.640
 1665BOLB   PO239950  19.440  22.450   2.500
 1665BOLB   GL339951  19.390  22.060   2.640
 1665BOLB   GL439952  19.020  22.000   2.590
 1665BOLB   C1C39953  19.460  21.860   2.940
 1665BOLB   C2C39954  19.710  21.910   3.220
 1665BOLB   C3C39955  19.750  21.920   3.670
 1665BOLB   C4C39956  19.960  21.880   4.190
 1665BOLB   C1D39957  18.810  22.070   2.940
 1665BOLB   C2D39958  18.740  21.830   3.320
 1665BOLB   C3D39959  18.760  21.340   3.500
 1665BOLB   C4D39960  18.780  20.930   3.600
 1666BOLB   NC139961   9.000  26.760  12.070
 1666BOLB   PO139962   9.230  26.910  11.740
 1666BOLB   GL139963   9.330  26.530  11.750
 1666BOLB   GL239964   9.100  26.500  11.470
 1666BOLB   C1A39965   9.420  26.180  11.880
 1666BOLB   C2A39966   9.540  25.760  11.740
 1666BOLB   C3A39967   9.670  25.410  11.840
 1666BOLB   C4A39968  10.050  25.190  11.880
 1666BOLB   C1B39969   9.460  26.220  11.380
 1666BOLB   C2B39970   9.890  26.180  11.500
 1666BOLB   C3B39971  10.180  25.840  11.740
 1666BOLB   C4B39972  10.430  25.500  11.860
 1666BOLB   NC239973  10.770  22.510  12.020
 1666BOLB   PO239974  10.690  22.900  12.020
 1666BOLB   GL339975  10.530  23.210  12.110
 1666BOLB   GL439976  10.230  23.150  11.930
 1666BOLB   C1C39977  10.480  23.640  11.830
 1666BOLB   C2C39978  10.300  24.050  11.670
 1666BOLB   C3C39979  10.100  24.380  11.730
 1666BOLB   C4C39980  10.220  24.730  11.700
 1666BOLB   C1D39981  10.020  23.510  11.710
 1666BOLB   C2D39982   9.780  23.860  11.590
 1666BOLB   C3D39983   9.690  24.230  11.320
 1666BOLB   C4D39984   9.710  24.700  11.140
 1667BOLB   NC139985  21.640  21.980   8.620
 1667BOLB   PO139986  21.570  22.430   8.540
 1667BOLB   GL139987  21.870  22.770   8.380
 1667BOLB   GL239988  22.030  22.680   8.160
 1667BOLB   C1A39989  21.780  23.220   8.310
 1667BOLB   C2A39990  21.910  23.440   7.960
 1667BOLB   C3A39991  22.210  23.640   7.790
 1667BOLB   C4A39992  22.520  23.590   7.360
 1667BOLB   C1B39993  22.250  23.090   8.110
 1667BOLB   C2B39994  22.520  23.350   8.070
 1667BOLB   C3B39995  22.730  23.660   7.930
 1667BOLB   C4B39996  22.940  23.900   7.640
 1667BOLB   NC239997  23.720  24.260   5.570
 1667BOLB   PO239998  23.450  24.610   5.610
 1667BOLB   GL339999  23.060  24.610   5.890
 1667BOLB   GL440000  23.080  24.830   6.080
 1667BOLB   C1C40001  22.960  24.240   5.930
 1667BOLB   C2C40002  22.840  23.870   6.170
 1667BOLB   C3C40003  22.750  23.650   6.530
 1667BOLB   C4C40004  22.630  23.480   6.920
 1667BOLB   C1D40005  22.860  24.740   6.530
 1667BOLB   C2D40006  22.930  24.500   6.930
 1667BOLB   C3D40007  23.170  24.640   7.290
 1667BOLB   C4D40008  23.540  24.520   7.460
 1668BOLB   NC140009  22.650  15.230  15.340
 1668BOLB   PO140010  22.610  14.760  15.270
 1668BOLB   GL140011  23.070  14.570  15.430
 1668BOLB   GL240012  23.160  14.700  15.590
 1668BOLB   C1A40013  23.170  14.140  15.510
 1668BOLB   C2A40014  23.230  13.720  15.750
 1668BOLB   C3A40015  23.370  13.730  16.150
 1668BOLB   C4A40016  23.640  13.890  16.540
 1668BOLB   C1B40017  23.570  14.410  15.770
 1668BOLB   C2B40018  23.700  14.020  15.770
 1668BOLB   C3B40019  23.980  13.770  16.020
 1668BOLB   C4B40020  23.910  13.510  16.370
 1668BOLB   NC240021  25.610  13.550  18.490
 1668BOLB   PO240022  25.470  13.220  18.280
 1668BOLB   GL340023  25.300  13.330  17.930
 1668BOLB   GL440024  25.140  13.700  18.000
 1668BOLB   C1C40025  25.050  13.390  17.530
 1668BOLB   C2C40026  24.690  13.400  17.320
 1668BOLB   C3C40027  24.330  13.470  17.200
 1668BOLB   C4C40028  24.070  13.710  16.790
 1668BOLB   C1D40029  25.400  13.860  17.620
 1668BOLB   C2D40030  25.530  14.090  17.350
 1668BOLB   C3D40031  25.590  14.260  17.020
 1668BOLB   C4D40032  25.300  14.350  16.640
 1669BOLB   NC140033  10.000  11.410  11.080
 1669BOLB   PO140034  10.190  11.010  11.000
 1669BOLB   GL140035   9.810  10.700  11.040
 1669BOLB   GL240036   9.840  10.480  11.340
 1669BOLB   C1A40037   9.440  10.710  10.710
 1669BOLB   C2A40038   9.100  10.730  10.430
 1669BOLB   C3A40039   8.710  10.550  10.300
 1669BOLB   C4A40040   8.370  10.430  10.600
 1669BOLB   C1B40041   9.690  10.180  11.180
 1669BOLB   C2B40042   9.490   9.870  11.080
 1669BOLB   C3B40043   9.130   9.640  11.290
 1669BOLB   C4B40044   8.900   9.370  11.410
 1669BOLB   NC240045   6.440   9.740   9.190
 1669BOLB   PO240046   6.030  10.040   9.370
 1669BOLB   GL340047   6.340  10.160   9.680
 1669BOLB   GL440048   6.490  10.440   9.490
 1669BOLB   C1C40049   6.700  10.140  10.000
 1669BOLB   C2C40050   7.020  10.120  10.400
 1669BOLB   C3C40051   7.570  10.080  10.540
 1669BOLB   C4C40052   7.970  10.210  10.700
 1669BOLB   C1D40053   6.940  10.450   9.700
 1669BOLB   C2D40054   7.050  10.580  10.090
 1669BOLB   C3D40055   7.500  10.530  10.320
 1669BOLB   C4D40056   7.930  10.610  10.400
 1670BOLB   NC140057  15.230  13.610   4.950
 1670BOLB   PO140058  15.330  13.230   4.700
 1670BOLB   GL140059  15.250  13.150   4.250
 1670BOLB   GL240060  15.450  13.390   4.100
 1670BOLB   C1A40061  15.110  12.900   4.010
 1670BOLB   C2A40062  14.970  12.890   3.570
 1670BOLB   C3A40063  14.680  12.800   3.160
 1670BOLB   C4A40064  14.260  12.670   3.070
 1670BOLB   C1B40065  15.350  13.240   3.750
 1670BOLB   C2B40066  15.510  13.350   3.340
 1670BOLB   C3B40067  15.860  13.380   3.210
 1670BOLB   C4B40068  16.250  13.410   3.410
 1670BOLB   NC240069  13.340  12.020   0.770
 1670BOLB   PO240070  13.650  12.130   1.100
 1670BOLB   GL340071  13.670  12.030   1.470
 1670BOLB   GL440072  13.880  12.180   1.640
 1670BOLB   C1C40073  13.470  12.230   1.870
 1670BOLB   C2C40074  13.400  12.300   2.210
 1670BOLB   C3C40075  13.670  12.340   2.600
 1670BOLB   C4C40076  13.970  12.400   2.870
 1670BOLB   C1D40077  14.070  12.510   1.750
 1670BOLB   C2D40078  14.530  12.630   1.830
 1670BOLB   C3D40079  14.850  12.650   2.140
 1670BOLB   C4D40080  14.910  12.350   2.450
 1671BOLB   NC140081  21.970  13.910  14.810
 1671BOLB   PO140082  22.110  13.840  14.330
 1671BOLB   GL140083  22.580  13.610  14.460
 1671BOLB   GL240084  22.570  13.290  14.570
 1671BOLB   C1A40085  22.930  13.560  14.810
 1671BOLB   C2A40086  23.350  13.320  14.940
 1671BOLB   C3A40087  23.620  12.900  15.060
 1671BOLB   C4A40088  23.910  12.690  14.930
 1671BOLB   C1B40089  22.950  13.140  14.590
 1671BOLB   C2B40090  23.310  12.960  14.620
 1671BOLB   C3B40091  23.840  12.960  14.570
 1671BOLB   C4B40092  24.160  13.180  14.510
 1671BOLB   NC240093  26.600  11.540  15.470
 1671BOLB   PO240094  26.490  11.980  15.170
 1671BOLB   GL340095  26.090  12.140  15.000
 1671BOLB   GL440096  26.140  12.010  14.700
 1671BOLB   C1C40097  25.590  12.290  14.940
 1671BOLB   C2C40098  25.100  12.360  14.850
 1671BOLB   C3C40099  24.830  12.760  14.930
 1671BOLB   C4C40100  24.390  12.850  14.980
 1671BOLB   C1D40101  25.680  11.890  14.620
 1671BOLB   C2D40102  25.250  11.990  14.540
 1671BOLB   C3D40103  24.910  12.400  14.330
 1671BOLB   C4D40104  24.500  12.700  14.480
 1672BOLB   NC140105  15.350  24.190   9.460
 1672BOLB   PO140106  15.100  24.270   9.840
 1672BOLB   GL140107  15.160  24.680   9.710
 1672BOLB   GL240108  15.180  24.660   9.370
 1672BOLB   C1A40109  15.020  25.060   9.610
 1672BOLB   C2A40110  15.070  25.530   9.470
 1672BOLB   C3A40111  15.140  25.900   9.180
 1672BOLB   C4A40112  14.870  26.290   9.290
 1672BOLB   C1B40113  15.250  25.100   9.140
 1672BOLB   C2B40114  15.130  25.400   8.920
 1672BOLB   C3B40115  14.940  25.560   8.610
 1672BOLB   C4B40116  14.880  25.770   8.280
 1672BOLB   NC240117  15.880  27.710   7.080
 1672BOLB   PO240118  15.570  27.910   7.450
 1672BOLB   GL340119  15.450  27.590   7.700
 1672BOLB   GL440120  15.480  27.340   7.400
 1672BOLB   C1C40121  15.660  27.400   8.140
 1672BOLB   C2C40122  15.440  27.150   8.560
 1672BOLB   C3C40123  15.210  26.830   8.710
 1672BOLB   C4C40124  15.060  26.450   8.860
 1672BOLB   C1D40125  15.810  27.160   7.740
 1672BOLB   C2D40126  16.030  27.030   7.980
 1672BOLB   C3D40127  16.090  26.680   8.190
 1672BOLB   C4D40128  15.940  26.250   8.300
 1673BOLB   NC140129  11.450   5.210  10.140
 1673BOLB   PO140130  11.830   5.130  10.460
 1673BOLB   GL140131  12.090   5.440  10.610
 1673BOLB   GL240132  11.950   5.730  10.760
 1673BOLB   C1A40133  12.430   5.870  10.530
 1673BOLB   C2A40134  12.470   6.300  10.650
 1673BOLB   C3A40135  12.460   6.440  11.010
 1673BOLB   C4A40136  12.620   6.870  11.180
 1673BOLB   C1B40137  11.560   6.020  10.710
 1673BOLB   C2B40138  11.340   6.310  10.840
 1673BOLB   C3B40139  11.240   6.740  10.630
 1673BOLB   C4B40140  11.390   7.040  10.330
 1673BOLB   NC240141  12.790   4.750  13.260
 1673BOLB   PO240142  12.540   5.240  13.190
 1673BOLB   GL340143  12.310   5.560  12.970
 1673BOLB   GL440144  12.300   5.690  13.230
 1673BOLB   C1C40145  12.330   5.930  12.730
 1673BOLB   C2C40146  12.530   6.360  12.460
 1673BOLB   C3C40147  12.570   6.540  12.060
 1673BOLB   C4C40148  12.570   6.860  11.610
 1673BOLB   C1D40149  12.470   6.060  13.180
 1673BOLB   C2D40150  12.370   6.520  12.900
 1673BOLB   C3D40151  12.390   7.000  12.890
 1673BOLB   C4D40152  12.130   7.410  12.700
 1674BOLB   NC140153   7.740  16.900  11.070
 1674BOLB   PO140154   7.880  16.640  11.490
 1674BOLB   GL140155   7.670  16.690  11.800
 1674BOLB   GL240156   7.510  16.390  11.840
 1674BOLB   C1A40157   7.160  16.810  11.760
 1674BOLB   C2A40158   6.650  16.890  11.710
 1674BOLB   C3A40159   6.250  16.740  11.630
 1674BOLB   C4A40160   5.740  16.760  11.490
 1674BOLB   C1B40161   7.070  16.290  11.920
 1674BOLB   C2B40162   6.670  16.240  11.700
 1674BOLB   C3B40163   6.220  16.150  11.590
 1674BOLB   C4B40164   5.810  16.280  11.690
 1674BOLB   NC240165   3.340  16.820  10.480
 1674BOLB   PO240166   3.380  16.630  10.890
 1674BOLB   GL340167   3.700  16.680  11.080
 1674BOLB   GL440168   3.930  16.480  11.090
 1674BOLB   C1C40169   4.090  16.990  11.100
 1674BOLB   C2C40170   4.630  16.980  11.170
 1674BOLB   C3C40171   4.890  16.840  11.450
 1674BOLB   C4C40172   5.310  16.800  11.470
 1674BOLB   C1D40173   3.790  16.400  11.520
 1674BOLB   C2D40174   3.460  16.250  11.900
 1674BOLB   C3D40175   3.510  15.840  12.140
 1674BOLB   C4D40176   3.500  15.400  12.440
 1675BOLB   NC140177  21.890  17.150   6.860
 1675BOLB   PO140178  21.770  16.930   6.500
 1675BOLB   GL140179  21.980  17.030   6.140
 1675BOLB   GL240180  22.030  16.680   6.050
 1675BOLB   C1A40181  22.240  17.000   5.750
 1675BOLB   C2A40182  22.290  16.990   5.360
 1675BOLB   C3A40183  22.420  17.130   5.020
 1675BOLB   C4A40184  22.640  17.370   4.880
 1675BOLB   C1B40185  22.390  16.520   5.950
 1675BOLB   C2B40186  22.680  16.620   5.620
 1675BOLB   C3B40187  22.770  16.690   5.220
 1675BOLB   C4B40188  22.890  16.790   4.800
 1675BOLB   NC240189  24.380  17.240   3.110
 1675BOLB   PO240190  24.510  17.130   3.580
 1675BOLB   GL340191  24.350  17.480   3.750
 1675BOLB   GL440192  24.580  17.440   3.970
 1675BOLB   C1C40193  24.020  17.690   3.800
 1675BOLB   C2C40194  23.780  17.530   4.150
 1675BOLB   C3C40195  23.490  17.260   4.450
 1675BOLB   C4C40196  22.980  17.330   4.590
 1675BOLB   C1D40197  24.190  17.290   4.190
 1675BOLB   C2D40198  24.020  17.100   4.430
 1675BOLB   C3D40199  23.850  16.930   4.720
 1675BOLB   C4D40200  23.400  16.900   4.860
 1676BOLB   NC140201  16.760   9.810   7.330
 1676BOLB   PO140202  17.040   9.730   7.590
 1676BOLB   GL140203  16.760   9.270   7.680
 1676BOLB   GL240204  16.630   9.290   7.370
 1676BOLB   C1A40205  16.810   8.860   7.660
 1676BOLB   C2A40206  16.820   8.500   7.480
 1676BOLB   C3A40207  16.910   8.030   7.380
 1676BOLB   C4A40208  17.280   7.760   7.570
 1676BOLB   C1B40209  16.350   8.970   7.450
 1676BOLB   C2B40210  16.360   8.480   7.330
 1676BOLB   C3B40211  16.330   8.130   7.350
 1676BOLB   C4B40212  16.520   7.810   7.580
 1676BOLB   NC240213  18.070   5.220   8.490
 1676BOLB   PO240214  17.990   5.560   8.330
 1676BOLB   GL340215  17.740   5.970   8.280
 1676BOLB   GL440216  17.690   6.090   8.560
 1676BOLB   C1C40217  17.680   6.290   8.000
 1676BOLB   C2C40218  17.540   6.540   7.700
 1676BOLB   C3C40219  17.520   7.030   7.600
 1676BOLB   C4C40220  17.260   7.310   7.400
 1676BOLB   C1D40221  17.690   6.180   8.960
 1676BOLB   C2D40222  17.640   6.570   9.110
 1676BOLB   C3D40223  17.510   6.980   9.090
 1676BOLB   C4D40224  17.380   7.290   8.890
 1677BOLB   NC140225   9.350  21.500   3.570
 1677BOLB   PO140226   9.750  21.730   3.420
 1677BOLB   GL140227   9.740  21.550   3.900
 1677BOLB   GL240228   9.680  21.720   4.150
 1677BOLB   C1A40229  10.060  21.350   4.170
 1677BOLB   C2A40230  10.610  21.360   4.300
 1677BOLB   C3A40231  11.000  21.150   4.500
 1677BOLB   C4A40232  11.370  21.170   4.510
 1677BOLB   C1B40233   9.810  21.740   4.530
 1677BOLB   C2B40234  10.050  21.440   4.850
 1677BOLB   C3B40235  10.380  21.300   4.810
 1677BOLB   C4B40236  10.630  21.130   5.130
 1677BOLB   NC240237  10.740  22.140   3.290
 1677BOLB   PO240238  10.940  22.530   3.170
 1677BOLB   GL340239  11.250  22.290   3.470
 1677BOLB   GL440240  11.180  21.960   3.450
 1677BOLB   C1C40241  11.580  22.130   3.740
 1677BOLB   C2C40242  11.660  21.820   4.040
 1677BOLB   C3C40243  11.830  21.580   4.290
 1677BOLB   C4C40244  11.710  21.340   4.670
 1677BOLB   C1D40245  11.260  21.690   3.680
 1677BOLB   C2D40246  11.300  21.380   3.960
 1677BOLB   C3D40247  11.550  20.940   4.030
 1677BOLB   C4D40248  11.710  20.680   4.380
 1678BOLB   NC140249  27.770  16.970   9.200
 1678BOLB   PO140250  27.450  16.870   9.130
 1678BOLB   GL140251  27.160  16.570   9.240
 1678BOLB   GL240252  27.010  16.330   9.040
 1678BOLB   C1A40253  26.770  16.700   9.240
 1678BOLB   C2A40254  26.450  16.770   9.150
 1678BOLB   C3A40255  26.170  16.360   9.120
 1678BOLB   C4A40256  26.110  15.980   9.020
 1678BOLB   C1B40257  26.610  16.320   8.920
 1678BOLB   C2B40258  26.380  16.210   8.640
 1678BOLB   C3B40259  25.940  16.350   8.690
 1678BOLB   C4B40260  25.700  16.310   9.080
 1678BOLB   NC240261  27.740  15.140   7.470
 1678BOLB   PO240262  27.430  15.370   7.660
 1678BOLB   GL340263  27.060  15.380   7.430
 1678BOLB   GL440264  26.710  15.270   7.500
 1678BOLB   C1C40265  26.830  15.700   7.680
 1678BOLB   C2C40266  26.800  15.880   8.070
 1678BOLB   C3C40267  26.630  15.800   8.360
 1678BOLB   C4C40268  26.390  15.650   8.830
 1678BOLB   C1D40269  26.370  15.090   7.670
 1678BOLB   C2D40270  26.200  15.110   8.020
 1678BOLB   C3D40271  26.010  14.890   8.250
 1678BOLB   C4D40272  25.780  14.380   8.080
 1679BOLB   NC140273   8.060  24.950   8.650
 1679BOLB   PO140274   8.420  25.160   8.450
 1679BOLB   GL140275   8.470  24.750   8.770
 1679BOLB   GL240276   8.800  24.630   8.830
 1679BOLB   C1A40277   8.430  24.310   8.880
 1679BOLB   C2A40278   8.660  23.920   8.870
 1679BOLB   C3A40279   9.000  23.660   8.860
 1679BOLB   C4A40280   9.280  23.300   8.790
 1679BOLB   C1B40281   8.960  24.230   9.030
 1679BOLB   C2B40282   8.890  23.830   9.310
 1679BOLB   C3B40283   9.120  23.520   9.390
 1679BOLB   C4B40284   8.960  23.160   9.600
 1679BOLB   NC240285   8.820  24.740   7.950
 1679BOLB   PO240286   8.580  24.410   7.730
 1679BOLB   GL340287   8.810  24.110   7.960
 1679BOLB   GL440288   9.160  24.360   7.990
 1679BOLB   C1C40289   9.000  23.670   7.990
 1679BOLB   C2C40290   9.180  23.280   7.910
 1679BOLB   C3C40291   9.200  23.010   8.170
 1679BOLB   C4C40292   9.300  22.870   8.610
 1679BOLB   C1D40293   9.430  24.020   8.010
 1679BOLB   C2D40294   9.510  23.670   7.840
 1679BOLB   C3D40295   9.670  23.260   7.890
 1679BOLB   C4D40296   9.980  22.900   8.040
 1680BOLB   NC140297  21.240  12.040   2.140
 1680BOLB   PO140298  21.290  11.760   2.540
 1680BOLB   GL140299  21.120  11.750   2.940
 1680BOLB   GL240300  20.830  11.860   2.970
 1680BOLB   C1A40301  21.240  11.550   3.330
 1680BOLB   C2A40302  21.380  11.750   3.690
 1680BOLB   C3A40303  21.500  12.150   3.840
 1680BOLB   C4A40304  21.590  12.580   3.960
 1680BOLB   C1B40305  20.530  12.040   2.990
 1680BOLB   C2B40306  20.280  12.110   3.370
 1680BOLB   C3B40307  19.910  12.310   3.640
 1680BOLB   C4B40308  19.530  12.410   3.850
 1680BOLB   NC240309  23.200  13.360   2.430
 1680BOLB   PO240310  22.870  13.230   2.220
 1680BOLB   GL340311  22.650  13.320   2.610
 1680BOLB   GL440312  22.890  13.150   2.820
 1680BOLB   C1C40313  22.470  13.260   2.990
 1680BOLB   C2C40314  22.340  13.170   3.360
 1680BOLB   C3C40315  21.970  13.060   3.480
 1680BOLB   C4C40316  21.740  12.920   3.680
 1680BOLB   C1D40317  22.860  13.130   3.320
 1680BOLB   C2D40318  22.630  12.920   3.700
 1680BOLB   C3D40319  22.570  12.470   3.800
 1680BOLB   C4D40320  22.300  12.100   3.860
 1681BOLB   NC140321  12.980  18.490   5.280
 1681BOLB   PO140322  12.850  18.930   5.350
 1681BOLB   GL140323  12.490  19.170   5.030
 1681BOLB   GL240324  12.330  19.360   5.240
 1681BOLB   C1A40325  12.150  19.260   4.660
 1681BOLB   C2A40326  11.820  19.170   4.740
 1681BOLB   C3A40327  11.470  19.290   4.500
 1681BOLB   C4A40328  11.080  19.350   4.190
 1681BOLB   C1B40329  12.010  19.590   5.130
 1681BOLB   C2B40330  12.030  19.770   4.670
 1681BOLB   C3B40331  11.880  19.570   4.370
 1681BOLB   C4B40332  12.040  19.110   4.140
 1681BOLB   NC240333  10.300  21.070   2.180
 1681BOLB   PO240334  10.720  20.870   2.260
 1681BOLB   GL340335  10.720  20.540   2.680
 1681BOLB   GL440336  10.620  20.650   2.990
 1681BOLB   C1C40337  10.930  20.140   2.800
 1681BOLB   C2C40338  10.940  19.650   2.950
 1681BOLB   C3C40339  10.760  19.540   3.320
 1681BOLB   C4C40340  10.860  19.440   3.780
 1681BOLB   C1D40341  10.890  20.430   3.190
 1681BOLB   C2D40342  11.180  20.030   3.200
 1681BOLB   C3D40343  11.430  19.750   3.210
 1681BOLB   C4D40344  11.810  19.610   3.410
 1682BOLB   NC140345  16.930  15.280   4.410
 1682BOLB   PO140346  16.970  15.720   4.330
 1682BOLB   GL140347  17.100  15.570   3.910
 1682BOLB   GL240348  17.180  15.210   3.980
 1682BOLB   C1A40349  17.110  15.430   3.530
 1682BOLB   C2A40350  17.150  15.160   3.250
 1682BOLB   C3A40351  17.270  14.980   2.810
 1682BOLB   C4A40352  17.350  14.580   2.710
 1682BOLB   C1B40353  17.220  14.940   3.680
 1682BOLB   C2B40354  17.270  14.510   3.330
 1682BOLB   C3B40355  17.010  14.230   3.170
 1682BOLB   C4B40356  17.150  13.780   3.130
 1682BOLB   NC240357  17.380  13.400   0.510
 1682BOLB   PO240358  17.000  13.710   0.450
 1682BOLB   GL340359  16.920  13.840   0.830
 1682BOLB   GL440360  16.740  14.170   0.840
 1682BOLB   C1C40361  16.980  13.850   1.190
 1682BOLB   C2C40362  17.110  14.160   1.490
 1682BOLB   C3C40363  17.110  14.220   1.910
 1682BOLB   C4C40364  17.290  14.390   2.300
 1682BOLB   C1D40365  16.550  14.120   1.160
 1682BOLB   C2D40366  16.600  14.220   1.500
 1682BOLB   C3D40367  16.630  13.970   1.850
 1682BOLB   C4D40368  16.570  13.490   1.960
 1683BOLB   NC140369  22.480  22.620  12.380
 1683BOLB   PO140370  22.850  22.430  12.510
 1683BOLB   GL140371  23.140  22.550  12.270
 1683BOLB   GL240372  23.400  22.460  12.270
 1683BOLB   C1A40373  23.310  22.930  12.130
 1683BOLB   C2A40374  23.600  23.270  12.090
 1683BOLB   C3A40375  23.660  23.640  12.050
 1683BOLB   C4A40376  23.620  24.080  11.950
 1683BOLB   C1B40377  23.750  22.630  12.100
 1683BOLB   C2B40378  23.990  22.940  12.170
 1683BOLB   C3B40379  24.450  22.960  12.100
 1683BOLB   C4B40380  24.840  22.960  12.100
 1683BOLB   NC240381  25.380  26.140  11.720
 1683BOLB   PO240382  25.130  26.000  11.590
 1683BOLB   GL340383  24.710  25.810  11.390
 1683BOLB   GL440384  24.800  25.620  11.670
 1683BOLB   C1C40385  24.280  25.670  11.240
 1683BOLB   C2C40386  23.990  25.240  11.400
 1683BOLB   C3C40387  23.770  24.920  11.540
 1683BOLB   C4C40388  23.680  24.480  11.720
 1683BOLB   C1D40389  24.470  25.260  11.630
 1683BOLB   C2D40390  24.430  24.900  11.590
 1683BOLB   C3D40391  24.310  24.320  11.520
 1683BOLB   C4D40392  24.050  24.040  11.700
 1684BOLB   NC140393  19.630   5.980   8.200
 1684BOLB   PO140394  19.320   5.920   7.860
 1684BOLB   GL140395  19.130   6.250   8.040
 1684BOLB   GL240396  19.360   6.350   8.250
 1684BOLB   C1A40397  18.850   6.540   8.130
 1684BOLB   C2A40398  18.770   7.030   8.380
 1684BOLB   C3A40399  18.900   7.360   8.290
 1684BOLB   C4A40400  18.800   7.710   8.470
 1684BOLB   C1B40401  19.100   6.400   8.570
 1684BOLB   C2B40402  19.050   6.790   8.780
 1684BOLB   C3B40403  18.760   7.230   8.880
 1684BOLB   C4B40404  18.410   7.530   8.760
 1684BOLB   NC240405  18.220   9.880   9.480
 1684BOLB   PO240406  17.940   9.630   9.390
 1684BOLB   GL340407  18.090   9.220   9.340
 1684BOLB   GL440408  18.290   9.210   9.590
 1684BOLB   C1C40409  18.080   8.930   9.110
 1684BOLB   C2C40410  18.250   8.650   9.070
 1684BOLB   C3C40411  18.410   8.370   8.820
 1684BOLB   C4C40412  18.590   7.990   8.710
 1684BOLB   C1D40413  18.600   8.960   9.340
 1684BOLB   C2D40414  18.680   8.620   9.290
 1684BOLB   C3D40415  18.880   8.320   8.980
 1684BOLB   C4D40416  19.090   7.920   8.820
 1685BOLB   NC140417  19.590  24.970  12.710
 1685BOLB   PO140418  19.380  25.160  12.400
 1685BOLB   GL140419  19.610  25.400  12.100
 1685BOLB   GL240420  19.570  25.320  11.810
 1685BOLB   C1A40421  19.920  25.730  12.080
 1685BOLB   C2A40422  20.100  26.130  12.220
 1685BOLB   C3A40423  20.400  26.380  12.060
 1685BOLB   C4A40424  20.840  26.210  11.930
 1685BOLB   C1B40425  19.830  25.570  11.620
 1685BOLB   C2B40426  20.130  25.610  11.320
 1685BOLB   C3B40427  20.180  25.680  10.880
 1685BOLB   C4B40428  20.200  26.040  10.720
 1685BOLB   NC240429  23.190  27.310  12.260
 1685BOLB   PO240430  23.240  27.560  11.730
 1685BOLB   GL340431  22.950  27.160  11.760
 1685BOLB   GL440432  22.560  27.270  11.680
 1685BOLB   C1C40433  22.610  26.810  11.510
 1685BOLB   C2C40434  22.180  26.580  11.520
 1685BOLB   C3C40435  21.730  26.350  11.540
 1685BOLB   C4C40436  21.240  26.180  11.740
 1685BOLB   C1D40437  22.450  26.890  11.980
 1685BOLB   C2D40438  22.140  26.560  12.060
 1685BOLB   C3D40439  21.880  26.140  11.980
 1685BOLB   C4D40440  21.990  25.650  12.010
 1686BOLB   NC140441   7.260  19.890   5.070
 1686BOLB   PO140442   7.580  19.870   4.730
 1686BOLB   GL140443   7.650  19.510   4.990
 1686BOLB   GL240444   7.540  19.610   5.430
 1686BOLB   C1A40445   8.120  19.660   5.160
 1686BOLB   C2A40446   8.490  19.500   5.430
 1686BOLB   C3A40447   8.630  19.300   5.810
 1686BOLB   C4A40448   8.880  19.280   6.120
 1686BOLB   C1B40449   7.820  19.380   5.530
 1686BOLB   C2B40450   8.230  19.040   5.500
 1686BOLB   C3B40451   8.580  18.740   5.630
 1686BOLB   C4B40452   8.970  18.780   5.710
 1686BOLB   NC240453  10.850  18.810   7.320
 1686BOLB   PO240454  11.060  18.660   7.020
 1686BOLB   GL340455  10.760  18.620   6.730
 1686BOLB   GL440456  10.850  18.540   6.330
 1686BOLB   C1C40457  10.360  18.670   6.600
 1686BOLB   C2C40458  10.120  19.010   6.370
 1686BOLB   C3C40459   9.780  19.260   6.290
 1686BOLB   C4C40460   9.290  19.200   6.360
 1686BOLB   C1D40461  10.540  18.740   6.100
 1686BOLB   C2D40462  10.580  19.150   5.800
 1686BOLB   C3D40463  10.440  19.470   5.450
 1686BOLB   C4D40464  10.100  19.810   5.350
 1687BOLB   NC140465  18.870  17.660  19.390
 1687BOLB   PO140466  19.070  17.890  19.700
 1687BOLB   GL140467  19.200  18.140  20.110
 1687BOLB   GL240468  19.430  18.310  20.070
 1687BOLB   C1A40469  19.260  18.070  20.580
 1687BOLB   C2A40470  19.410  17.850  20.930
 1687BOLB   C3A40471  19.640  17.700  21.280
 1687BOLB   C4A40472  19.760  17.750  21.700
 1687BOLB   C1B40473  19.710  18.700  20.210
 1687BOLB   C2B40474  19.780  18.680  20.670
 1687BOLB   C3B40475  20.170  18.440  20.970
 1687BOLB   C4B40476  20.320  18.640  21.360
 1687BOLB   NC240477  21.800  18.220  23.360
 1687BOLB   PO240478  21.360  18.010  23.360
 1687BOLB   GL340479  21.210  18.070  22.900
 1687BOLB   GL440480  21.400  18.270  22.760
 1687BOLB   C1C40481  20.960  18.150  22.520
 1687BOLB   C2C40482  20.590  18.120  22.350
 1687BOLB   C3C40483  20.190  17.940  22.250
 1687BOLB   C4C40484  19.860  18.020  21.970
 1687BOLB   C1D40485  21.510  18.370  22.340
 1687BOLB   C2D40486  21.270  18.220  22.110
 1687BOLB   C3D40487  20.910  18.040  21.910
 1687BOLB   C4D40488  20.530  17.810  21.860
 1688BOLB   NC140489   7.030  18.840   4.740
 1688BOLB   PO140490   6.750  18.720   5.130
 1688BOLB   GL140491   6.920  18.550   5.550
 1688BOLB   GL240492   6.880  18.830   5.630
 1688BOLB   C1A40493   7.110  18.370   5.990
 1688BOLB   C2A40494   7.520  18.020   6.070
 1688BOLB   C3A40495   7.770  17.800   6.240
 1688BOLB   C4A40496   7.860  17.580   6.540
 1688BOLB   C1B40497   6.880  18.820   6.070
 1688BOLB   C2B40498   6.990  19.040   6.470
 1688BOLB   C3B40499   7.220  19.200   6.840
 1688BOLB   C4B40500   7.490  19.160   7.200
 1688BOLB   NC240501   9.020  16.980   8.760
 1688BOLB   PO240502   9.130  17.390   8.630
 1688BOLB   GL340503   8.760  17.420   8.380
 1688BOLB   GL440504   8.600  17.310   8.540
 1688BOLB   C1C40505   8.500  17.710   8.180
 1688BOLB   C2C40506   8.250  17.550   7.770
 1688BOLB   C3C40507   7.950  17.460   7.380
 1688BOLB   C4C40508   8.100  17.440   6.930
 1688BOLB   C1D40509   8.330  17.220   8.270
 1688BOLB   C2D40510   8.020  17.140   8.040
 1688BOLB   C3D40511   7.670  17.010   7.830
 1688BOLB   C4D40512   7.350  16.940   7.680
 1689BOLB   NC140513  17.370  19.990   5.430
 1689BOLB   PO140514  16.940  20.120   5.410
 1689BOLB   GL140515  16.880  20.370   5.160
 1689BOLB   GL240516  16.980  20.200   4.930
 1689BOLB   C1A40517  16.820  20.770   5.040
 1689BOLB   C2A40518  16.560  20.970   4.730
 1689BOLB   C3A40519  16.510  21.350   4.580
 1689BOLB   C4A40520  16.760  21.690   4.430
 1689BOLB   C1B40521  17.170  20.550   4.760
 1689BOLB   C2B40522  17.060  20.880   4.510
 1689BOLB   C3B40523  16.820  21.160   4.250
 1689BOLB   C4B40524  16.800  21.470   3.990
 1689BOLB   NC240525  16.180  23.000   2.500
 1689BOLB   PO240526  16.510  23.050   2.660
 1689BOLB   GL340527  16.540  22.680   2.710
 1689BOLB   GL440528  16.280  22.510   2.780
 1689BOLB   C1C40529  16.740  22.550   3.030
 1689BOLB   C2C40530  16.800  22.570   3.480
 1689BOLB   C3C40531  16.920  22.220   3.890
 1689BOLB   C4C40532  16.730  22.040   4.230
 1689BOLB   C1D40533  16.150  22.280   3.180
 1689BOLB   C2D40534  16.300  22.010   3.540
 1689BOLB   C3D40535  16.330  21.920   4.050
 1689BOLB   C4D40536  16.200  21.680   4.390
 1690BOLB   NC140537  11.270   9.780   2.950
 1690BOLB   PO140538  11.150   9.690   3.300
 1690BOLB   GL140539  11.250  10.080   3.420
 1690BOLB   GL240540  11.050  10.360   3.400
 1690BOLB   C1A40541  11.490  10.210   3.650
 1690BOLB   C2A40542  11.880  10.410   3.780
 1690BOLB   C3A40543  12.230  10.490   3.910
 1690BOLB   C4A40544  12.590  10.490   4.290
 1690BOLB   C1B40545  11.150  10.580   3.630
 1690BOLB   C2B40546  10.940  10.800   3.830
 1690BOLB   C3B40547  10.970  11.080   4.210
 1690BOLB   C4B40548  10.900  11.240   4.460
 1690BOLB   NC240549  12.740  11.960   6.460
 1690BOLB   PO240550  13.100  12.070   6.250
 1690BOLB   GL340551  12.820  11.660   6.040
 1690BOLB   GL440552  12.790  11.330   6.040
 1690BOLB   C1C40553  12.970  11.490   5.520
 1690BOLB   C2C40554  12.770  11.170   5.250
 1690BOLB   C3C40555  12.820  10.770   5.090
 1690BOLB   C4C40556  12.600  10.650   4.710
 1690BOLB   C1D40557  12.640  11.090   5.780
 1690BOLB   C2D40558  12.520  10.800   5.520
 1690BOLB   C3D40559  12.390  10.420   5.380
 1690BOLB   C4D40560  12.200  10.340   5.070
 1691BOLB   NC140561  12.220   9.450  11.840
 1691BOLB   PO140562  12.630   9.080  11.890
 1691BOLB   GL140563  12.650   8.640  11.880
 1691BOLB   GL240564  12.460   8.440  11.630
 1691BOLB   C1A40565  12.450   8.250  12.050
 1691BOLB   C2A40566  12.530   8.090  12.390
 1691BOLB   C3A40567  12.560   7.670  12.510
 1691BOLB   C4A40568  12.580   7.300  12.470
 1691BOLB   C1B40569  12.090   8.300  11.390
 1691BOLB   C2B40570  12.080   7.970  11.120
 1691BOLB   C3B40571  12.200   7.630  10.900
 1691BOLB   C4B40572  12.450   7.290  11.020
 1691BOLB   NC240573  13.130   5.020  11.510
 1691BOLB   PO240574  12.900   5.000  11.930
 1691BOLB   GL340575  13.140   5.420  11.860
 1691BOLB   GL440576  12.820   5.530  11.960
 1691BOLB   C1C40577  13.160   5.870  11.860
 1691BOLB   C2C40578  12.980   6.280  11.850
 1691BOLB   C3C40579  12.980   6.780  11.920
 1691BOLB   C4C40580  12.670   7.100  12.170
 1691BOLB   C1D40581  12.710   5.790  11.610
 1691BOLB   C2D40582  12.630   6.190  11.460
 1691BOLB   C3D40583  12.850   6.480  11.420
 1691BOLB   C4D40584  13.170   6.630  11.150
 1692BOLB   NC140585   8.780  27.140  19.570
 1692BOLB   PO140586   9.050  26.860  19.550
 1692BOLB   GL140587   8.880  26.470  19.560
 1692BOLB   GL240588   8.950  26.390  19.290
 1692BOLB   C1A40589   8.930  26.130  19.930
 1692BOLB   C2A40590   8.860  25.980  20.360
 1692BOLB   C3A40591   8.830  25.530  20.560
 1692BOLB   C4A40592   8.710  25.210  20.900
 1692BOLB   C1B40593   8.810  25.960  19.090
 1692BOLB   C2B40594   8.390  25.890  18.890
 1692BOLB   C3B40595   8.420  25.680  18.460
 1692BOLB   C4B40596   8.260  25.620  18.200
 1692BOLB   NC240597   7.710  26.410  21.180
 1692BOLB   PO240598   7.580  26.630  20.700
 1692BOLB   GL340599   7.480  26.150  20.710
 1692BOLB   GL440600   7.490  25.920  20.460
 1692BOLB   C1C40601   7.380  25.750  20.970
 1692BOLB   C2C40602   7.590  25.390  21.270
 1692BOLB   C3C40603   7.940  25.210  21.160
 1692BOLB   C4C40604   8.320  24.980  21.020
 1692BOLB   C1D40605   7.460  25.500  20.380
 1692BOLB   C2D40606   7.240  25.130  20.340
 1692BOLB   C3D40607   7.330  24.740  20.350
 1692BOLB   C4D40608   7.320  24.340  20.270
 1693BOLB   NC140609  17.090   9.960   6.620
 1693BOLB   PO140610  17.310   9.730   6.990
 1693BOLB   GL140611  17.090   9.340   7.250
 1693BOLB   GL240612  17.350   9.270   7.580
 1693BOLB   C1A40613  16.990   8.930   7.230
 1693BOLB   C2A40614  17.040   8.630   7.000
 1693BOLB   C3A40615  17.210   8.200   6.830
 1693BOLB   C4A40616  17.320   7.670   7.040
 1693BOLB   C1B40617  17.520   8.900   7.290
 1693BOLB   C2B40618  17.840   8.590   7.240
 1693BOLB   C3B40619  18.330   8.310   7.220
 1693BOLB   C4B40620  18.530   8.050   6.890
 1693BOLB   NC240621  19.640   5.960   6.380
 1693BOLB   PO240622  19.330   6.270   6.410
 1693BOLB   GL340623  18.980   6.480   6.350
 1693BOLB   GL440624  18.950   6.680   6.660
 1693BOLB   C1C40625  18.490   6.650   6.420
 1693BOLB   C2C40626  18.000   6.610   6.500
 1693BOLB   C3C40627  17.830   6.900   6.680
 1693BOLB   C4C40628  17.550   7.220   6.990
 1693BOLB   C1D40629  18.660   6.920   6.810
 1693BOLB   C2D40630  18.200   6.750   6.950
 1693BOLB   C3D40631  17.800   6.640   7.210
 1693BOLB   C4D40632  17.600   6.250   7.290
 1694BOLB   NC140633  19.180  17.480   4.490
 1694BOLB   PO140634  19.590  17.350   4.710
 1694BOLB   GL140635  19.640  17.390   4.270
 1694BOLB   GL240636  19.340  17.470   4.050
 1694BOLB   C1A40637  19.770  17.470   3.880
 1694BOLB   C2A40638  19.700  17.620   3.580
 1694BOLB   C3A40639  19.660  17.940   3.310
 1694BOLB   C4A40640  19.460  18.100   2.880
 1694BOLB   C1B40641  19.220  17.660   3.690
 1694BOLB   C2B40642  19.160  17.840   3.280
 1694BOLB   C3B40643  19.010  17.850   2.840
 1694BOLB   C4B40644  18.910  18.220   2.720
 1694BOLB   NC240645  20.000  17.870   0.210
 1694BOLB   PO240646  19.750  18.330   0.390
 1694BOLB   GL340647  19.720  17.930   0.650
 1694BOLB   GL440648  19.930  17.920   0.840
 1694BOLB   C1C40649  19.510  17.890   1.130
 1694BOLB   C2C40650  19.700  17.860   1.590
 1694BOLB   C3C40651  19.540  17.820   1.990
 1694BOLB   C4C40652  19.350  18.020   2.430
 1694BOLB   C1D40653  20.090  17.790   1.250
 1694BOLB   C2D40654  20.180  17.920   1.660
 1694BOLB   C3D40655  20.290  18.090   2.110
 1694BOLB   C4D40656  20.410  18.580   2.320
 1695BOLB   NC140657  16.880  22.200   6.830
 1695BOLB   PO140658  17.200  22.240   6.740
 1695BOLB   GL140659  17.550  22.490   6.670
 1695BOLB   GL240660  17.800  22.430   6.500
 1695BOLB   C1A40661  17.450  22.720   6.200
 1695BOLB   C2A40662  17.220  22.870   5.690
 1695BOLB   C3A40663  17.220  22.620   5.450
 1695BOLB   C4A40664  17.360  22.690   5.140
 1695BOLB   C1B40665  18.020  22.630   6.220
 1695BOLB   C2B40666  18.110  22.860   5.780
 1695BOLB   C3B40667  18.350  23.010   5.440
 1695BOLB   C4B40668  18.490  23.200   5.020
 1695BOLB   NC240669  17.420  24.090   3.220
 1695BOLB   PO240670  17.320  24.320   3.470
 1695BOLB   GL340671  17.410  23.910   3.680
 1695BOLB   GL440672  17.680  23.800   3.590
 1695BOLB   C1C40673  17.380  23.670   4.030
 1695BOLB   C2C40674  17.620  23.490   4.200
 1695BOLB   C3C40675  17.680  23.080   4.430
 1695BOLB   C4C40676  17.530  22.960   4.840
 1695BOLB   C1D40677  17.640  23.380   3.650
 1695BOLB   C2D40678  17.730  22.910   3.880
 1695BOLB   C3D40679  17.660  22.660   4.160
 1695BOLB   C4D40680  17.640  22.610   4.600
 1696BOLB   NC140681  10.360  17.950   7.570
 1696BOLB   PO140682  10.630  18.320   7.390
 1696BOLB   GL140683  10.380  18.540   7.100
 1696BOLB   GL240684  10.190  18.350   6.930
 1696BOLB   C1A40685  10.070  18.900   6.910
 1696BOLB   C2A40686   9.800  19.150   6.790
 1696BOLB   C3A40687   9.590  19.510   6.740
 1696BOLB   C4A40688   9.110  19.730   6.670
 1696BOLB   C1B40689   9.890  18.520   6.650
 1696BOLB   C2B40690   9.500  18.700   6.600
 1696BOLB   C3B40691   9.020  18.740   6.290
 1696BOLB   C4B40692   8.890  18.340   6.040
 1696BOLB   NC240693   7.400  20.520   5.730
 1696BOLB   PO240694   7.340  20.190   5.510
 1696BOLB   GL340695   7.490  20.030   5.860
 1696BOLB   GL440696   7.280  19.750   6.090
 1696BOLB   C1C40697   7.840  19.940   6.100
 1696BOLB   C2C40698   8.120  20.060   6.410
 1696BOLB   C3C40699   8.510  20.090   6.510
 1696BOLB   C4C40700   8.840  19.820   6.550
 1696BOLB   C1D40701   7.650  19.520   5.940
 1696BOLB   C2D40702   7.850  19.150   5.990
 1696BOLB   C3D40703   8.260  18.910   5.950
 1696BOLB   C4D40704   8.490  18.610   6.150
 1697BOLB   NC140705  21.190  20.760   7.890
 1697BOLB   PO140706  21.380  21.080   7.490
 1697BOLB   GL140707  21.520  21.130   7.060
 1697BOLB   GL240708  21.730  21.410   7.030
 1697BOLB   C1A40709  21.400  21.180   6.580
 1697BOLB   C2A40710  21.570  21.290   6.130
 1697BOLB   C3A40711  21.630  21.540   5.790
 1697BOLB   C4A40712  21.500  21.940   5.590
 1697BOLB   C1B40713  22.050  21.530   6.860
 1697BOLB   C2B40714  22.430  21.440   6.570
 1697BOLB   C3B40715  22.800  21.270   6.470
 1697BOLB   C4B40716  23.270  21.420   6.340
 1697BOLB   NC240717  21.060  23.240   3.570
 1697BOLB   PO240718  21.290  22.950   3.250
 1697BOLB   GL340719  21.220  22.780   3.640
 1697BOLB   GL440720  21.280  22.940   3.900
 1697BOLB   C1C40721  21.310  22.480   4.100
 1697BOLB   C2C40722  21.290  22.100   4.440
 1697BOLB   C3C40723  21.200  22.180   4.780
 1697BOLB   C4C40724  21.240  22.120   5.310
 1697BOLB   C1D40725  20.960  22.880   4.170
 1697BOLB   C2D40726  20.810  22.560   4.340
 1697BOLB   C3D40727  20.720  22.400   4.610
 1697BOLB   C4D40728  20.680  22.050   4.890
 1698BOLB   NC140729  14.940  23.280  18.350
 1698BOLB   PO140730  14.540  23.540  18.470
 1698BOLB   GL140731  14.380  23.970  18.650
 1698BOLB   GL240732  14.270  24.190  18.430
 1698BOLB   C1A40733  14.240  24.320  18.860
 1698BOLB   C2A40734  14.130  24.740  18.960
 1698BOLB   C3A40735  13.830  24.750  19.270
 1698BOLB   C4A40736  13.410  24.710  19.360
 1698BOLB   C1B40737  13.960  24.470  18.310
 1698BOLB   C2B40738  13.680  24.890  18.310
 1698BOLB   C3B40739  13.500  25.230  18.500
 1698BOLB   C4B40740  13.290  25.550  18.900
 1698BOLB   NC240741  12.890  27.170  20.060
 1698BOLB   PO240742  12.580  26.900  20.360
 1698BOLB   GL340743  12.890  26.620  20.240
 1698BOLB   GL440744  12.820  26.700  19.940
 1698BOLB   C1C40745  13.120  26.230  20.220
 1698BOLB   C2C40746  13.070  25.910  19.930
 1698BOLB   C3C40747  13.220  25.390  19.790
 1698BOLB   C4C40748  13.280  25.120  19.420
 1698BOLB   C1D40749  12.870  26.350  19.710
 1698BOLB   C2D40750  12.690  26.070  19.510
 1698BOLB   C3D40751  12.600  25.700  19.420
 1698BOLB   C4D40752  12.890  25.520  19.470
 1699BOLB   NC140753  18.430  22.890  23.300
 1699BOLB   PO140754  17.970  22.730  23.200
 1699BOLB   GL140755  17.910  22.690  22.810
 1699BOLB   GL240756  17.850  22.990  22.730
 1699BOLB   C1A40757  17.730  22.460  22.540
 1699BOLB   C2A40758  17.680  22.030  22.380
 1699BOLB   C3A40759  17.840  21.680  22.370
 1699BOLB   C4A40760  17.570  21.300  22.350
 1699BOLB   C1B40761  17.820  22.910  22.310
 1699BOLB   C2B40762  17.570  22.570  22.100
 1699BOLB   C3B40763  17.330  22.310  21.730
 1699BOLB   C4B40764  17.050  22.430  21.500
 1699BOLB   NC240765  17.230  22.480  24.030
 1699BOLB   PO240766  17.130  22.020  24.170
 1699BOLB   GL340767  17.050  21.700  23.850
 1699BOLB   GL440768  16.820  21.920  23.720
 1699BOLB   C1C40769  17.130  21.470  23.420
 1699BOLB   C2C40770  16.990  21.390  22.950
 1699BOLB   C3C40771  17.090  21.060  22.710
 1699BOLB   C4C40772  17.330  21.010  22.520
 1699BOLB   C1D40773  16.480  22.010  23.470
 1699BOLB   C2D40774  16.190  21.830  23.220
 1699BOLB   C3D40775  15.910  21.640  22.940
 1699BOLB   C4D40776  15.700  21.560  22.780
 1700BOLB   NC140777  11.180  23.100  14.700
 1700BOLB   PO140778  10.920  23.150  14.970
 1700BOLB   GL140779  10.490  23.440  15.060
 1700BOLB   GL240780  10.460  23.790  14.950
 1700BOLB   C1A40781  10.180  23.480  15.340
 1700BOLB   C2A40782   9.890  23.770  15.600
 1700BOLB   C3A40783   9.810  24.330  15.670
 1700BOLB   C4A40784   9.460  24.460  15.800
 1700BOLB   C1B40785  10.480  24.200  14.840
 1700BOLB   C2B40786  10.550  24.660  14.790
 1700BOLB   C3B40787  10.560  25.070  14.710
 1700BOLB   C4B40788  10.390  25.370  14.660
 1700BOLB   NC240789   7.500  25.820  14.640
 1700BOLB   PO240790   7.620  25.470  14.760
 1700BOLB   GL340791   8.070  25.360  14.850
 1700BOLB   GL440792   8.090  25.080  14.660
 1700BOLB   C1C40793   8.340  25.370  15.170
 1700BOLB   C2C40794   8.570  25.040  15.300
 1700BOLB   C3C40795   8.920  24.840  15.310
 1700BOLB   C4C40796   9.240  24.800  15.590
 1700BOLB   C1D40797   8.370  24.900  14.860
 1700BOLB   C2D40798   8.530  24.490  14.940
 1700BOLB   C3D40799   8.760  24.140  15.000
 1700BOLB   C4D40800   9.020  23.760  14.860
 1701BOLB   NC140801  14.360  24.790  11.460
 1701BOLB   PO140802  14.030  24.470  11.360
 1701BOLB   GL140803  13.990  24.940  11.170
 1701BOLB   GL240804  13.900  25.000  10.910
 1701BOLB   C1A40805  13.920  25.490  11.060
 1701BOLB   C2A40806  13.990  25.890  11.120
 1701BOLB   C3A40807  13.950  26.360  11.010
 1701BOLB   C4A40808  13.720  26.480  10.650
 1701BOLB   C1B40809  13.740  25.310  10.580
 1701BOLB   C2B40810  13.450  25.510  10.360
 1701BOLB   C3B40811  13.170  25.790  10.210
 1701BOLB   C4B40812  12.780  25.930  10.240
 1701BOLB   NC240813  13.290  28.850  11.010
 1701BOLB   PO240814  13.030  28.670  11.390
 1701BOLB   GL340815  13.080  28.360  11.080
 1701BOLB   GL440816  12.970  28.330  10.820
 1701BOLB   C1C40817  13.350  27.950  10.980
 1701BOLB   C2C40818  13.390  27.580  10.840
 1701BOLB   C3C40819  13.500  27.190  10.720
 1701BOLB   C4C40820  13.460  26.860  10.610
 1701BOLB   C1D40821  13.080  28.020  10.510
 1701BOLB   C2D40822  13.290  27.610  10.410
 1701BOLB   C3D40823  13.380  27.250  10.120
 1701BOLB   C4D40824  13.500  26.780  10.110
 1702BOLB   NC140825  20.900  23.250  15.970
 1702BOLB   PO140826  20.520  23.200  16.220
 1702BOLB   GL140827  20.890  23.330  16.480
 1702BOLB   GL240828  20.840  23.270  16.850
 1702BOLB   C1A40829  21.320  23.440  16.640
 1702BOLB   C2A40830  21.690  23.270  16.780
 1702BOLB   C3A40831  21.910  23.080  17.040
 1702BOLB   C4A40832  22.180  23.120  17.450
 1702BOLB   C1B40833  21.030  23.660  16.950
 1702BOLB   C2B40834  21.180  24.090  16.990
 1702BOLB   C3B40835  21.560  24.350  16.800
 1702BOLB   C4B40836  21.760  24.260  16.480
 1702BOLB   NC240837  23.890  24.460  18.860
 1702BOLB   PO240838  23.690  24.720  18.500
 1702BOLB   GL340839  23.390  24.550  18.240
 1702BOLB   GL440840  23.200  24.720  18.010
 1702BOLB   C1C40841  23.060  24.310  18.270
 1702BOLB   C2C40842  22.820  23.960  18.320
 1702BOLB   C3C40843  22.570  23.660  18.050
 1702BOLB   C4C40844  22.310  23.390  17.750
 1702BOLB   C1D40845  22.860  24.600  17.760
 1702BOLB   C2D40846  23.010  24.550  17.280
 1702BOLB   C3D40847  23.310  24.560  16.980
 1702BOLB   C4D40848  23.610  24.890  16.920
 1703BOLB   NC140849  17.200  22.270   7.590
 1703BOLB   PO140850  17.550  22.680   7.590
 1703BOLB   GL140851  17.670  23.010   7.370
 1703BOLB   GL240852  18.030  22.910   7.420
 1703BOLB   C1A40853  17.630  23.250   6.910
 1703BOLB   C2A40854  17.690  23.650   6.690
 1703BOLB   C3A40855  18.010  23.930   6.250
 1703BOLB   C4A40856  18.140  23.840   5.820
 1703BOLB   C1B40857  18.270  23.060   7.080
 1703BOLB   C2B40858  18.220  23.300   6.780
 1703BOLB   C3B40859  18.200  23.550   6.420
 1703BOLB   C4B40860  18.490  23.840   6.220
 1703BOLB   NC240861  17.410  25.530   4.420
 1703BOLB   PO240862  17.900  25.470   4.490
 1703BOLB   GL340863  18.000  25.100   4.730
 1703BOLB   GL440864  17.810  24.850   4.740
 1703BOLB   C1C40865  18.160  24.860   5.130
 1703BOLB   C2C40866  18.340  24.500   5.170
 1703BOLB   C3C40867  18.150  24.170   5.110
 1703BOLB   C4C40868  17.920  24.100   5.460
 1703BOLB   C1D40869  18.000  24.490   4.740
 1703BOLB   C2D40870  17.910  23.960   4.760
 1703BOLB   C3D40871  18.120  23.660   4.990
 1703BOLB   C4D40872  18.190  23.490   5.420
 1704BOLB   NC140873  15.880  20.790  20.430
 1704BOLB   PO140874  16.170  21.260  20.350
 1704BOLB   GL140875  16.270  21.640  20.510
 1704BOLB   GL240876  16.270  21.830  20.180
 1704BOLB   C1A40877  16.510  21.800  20.920
 1704BOLB   C2A40878  16.840  21.800  21.150
 1704BOLB   C3A40879  17.120  21.600  21.390
 1704BOLB   C4A40880  17.470  21.670  21.690
 1704BOLB   C1B40881  16.660  21.870  20.390
 1704BOLB   C2B40882  16.960  21.820  20.660
 1704BOLB   C3B40883  17.310  21.940  20.780
 1704BOLB   C4B40884  17.590  22.170  20.900
 1704BOLB   NC240885  17.700  23.580  22.970
 1704BOLB   PO240886  17.830  23.390  23.310
 1704BOLB   GL340887  17.470  23.150  23.120
 1704BOLB   GL440888  17.470  22.920  23.310
 1704BOLB   C1C40889  17.340  22.890  22.690
 1704BOLB   C2C40890  17.240  22.510  22.460
 1704BOLB   C3C40891  17.260  22.200  22.180
 1704BOLB   C4C40892  17.390  21.760  22.040
 1704BOLB   C1D40893  17.140  22.610  23.060
 1704BOLB   C2D40894  16.780  22.560  22.720
 1704BOLB   C3D40895  16.430  22.690  22.550
 1704BOLB   C4D40896  16.060  22.450  22.450
 1705BOLB   NC140897  14.190  11.320   6.020
 1705BOLB   PO140898  14.450  11.390   6.240
 1705BOLB   GL140899  14.580  11.080   5.790
 1705BOLB   GL240900  14.760  11.240   5.460
 1705BOLB   C1A40901  14.340  10.700   5.540
 1705BOLB   C2A40902  14.180  10.290   5.320
 1705BOLB   C3A40903  13.910  10.010   5.100
 1705BOLB   C4A40904  13.700   9.670   5.090
 1705BOLB   C1B40905  14.650  10.880   5.170
 1705BOLB   C2B40906  14.380  10.640   4.970
 1705BOLB   C3B40907  14.360  10.370   4.520
 1705BOLB   C4B40908  14.610  10.300   4.120
 1705BOLB   NC240909  13.150   7.300   4.220
 1705BOLB   PO240910  13.250   7.670   3.960
 1705BOLB   GL340911  13.500   7.940   4.290
 1705BOLB   GL440912  13.830   7.820   4.270
 1705BOLB   C1C40913  13.350   8.210   4.570
 1705BOLB   C2C40914  13.570   8.550   4.900
 1705BOLB   C3C40915  13.560   8.920   4.880
 1705BOLB   C4C40916  13.430   9.360   5.110
 1705BOLB   C1D40917  13.930   8.180   4.570
 1705BOLB   C2D40918  14.220   8.430   4.800
 1705BOLB   C3D40919  14.460   8.770   5.060
 1705BOLB   C4D40920  14.650   9.210   5.230
 1706BOLB   NC140921   9.900  16.130   7.640
 1706BOLB   PO140922   9.600  16.190   7.980
 1706BOLB   GL140923   9.250  16.470   7.730
 1706BOLB   GL240924   8.980  16.270   7.790
 1706BOLB   C1A40925   9.090  16.420   7.320
 1706BOLB   C2A40926   8.860  16.720   6.890
 1706BOLB   C3A40927   8.530  16.970   6.610
 1706BOLB   C4A40928   8.290  17.320   6.380
 1706BOLB   C1B40929   8.680  16.050   7.530
 1706BOLB   C2B40930   8.360  16.190   7.110
 1706BOLB   C3B40931   7.950  16.060   6.960
 1706BOLB   C4B40932   7.570  16.180   6.800
 1706BOLB   NC240933   6.390  16.770   5.190
 1706BOLB   PO240934   6.500  16.310   5.320
 1706BOLB   GL340935   6.760  16.720   5.580
 1706BOLB   GL440936   6.620  16.930   5.780
 1706BOLB   C1C40937   7.090  16.940   5.540
 1706BOLB   C2C40938   7.500  17.040   5.690
 1706BOLB   C3C40939   7.870  17.250   5.730
 1706BOLB   C4C40940   8.020  17.400   6.060
 1706BOLB   C1D40941   6.670  16.770   6.170
 1706BOLB   C2D40942   6.840  16.370   6.250
 1706BOLB   C3D40943   7.140  16.170   6.440
 1706BOLB   C4D40944   7.270  15.800   6.520
 1707BOLB   NC140945  19.920   7.000   5.350
 1707BOLB   PO140946  20.120   7.040   4.900
 1707BOLB   GL140947  20.020   7.450   5.010
 1707BOLB   GL240948  20.120   7.800   4.980
 1707BOLB   C1A40949  19.720   7.800   4.690
 1707BOLB   C2A40950  19.440   8.090   4.770
 1707BOLB   C3A40951  19.080   8.310   4.810
 1707BOLB   C4A40952  19.100   8.750   5.010
 1707BOLB   C1B40953  19.900   8.050   5.080
 1707BOLB   C2B40954  19.330   8.100   5.270
 1707BOLB   C3B40955  18.930   7.950   5.140
 1707BOLB   C4B40956  18.870   7.620   4.940
 1707BOLB   NC240957  20.060   6.670   6.000
 1707BOLB   PO240958  20.220   7.090   5.760
 1707BOLB   GL340959  19.980   7.440   5.670
 1707BOLB   GL440960  19.730   7.470   5.410
 1707BOLB   C1C40961  19.950   7.930   5.560
 1707BOLB   C2C40962  19.790   8.170   5.810
 1707BOLB   C3C40963  19.360   8.410   5.750
 1707BOLB   C4C40964  19.140   8.700   5.460
 1707BOLB   C1D40965  19.510   7.620   5.090
 1707BOLB   C2D40966  19.320   7.500   4.720
 1707BOLB   C3D40967  19.150   7.900   4.440
 1707BOLB   C4D40968  19.300   8.430   4.390
 1708BOLB   NC140969  22.670  12.030  11.140
 1708BOLB   PO140970  22.430  11.820  10.990
 1708BOLB   GL140971  22.650  11.560  11.290
 1708BOLB   GL240972  22.970  11.610  11.280
 1708BOLB   C1A40973  22.880  11.140  11.470
 1708BOLB   C2A40974  23.220  11.000  11.700
 1708BOLB   C3A40975  23.640  10.870  11.790
 1708BOLB   C4A40976  24.020  10.930  11.870
 1708BOLB   C1B40977  23.290  11.320  11.170
 1708BOLB   C2B40978  23.480  10.920  11.290
 1708BOLB   C3B40979  23.280  10.550  11.430
 1708BOLB   C4B40980  23.140  10.140  11.530
 1708BOLB   NC240981  26.400  10.280  12.210
 1708BOLB   PO240982  26.140  10.330  12.520
 1708BOLB   GL340983  25.830  10.580  12.710
 1708BOLB   GL440984  25.770  10.750  12.910
 1708BOLB   C1C40985  25.320  10.640  12.690
 1708BOLB   C2C40986  24.910  10.910  12.540
 1708BOLB   C3C40987  24.760  11.000  12.230
 1708BOLB   C4C40988  24.430  10.810  12.060
 1708BOLB   C1D40989  25.460  10.990  13.070
 1708BOLB   C2D40990  25.070  11.310  12.930
 1708BOLB   C3D40991  24.730  11.360  12.800
 1708BOLB   C4D40992  24.520  11.340  12.550
 1709BOLB   NC140993  11.170  15.300   6.430
 1709BOLB   PO140994  11.270  15.610   6.170
 1709BOLB   GL140995  10.920  15.720   5.970
 1709BOLB   GL240996  10.660  15.870   6.100
 1709BOLB   C1A40997  10.590  15.580   5.730
 1709BOLB   C2A40998  10.300  15.460   5.330
 1709BOLB   C3A40999  10.120  15.410   4.940
 1709BOLB   C4A41000   9.980  15.310   4.490
 1709BOLB   C1B41001  10.350  16.110   5.850
 1709BOLB   C2B41002  10.140  16.300   5.460
 1709BOLB   C3B41003   9.860  16.510   5.180
 1709BOLB   C4B41004  10.080  16.750   4.800
 1709BOLB   NC241005   8.540  15.390   2.400
 1709BOLB   PO241006   8.430  15.070   2.590
 1709BOLB   GL341007   8.870  15.140   2.920
 1709BOLB   GL441008   9.050  14.850   2.850
 1709BOLB   C1C41009   9.300  15.280   2.960
 1709BOLB   C2C41010   9.630  15.330   3.290
 1709BOLB   C3C41011   9.630  15.180   3.730
 1709BOLB   C4C41012   9.820  15.290   4.090
 1709BOLB   C1D41013   9.180  14.890   3.220
 1709BOLB   C2D41014   9.640  14.740   3.480
 1709BOLB   C3D41015   9.850  14.800   3.840
 1709BOLB   C4D41016  10.030  14.680   4.200
 1710BOLB   NC141017  19.940   9.860  10.730
 1710BOLB   PO141018  19.570   9.690  10.950
 1710BOLB   GL141019  19.760   9.290  10.850
 1710BOLB   GL241020  19.550   9.130  10.670
 1710BOLB   C1A41021  20.060   9.050  10.820
 1710BOLB   C2A41022  20.020   8.730  10.640
 1710BOLB   C3A41023  20.050   8.340  10.510
 1710BOLB   C4A41024  20.010   7.840  10.540
 1710BOLB   C1B41025  19.510   8.740  10.690
 1710BOLB   C2B41026  19.450   8.600  11.070
 1710BOLB   C3B41027  19.280   8.220  11.200
 1710BOLB   C4B41028  18.970   8.000  11.040
 1710BOLB   NC241029  21.320   5.920  11.100
 1710BOLB   PO241030  21.070   6.170  10.840
 1710BOLB   GL341031  20.980   6.640  10.900
 1710BOLB   GL441032  21.260   6.800  10.810
 1710BOLB   C1C41033  20.860   6.870  11.260
 1710BOLB   C2C41034  20.400   7.010  11.300
 1710BOLB   C3C41035  20.270   7.390  11.170
 1710BOLB   C4C41036  20.020   7.440  10.910
 1710BOLB   C1D41037  20.910   7.120  10.710
 1710BOLB   C2D41038  20.470   7.210  10.570
 1710BOLB   C3D41039  20.290   7.510  10.260
 1710BOLB   C4D41040  19.900   7.570  10.140
 1711BOLB   NC141041   5.790  18.140   6.010
 1711BOLB   PO141042   5.830  18.030   5.620
 1711BOLB   GL141043   6.110  17.780   5.870
 1711BOLB   GL241044   6.060  17.730   6.280
 1711BOLB   C1A41045   6.540  17.970   6.170
 1711BOLB   C2A41046   6.950  17.790   6.210
 1711BOLB   C3A41047   7.300  17.750   6.620
 1711BOLB   C4A41048   7.220  17.780   7.010
 1711BOLB   C1B41049   6.340  17.810   6.600
 1711BOLB   C2B41050   6.810  17.970   6.750
 1711BOLB   C3B41051   7.240  18.260   6.650
 1711BOLB   C4B41052   7.510  18.340   6.410
 1711BOLB   NC241053   5.380  18.410   6.640
 1711BOLB   PO241054   5.250  18.320   7.010
 1711BOLB   GL341055   5.710  18.290   7.130
 1711BOLB   GL441056   5.520  18.150   7.470
 1711BOLB   C1C41057   6.150  18.220   7.280
 1711BOLB   C2C41058   6.370  18.250   7.570
 1711BOLB   C3C41059   6.690  18.020   7.700
 1711BOLB   C4C41060   7.050  17.890   7.410
 1711BOLB   C1D41061   5.680  17.930   7.840
 1711BOLB   C2D41062   6.130  18.040   7.980
 1711BOLB   C3D41063   6.540  18.200   8.160
 1711BOLB   C4D41064   6.770  18.170   8.490
 1712BOLB   NC141065  23.440  16.240   8.760
 1712BOLB   PO141066  23.430  16.730   8.720
 1712BOLB   GL141067  23.750  16.740   8.460
 1712BOLB   GL241068  23.730  16.550   8.190
 1712BOLB   C1A41069  24.200  16.880   8.470
 1712BOLB   C2A41070  24.590  16.850   8.510
 1712BOLB   C3A41071  25.020  16.990   8.500
 1712BOLB   C4A41072  25.440  17.130   8.610
 1712BOLB   C1B41073  24.170  16.610   8.000
 1712BOLB   C2B41074  24.540  16.570   8.050
 1712BOLB   C3B41075  24.910  16.580   8.250
 1712BOLB   C4B41076  24.810  16.490   8.690
 1712BOLB   NC241077  28.020  17.080   8.800
 1712BOLB   PO241078  27.680  17.040   8.470
 1712BOLB   GL341079  27.480  17.180   8.350
 1712BOLB   GL441080  27.340  17.070   8.060
 1712BOLB   C1C41081  27.080  17.310   8.430
 1712BOLB   C2C41082  26.820  17.500   8.460
 1712BOLB   C3C41083  26.350  17.530   8.430
 1712BOLB   C4C41084  25.860  17.360   8.580
 1712BOLB   C1D41085  27.030  17.320   7.950
 1712BOLB   C2D41086  26.680  17.510   8.020
 1712BOLB   C3D41087  26.210  17.830   8.070
 1712BOLB   C4D41088  25.740  17.880   8.200
 1713BOLB   NC141089  11.620  23.300  12.900
 1713BOLB   PO141090  11.880  23.470  12.600
 1713BOLB   GL141091  11.560  23.710  12.530
 1713BOLB   GL241092  11.440  23.860  12.730
 1713BOLB   C1A41093  11.580  24.170  12.350
 1713BOLB   C2A41094  11.320  24.430  12.080
 1713BOLB   C3A41095  11.010  24.650  11.890
 1713BOLB   C4A41096  10.650  25.030  11.970
 1713BOLB   C1B41097  11.120  24.160  12.510
 1713BOLB   C2B41098  10.900  24.370  12.360
 1713BOLB   C3B41099  10.540  24.640  12.230
 1713BOLB   C4B41100  10.070  24.730  12.150
 1713BOLB   NC241101   9.640  27.500  10.780
 1713BOLB   PO241102   9.680  27.040  10.570
 1713BOLB   GL341103   9.720  26.600  10.720
 1713BOLB   GL441104   9.760  26.310  10.650
 1713BOLB   C1C41105   9.920  26.410  11.050
 1713BOLB   C2C41106   9.980  25.990  10.950
 1713BOLB   C3C41107  10.250  25.630  11.230
 1713BOLB   C4C41108  10.490  25.170  11.500
 1713BOLB   C1D41109   9.710  25.790  10.560
 1713BOLB   C2D41110   9.880  25.480  10.240
 1713BOLB   C3D41111  10.250  25.240  10.150
 1713BOLB   C4D41112  10.620  25.030   9.890
 1714BOLB   NC141113  22.580  13.180  13.070
 1714BOLB   PO141114  22.730  12.900  13.380
 1714BOLB   GL141115  23.020  12.880  13.180
 1714BOLB   GL241116  23.110  12.660  12.880
 1714BOLB   C1A41117  23.520  12.750  13.170
 1714BOLB   C2A41118  23.930  12.470  13.260
 1714BOLB   C3A41119  24.380  12.660  13.250
 1714BOLB   C4A41120  24.760  12.650  13.310
 1714BOLB   C1B41121  23.460  12.380  12.920
 1714BOLB   C2B41122  23.740  12.060  13.010
 1714BOLB   C3B41123  24.080  11.810  13.060
 1714BOLB   C4B41124  24.480  11.820  12.920
 1714BOLB   NC241125  26.680  11.170  13.540
 1714BOLB   PO241126  26.830  11.320  13.940
 1714BOLB   GL341127  26.570  11.580  13.890
 1714BOLB   GL441128  26.630  11.730  13.590
 1714BOLB   C1C41129  26.110  11.680  13.840
 1714BOLB   C2C41130  25.730  11.860  13.700
 1714BOLB   C3C41131  25.530  12.260  13.640
 1714BOLB   C4C41132  25.140  12.370  13.310
 1714BOLB   C1D41133  26.270  12.000  13.500
 1714BOLB   C2D41134  26.030  12.360  13.490
 1714BOLB   C3D41135  25.700  12.530  13.180
 1714BOLB   C4D41136  25.650  12.480  12.700
 1715BOLB   NC141137  15.080  21.560   6.500
 1715BOLB   PO141138  15.210  21.680   6.970
 1715BOLB   GL141139  15.180  22.000   6.670
 1715BOLB   GL241140  14.990  22.050   6.460
 1715BOLB   C1A41141  15.280  22.390   6.480
 1715BOLB   C2A41142  15.350  22.780   6.250
 1715BOLB   C3A41143  15.330  23.190   6.170
 1715BOLB   C4A41144  15.090  23.430   5.890
 1715BOLB   C1B41145  14.860  22.440   6.230
 1715BOLB   C2B41146  14.880  22.830   6.020
 1715BOLB   C3B41147  14.670  23.140   5.900
 1715BOLB   C4B41148  14.340  23.340   5.700
 1715BOLB   NC241149  15.140  25.080   4.020
 1715BOLB   PO241150  14.760  24.740   4.100
 1715BOLB   GL341151  14.720  24.440   4.450
 1715BOLB   GL441152  14.490  24.540   4.620
 1715BOLB   C1C41153  14.600  24.090   4.740
 1715BOLB   C2C41154  14.570  23.690   4.910
 1715BOLB   C3C41155  14.640  23.460   5.240
 1715BOLB   C4C41156  14.770  23.590   5.660
 1715BOLB   C1D41157  14.550  24.500   5.090
 1715BOLB   C2D41158  14.880  24.490   5.300
 1715BOLB   C3D41159  15.170  24.170   5.470
 1715BOLB   C4D41160  15.210  23.940   5.880
 1716BOLB   NC141161  21.920  14.360   7.050
 1716BOLB   PO141162  21.950  13.960   7.260
 1716BOLB   GL141163  22.340  14.030   6.990
 1716BOLB   GL241164  22.290  14.020   6.760
 1716BOLB   C1A41165  22.740  14.130   6.620
 1716BOLB   C2A41166  23.110  13.960   6.430
 1716BOLB   C3A41167  23.600  13.850   6.400
 1716BOLB   C4A41168  23.760  13.430   6.370
 1716BOLB   C1B41169  22.470  13.800   6.360
 1716BOLB   C2B41170  22.850  13.660   6.080
 1716BOLB   C3B41171  23.050  13.550   5.730
 1716BOLB   C4B41172  23.320  13.370   5.550
 1716BOLB   NC241173  25.620  12.460   5.410
 1716BOLB   PO241174  25.860  12.620   5.720
 1716BOLB   GL341175  25.390  12.650   5.760
 1716BOLB   GL441176  25.140  12.600   5.540
 1716BOLB   C1C41177  25.100  13.060   5.900
 1716BOLB   C2C41178  24.960  13.230   6.260
 1716BOLB   C3C41179  24.540  13.310   6.310
 1716BOLB   C4C41180  24.160  13.280   6.230
 1716BOLB   C1D41181  24.980  12.440   5.930
 1716BOLB   C2D41182  24.610  12.440   6.080
 1716BOLB   C3D41183  24.280  12.110   6.180
 1716BOLB   C4D41184  23.880  11.850   6.170
 1717BOLB   NC141185  16.080  23.040   8.050
 1717BOLB   PO141186  16.000  23.300   8.480
 1717BOLB   GL141187  15.950  23.770   8.430
 1717BOLB   GL241188  15.870  23.950   8.650
 1717BOLB   C1A41189  15.730  24.000   8.180
 1717BOLB   C2A41190  15.660  24.370   8.050
 1717BOLB   C3A41191  15.760  24.630   7.640
 1717BOLB   C4A41192  15.850  24.940   7.290
 1717BOLB   C1B41193  16.020  24.410   8.600
 1717BOLB   C2B41194  15.890  24.790   8.350
 1717BOLB   C3B41195  15.800  25.130   8.110
 1717BOLB   C4B41196  15.960  25.310   7.770
 1717BOLB   NC241197  15.660  26.260   5.090
 1717BOLB   PO241198  15.750  26.290   5.520
 1717BOLB   GL341199  15.730  26.050   5.860
 1717BOLB   GL441200  15.500  26.170   6.120
 1717BOLB   C1C41201  15.930  25.650   6.150
 1717BOLB   C2C41202  16.190  25.460   6.520
 1717BOLB   C3C41203  16.220  25.380   6.950
 1717BOLB   C4C41204  15.930  25.280   7.170
 1717BOLB   C1D41205  15.750  26.230   6.430
 1717BOLB   C2D41206  16.010  25.920   6.680
 1717BOLB   C3D41207  15.890  25.860   7.140
 1717BOLB   C4D41208  15.710  25.650   7.420
 1718BOLB   NC141209  11.430  23.670  14.860
 1718BOLB   PO141210  11.210  23.630  14.530
 1718BOLB   GL141211  11.140  24.160  14.390
 1718BOLB   GL241212  11.050  24.080  14.720
 1718BOLB   C1A41213  11.030  24.620  14.230
 1718BOLB   C2A41214  10.730  24.920  14.220
 1718BOLB   C3A41215  10.470  25.290  14.110
 1718BOLB   C4A41216  10.280  25.500  13.900
 1718BOLB   C1B41217  11.000  24.490  14.690
 1718BOLB   C2B41218  11.030  24.930  14.610
 1718BOLB   C3B41219  11.020  25.370  14.570
 1718BOLB   C4B41220  11.020  25.610  14.890
 1718BOLB   NC241221   8.110  26.400  15.070
 1718BOLB   PO241222   8.340  26.650  14.920
 1718BOLB   GL341223   8.800  26.470  14.810
 1718BOLB   GL441224   9.040  26.280  15.020
 1718BOLB   C1C41225   9.040  26.110  14.590
 1718BOLB   C2C41226   9.350  26.120  14.340
 1718BOLB   C3C41227   9.670  25.960  13.970
 1718BOLB   C4C41228  10.000  25.810  13.750
 1718BOLB   C1D41229   9.130  25.880  15.300
 1718BOLB   C2D41230   9.140  25.600  15.650
 1718BOLB   C3D41231   8.970  25.580  16.070
 1718BOLB   C4D41232   8.800  25.820  16.320
 1719BOLB   NC141233  22.310  16.910   6.660
 1719BOLB   PO141234  22.250  17.350   6.590
 1719BOLB   GL141235  22.500  17.270   6.290
 1719BOLB   GL241236  22.550  16.930   6.160
 1719BOLB   C1A41237  22.850  17.370   6.150
 1719BOLB   C2A41238  23.250  17.800   6.070
 1719BOLB   C3A41239  23.640  17.720   5.940
 1719BOLB   C4A41240  23.590  17.500   5.450
 1719BOLB   C1B41241  22.840  17.110   5.760
 1719BOLB   C2B41242  23.070  17.500   5.670
 1719BOLB   C3B41243  22.960  17.780   5.340
 1719BOLB   C4B41244  22.720  17.800   5.090
 1719BOLB   NC241245  25.290  16.650   3.130
 1719BOLB   PO241246  24.940  16.530   3.450
 1719BOLB   GL341247  24.630  16.720   3.770
 1719BOLB   GL441248  24.270  16.720   3.600
 1719BOLB   C1C41249  24.580  16.950   4.230
 1719BOLB   C2C41250  24.520  17.220   4.680
 1719BOLB   C3C41251  24.390  17.320   5.110
 1719BOLB   C4C41252  23.970  17.280   5.270
 1719BOLB   C1D41253  24.000  16.680   3.820
 1719BOLB   C2D41254  23.680  16.830   4.180
 1719BOLB   C3D41255  23.270  16.820   4.400
 1719BOLB   C4D41256  22.900  16.930   4.290
 1720BOLB   NC141257  20.390  21.710  17.770
 1720BOLB   PO141258  20.560  21.380  18.030
 1720BOLB   GL141259  20.600  21.870  18.290
 1720BOLB   GL241260  20.380  21.920  18.590
 1720BOLB   C1A41261  20.960  22.000  18.650
 1720BOLB   C2A41262  21.110  22.290  18.830
 1720BOLB   C3A41263  21.110  22.730  18.750
 1720BOLB   C4A41264  21.110  23.090  19.130
 1720BOLB   C1B41265  20.540  21.950  18.930
 1720BOLB   C2B41266  20.790  22.110  19.240
 1720BOLB   C3B41267  21.180  22.220  19.430
 1720BOLB   C4B41268  21.390  22.530  19.280
 1720BOLB   NC241269  22.960  23.950  20.350
 1720BOLB   PO241270  22.610  24.010  20.670
 1720BOLB   GL341271  22.460  23.720  20.330
 1720BOLB   GL441272  22.260  23.440  20.520
 1720BOLB   C1C41273  22.080  23.720  20.150
 1720BOLB   C2C41274  21.680  23.540  20.160
 1720BOLB   C3C41275  21.410  23.240  19.900
 1720BOLB   C4C41276  21.190  23.040  19.600
 1720BOLB   C1D41277  21.910  23.290  20.480
 1720BOLB   C2D41278  21.530  23.070  20.400
 1720BOLB   C3D41279  21.180  22.940  20.160
 1720BOLB   C4D41280  20.780  22.780  20.120
 1721BOLB   NC141281  14.060   9.560  15.130
 1721BOLB   PO141282  14.050   9.340  14.750
 1721BOLB   GL141283  13.960   8.950  15.050
 1721BOLB   GL241284  14.000   9.080  15.400
 1721BOLB   C1A41285  14.130   8.580  15.130
 1721BOLB   C2A41286  14.450   8.320  15.140
 1721BOLB   C3A41287  14.720   8.150  15.400
 1721BOLB   C4A41288  14.910   7.740  15.450
 1721BOLB   C1B41289  13.900   8.660  15.580
 1721BOLB   C2B41290  13.560   8.300  15.580
 1721BOLB   C3B41291  13.500   7.800  15.500
 1721BOLB   C4B41292  13.590   7.300  15.510
 1721BOLB   NC241293  15.540   5.280  15.390
 1721BOLB   PO241294  15.430   5.410  15.720
 1721BOLB   GL341295  15.150   5.740  15.690
 1721BOLB   GL441296  14.850   5.690  15.430
 1721BOLB   C1C41297  14.990   6.100  15.860
 1721BOLB   C2C41298  15.000   6.500  15.700
 1721BOLB   C3C41299  14.990   6.900  15.310
 1721BOLB   C4C41300  14.930   7.350  15.280
 1721BOLB   C1D41301  14.940   6.030  15.350
 1721BOLB   C2D41302  15.070   6.420  15.130
 1721BOLB   C3D41303  15.420   6.820  15.090
 1721BOLB   C4D41304  15.520   7.170  15.390
 1722BOLB   NC141305  23.750  13.810  12.180
 1722BOLB   PO141306  23.620  13.410  12.000
 1722BOLB   GL141307  23.900  13.070  11.760
 1722BOLB   GL241308  24.040  13.090  12.040
 1722BOLB   C1A41309  24.050  12.860  11.300
 1722BOLB   C2A41310  24.200  12.610  11.010
 1722BOLB   C3A41311  24.510  12.270  10.760
 1722BOLB   C4A41312  24.870  12.110  10.620
 1722BOLB   C1B41313  24.310  12.810  11.810
 1722BOLB   C2B41314  24.410  12.390  11.510
 1722BOLB   C3B41315  24.520  11.950  11.340
 1722BOLB   C4B41316  24.490  11.460  11.300
 1722BOLB   NC241317  26.120  10.020  11.040
 1722BOLB   PO241318  26.380  10.310  11.270
 1722BOLB   GL341319  26.040  10.420  11.360
 1722BOLB   GL441320  25.790  10.300  11.280
 1722BOLB   C1C41321  25.780  10.800  11.230
 1722BOLB   C2C41322  25.590  11.150  11.310
 1722BOLB   C3C41323  25.470  11.550  10.940
 1722BOLB   C4C41324  25.230  11.860  10.640
 1722BOLB   C1D41325  25.370  10.330  11.210
 1722BOLB   C2D41326  25.070  10.620  11.240
 1722BOLB   C3D41327  24.720  10.920  11.290
 1722BOLB   C4D41328  24.430  11.010  11.600
 1723BOLB   NC141329   1.010  15.600  12.150
 1723BOLB   PO141330   1.440  15.600  11.900
 1723BOLB   GL141331   1.930  15.600  12.030
 1723BOLB   GL241332   2.100  15.920  12.180
 1723BOLB   C1A41333   2.120  15.480  12.420
 1723BOLB   C2A41334   2.370  15.170  12.680
 1723BOLB   C3A41335   2.440  15.060  13.130
 1723BOLB   C4A41336   2.280  14.770  13.400
 1723BOLB   C1B41337   2.510  15.790  12.310
 1723BOLB   C2B41338   2.760  15.480  12.560
 1723BOLB   C3B41339   3.010  15.350  12.840
 1723BOLB   C4B41340   2.920  15.150  13.260
 1723BOLB   NC241341   1.060  13.960  13.380
 1723BOLB   PO241342   1.390  14.080  13.040
 1723BOLB   GL341343   1.830  13.910  12.970
 1723BOLB   GL441344   1.920  13.560  13.230
 1723BOLB   C1C41345   2.260  13.780  12.930
 1723BOLB   C2C41346   2.520  13.840  12.820
 1723BOLB   C3C41347   2.610  14.100  13.130
 1723BOLB   C4C41348   2.430  14.390  13.400
 1723BOLB   C1D41349   2.100  14.050  13.620
 1723BOLB   C2D41350   2.150  14.320  13.980
 1723BOLB   C3D41351   2.360  14.570  14.210
 1723BOLB   C4D41352   2.850  14.730  14.140
 1724BOLB   NC141353  16.560  23.940   9.180
 1724BOLB   PO141354  16.120  23.770   9.130
 1724BOLB   GL141355  16.120  24.120   9.050
 1724BOLB   GL241356  16.410  24.160   8.770
 1724BOLB   C1A41357  16.070  24.600   9.050
 1724BOLB   C2A41358  16.200  24.960   8.830
 1724BOLB   C3A41359  16.090  25.310   8.490
 1724BOLB   C4A41360  16.040  25.650   8.250
 1724BOLB   C1B41361  16.540  24.560   8.610
 1724BOLB   C2B41362  16.370  24.900   8.370
 1724BOLB   C3B41363  16.590  25.080   7.950
 1724BOLB   C4B41364  16.400  25.540   7.810
 1724BOLB   NC241365  16.590  27.370   6.490
 1724BOLB   PO241366  16.760  27.550   6.860
 1724BOLB   GL341367  16.580  27.130   6.940
 1724BOLB   GL441368  16.710  27.220   7.290
 1724BOLB   C1C41369  16.430  26.700   6.950
 1724BOLB   C2C41370  16.170  26.320   7.230
 1724BOLB   C3C41371  16.060  26.100   7.530
 1724BOLB   C4C41372  16.030  25.890   7.830
 1724BOLB   C1D41373  16.780  26.810   7.390
 1724BOLB   C2D41374  16.870  26.460   7.560
 1724BOLB   C3D41375  17.050  26.040   7.480
 1724BOLB   C4D41376  16.970  25.520   7.590
 1725BOLB   NC141377  16.390   8.920  14.890
 1725BOLB   PO141378  16.730   8.850  14.650
 1725BOLB   GL141379  16.300   8.550  14.550
 1725BOLB   GL241380  16.130   8.580  14.250
 1725BOLB   C1A41381  16.100   8.110  14.620
 1725BOLB   C2A41382  16.140   7.670  14.620
 1725BOLB   C3A41383  16.020   7.220  14.570
 1725BOLB   C4A41384  15.810   6.780  14.520
 1725BOLB   C1B41385  16.150   8.060  14.100
 1725BOLB   C2B41386  16.370   7.590  14.120
 1725BOLB   C3B41387  16.500   7.190  13.840
 1725BOLB   C4B41388  16.570   7.140  13.480
 1725BOLB   NC241389  14.610   4.590  14.840
 1725BOLB   PO241390  14.780   4.830  14.510
 1725BOLB   GL341391  14.810   5.260  14.440
 1725BOLB   GL441392  14.650   5.290  14.460
 1725BOLB   C1C41393  14.860   5.510  14.850
 1725BOLB   C2C41394  15.180   5.790  14.970
 1725BOLB   C3C41395  15.410   6.170  14.870
 1725BOLB   C4C41396  15.510   6.510  14.580
 1725BOLB   C1D41397  14.500   5.590  14.120
 1725BOLB   C2D41398  14.290   5.800  13.770
 1725BOLB   C3D41399  14.290   6.240  13.730
 1725BOLB   C4D41400  14.590   6.670  13.730
 1726BOLB   NC141401  23.760  18.750   9.890
 1726BOLB   PO141402  24.140  18.670   9.510
 1726BOLB   GL141403  24.540  18.650   9.420
 1726BOLB   GL241404  24.380  18.760   9.080
 1726BOLB   C1A41405  25.030  18.670   9.400
 1726BOLB   C2A41406  25.380  18.490   9.180
 1726BOLB   C3A41407  25.540  18.200   8.940
 1726BOLB   C4A41408  25.870  18.320   8.610
 1726BOLB   C1B41409  24.810  18.600   8.940
 1726BOLB   C2B41410  25.160  18.860   8.980
 1726BOLB   C3B41411  25.540  19.200   8.850
 1726BOLB   C4B41412  25.920  19.400   8.660
 1726BOLB   NC241413  27.260  18.220   6.210
 1726BOLB   PO241414  26.970  18.300   6.550
 1726BOLB   GL341415  26.740  18.410   6.980
 1726BOLB   GL441416  26.600  18.710   6.990
 1726BOLB   C1C41417  26.680  18.120   7.340
 1726BOLB   C2C41418  26.430  18.100   7.660
 1726BOLB   C3C41419  26.180  18.260   7.910
 1726BOLB   C4C41420  26.190  18.370   8.270
 1726BOLB   C1D41421  26.480  18.520   7.420
 1726BOLB   C2D41422  26.500  18.630   7.790
 1726BOLB   C3D41423  26.130  18.800   8.170
 1726BOLB   C4D41424  26.020  18.820   8.530
 1727BOLB   NC141425  22.340  22.620   9.670
 1727BOLB   PO141426  21.930  22.760   9.860
 1727BOLB   GL141427  22.030  23.140   9.780
 1727BOLB   GL241428  22.110  23.260  10.020
 1727BOLB   C1A41429  22.130  23.470   9.580
 1727BOLB   C2A41430  22.410  23.820   9.560
 1727BOLB   C3A41431  22.810  24.240   9.590
 1727BOLB   C4A41432  22.880  24.730   9.680
 1727BOLB   C1B41433  22.480  23.300   9.890
 1727BOLB   C2B41434  22.690  23.590   9.940
 1727BOLB   C3B41435  22.980  23.960  10.080
 1727BOLB   C4B41436  23.210  24.360  10.290
 1727BOLB   NC241437  23.090  26.730   8.090
 1727BOLB   PO241438  23.350  26.380   8.180
 1727BOLB   GL341439  23.320  26.060   8.460
 1727BOLB   GL441440  23.620  25.860   8.510
 1727BOLB   C1C41441  23.060  25.840   8.750
 1727BOLB   C2C41442  23.100  25.640   9.120
 1727BOLB   C3C41443  22.900  25.410   9.510
 1727BOLB   C4C41444  22.830  25.070   9.780
 1727BOLB   C1D41445  23.350  25.440   8.490
 1727BOLB   C2D41446  23.170  25.160   8.720
 1727BOLB   C3D41447  22.820  25.130   9.000
 1727BOLB   C4D41448  22.570  24.970   9.380
 1728BOLB   NC141449  22.520  21.140   9.180
 1728BOLB   PO141450  22.910  21.270   9.410
 1728BOLB   GL141451  23.310  21.540   9.230
 1728BOLB   GL241452  23.550  21.420   9.150
 1728BOLB   C1A41453  23.510  21.920   9.110
 1728BOLB   C2A41454  23.680  22.220   8.900
 1728BOLB   C3A41455  23.790  22.680   8.680
 1728BOLB   C4A41456  23.690  22.870   8.320
 1728BOLB   C1B41457  23.870  21.570   9.210
 1728BOLB   C2B41458  24.360  21.620   9.310
 1728BOLB   C3B41459  24.720  21.740   9.380
 1728BOLB   C4B41460  24.870  21.810   9.790
 1728BOLB   NC241461  24.940  24.720   7.720
 1728BOLB   PO241462  24.970  24.670   8.100
 1728BOLB   GL341463  24.560  24.430   7.840
 1728BOLB   GL441464  24.480  24.650   7.560
 1728BOLB   C1C41465  24.370  24.140   7.810
 1728BOLB   C2C41466  24.160  23.840   7.810
 1728BOLB   C3C41467  24.050  23.500   7.900
 1728BOLB   C4C41468  23.960  23.000   7.950
 1728BOLB   C1D41469  24.060  24.510   7.520
 1728BOLB   C2D41470  23.850  24.210   7.690
 1728BOLB   C3D41471  23.670  23.820   7.700
 1728BOLB   C4D41472  23.360  23.760   7.420
 1729BOLB   NC141473  14.430  27.610   6.530
 1729BOLB   PO141474  14.920  27.450   6.780
 1729BOLB   GL141475  14.970  27.370   7.230
 1729BOLB   GL241476  15.080  27.040   7.220
 1729BOLB   C1A41477  15.020  27.330   7.620
 1729BOLB   C2A41478  15.260  27.180   7.830
 1729BOLB   C3A41479  15.480  26.890   8.070
 1729BOLB   C4A41480  15.640  26.400   7.980
 1729BOLB   C1B41481  15.260  26.660   6.980
 1729BOLB   C2B41482  15.310  26.180   6.850
 1729BOLB   C3B41483  15.430  25.810   7.020
 1729BOLB   C4B41484  15.260  25.480   7.310
 1729BOLB   NC241485  15.260  26.900   6.080
 1729BOLB   PO241486  14.930  26.930   6.370
 1729BOLB   GL341487  14.930  26.840   6.710
 1729BOLB   GL441488  14.560  26.690   6.620
 1729BOLB   C1C41489  14.710  26.710   7.140
 1729BOLB   C2C41490  14.920  26.350   7.280
 1729BOLB   C3C41491  15.260  26.120   7.340
 1729BOLB   C4C41492  15.590  26.150   7.620
 1729BOLB   C1D41493  14.830  26.280   6.740
 1729BOLB   C2D41494  14.900  25.860   6.930
 1729BOLB   C3D41495  15.030  25.550   6.760
 1729BOLB   C4D41496  15.160  25.180   6.560
 1730BOLB   NC141497  26.700  23.440   9.880
 1730BOLB   PO141498  26.550  23.720  10.200
 1730BOLB   GL141499  26.240  23.510  10.020
 1730BOLB   GL241500  26.260  23.410   9.640
 1730BOLB   C1A41501  25.840  23.480   9.970
 1730BOLB   C2A41502  25.520  23.660  10.020
 1730BOLB   C3A41503  25.440  23.810  10.390
 1730BOLB   C4A41504  25.060  23.930  10.530
 1730BOLB   C1B41505  25.890  23.150   9.600
 1730BOLB   C2B41506  25.510  23.040   9.860
 1730BOLB   C3B41507  25.100  22.950  10.060
 1730BOLB   C4B41508  24.710  22.910  10.150
 1730BOLB   NC241509  25.410  25.580  11.660
 1730BOLB   PO241510  25.850  25.480  11.440
 1730BOLB   GL341511  25.530  25.180  11.460
 1730BOLB   GL441512  25.600  24.850  11.640
 1730BOLB   C1C41513  25.020  25.040  11.270
 1730BOLB   C2C41514  24.690  24.720  11.230
 1730BOLB   C3C41515  24.580  24.290  11.100
 1730BOLB   C4C41516  24.700  24.080  10.800
 1730BOLB   C1D41517  25.280  24.570  11.350
 1730BOLB   C2D41518  25.050  24.240  11.190
 1730BOLB   C3D41519  24.970  23.740  11.280
 1730BOLB   C4D41520  24.960  23.420  11.700
 1731BOLB   NC141521   9.280  21.150  12.840
 1731BOLB   PO141522   8.890  21.280  12.870
 1731BOLB   GL141523   8.450  21.270  12.860
 1731BOLB   GL241524   8.320  21.130  12.670
 1731BOLB   C1A41525   8.020  21.420  13.070
 1731BOLB   C2A41526   7.690  21.610  13.270
 1731BOLB   C3A41527   7.260  21.750  13.360
 1731BOLB   C4A41528   6.930  21.980  13.510
 1731BOLB   C1B41529   7.920  21.360  12.560
 1731BOLB   C2B41530   7.540  21.580  12.570
 1731BOLB   C3B41531   7.130  21.920  12.390
 1731BOLB   C4B41532   6.690  22.070  12.460
 1731BOLB   NC241533   5.400  23.490  13.110
 1731BOLB   PO241534   5.200  23.430  13.510
 1731BOLB   GL341535   5.160  23.150  13.810
 1731BOLB   GL441536   5.540  23.080  13.960
 1731BOLB   C1C41537   5.360  22.640  13.900
 1731BOLB   C2C41538   5.760  22.320  13.860
 1731BOLB   C3C41539   6.230  22.250  14.020
 1731BOLB   C4C41540   6.610  22.270  13.690
 1731BOLB   C1D41541   5.850  22.930  13.720
 1731BOLB   C2D41542   6.220  22.680  13.660
 1731BOLB   C3D41543   6.550  22.680  13.320
 1731BOLB   C4D41544   6.850  22.400  13.250
 1732BOLB   NC141545  14.550  18.150   4.910
 1732BOLB   PO141546  14.270  18.060   4.530
 1732BOLB   GL141547  14.140  18.360   4.200
 1732BOLB   GL241548  13.960  18.660   4.230
 1732BOLB   C1A41549  14.200  18.310   3.720
 1732BOLB   C2A41550  14.410  18.210   3.250
 1732BOLB   C3A41551  14.760  18.260   2.940
 1732BOLB   C4A41552  14.980  18.150   2.650
 1732BOLB   C1B41553  14.070  19.080   3.900
 1732BOLB   C2B41554  13.830  19.170   3.580
 1732BOLB   C3B41555  13.590  19.230   3.290
 1732BOLB   C4B41556  13.620  19.610   2.980
 1732BOLB   NC241557  14.260  17.340   0.600
 1732BOLB   PO241558  14.330  17.640   0.480
 1732BOLB   GL341559  14.650  17.950   0.770
 1732BOLB   GL441560  14.880  17.860   1.050
 1732BOLB   C1C41561  14.500  18.120   1.120
 1732BOLB   C2C41562  14.620  18.170   1.490
 1732BOLB   C3C41563  14.750  18.400   1.820
 1732BOLB   C4C41564  15.060  18.240   2.130
 1732BOLB   C1D41565  14.850  17.650   1.430
 1732BOLB   C2D41566  14.990  17.890   1.810
 1732BOLB   C3D41567  15.190  17.790   2.310
 1732BOLB   C4D41568  15.600  17.700   2.410
 1733BOLB   NC141569  16.990   6.990  22.050
 1733BOLB   PO141570  16.850   7.010  21.570
 1733BOLB   GL141571  16.530   7.170  21.300
 1733BOLB   GL241572  16.580   7.460  21.600
 1733BOLB   C1A41573  16.310   7.590  21.120
 1733BOLB   C2A41574  15.980   7.710  21.030
 1733BOLB   C3A41575  15.760   8.190  20.950
 1733BOLB   C4A41576  15.870   8.550  21.140
 1733BOLB   C1B41577  16.270   7.780  21.600
 1733BOLB   C2B41578  15.930   7.910  21.800
 1733BOLB   C3B41579  15.670   8.250  21.960
 1733BOLB   C4B41580  15.370   8.560  21.730
 1733BOLB   NC241581  17.790   7.340  20.770
 1733BOLB   PO241582  17.860   7.740  21.000
 1733BOLB   GL341583  17.510   8.010  20.730
 1733BOLB   GL441584  17.560   8.280  20.370
 1733BOLB   C1C41585  17.410   8.460  20.760
 1733BOLB   C2C41586  17.020   8.710  20.810
 1733BOLB   C3C41587  16.610   8.740  20.940
 1733BOLB   C4C41588  16.290   8.780  21.090
 1733BOLB   C1D41589  17.330   8.520  20.110
 1733BOLB   C2D41590  17.170   8.600  19.740
 1733BOLB   C3D41591  17.100   8.970  19.590
 1733BOLB   C4D41592  17.110   9.340  19.600
 1734BOLB   NC141593  22.570  14.020  14.160
 1734BOLB   PO141594  22.780  14.290  14.330
 1734BOLB   GL141595  23.240  14.360  14.530
 1734BOLB   GL241596  23.330  14.620  14.460
 1734BOLB   C1A41597  23.450  14.020  14.600
 1734BOLB   C2A41598  23.750  13.920  14.840
 1734BOLB   C3A41599  24.160  13.750  15.020
 1734BOLB   C4A41600  24.490  13.790  15.290
 1734BOLB   C1B41601  23.600  14.720  14.750
 1734BOLB   C2B41602  23.950  15.060  14.950
 1734BOLB   C3B41603  24.230  15.000  15.290
 1734BOLB   C4B41604  24.360  14.620  15.560
 1734BOLB   NC241605  26.340  12.370  15.430
 1734BOLB   PO241606  26.620  12.770  15.300
 1734BOLB   GL341607  26.340  12.910  15.200
 1734BOLB   GL441608  26.220  12.730  15.040
 1734BOLB   C1C41609  25.970  13.090  15.270
 1734BOLB   C2C41610  25.560  13.310  15.480
 1734BOLB   C3C41611  25.300  13.500  15.330
 1734BOLB   C4C41612  24.950  13.670  15.420
 1734BOLB   C1D41613  25.850  12.720  14.930
 1734BOLB   C2D41614  25.450  12.750  14.780
 1734BOLB   C3D41615  25.080  12.900  14.510
 1734BOLB   C4D41616  24.770  13.150  14.580
 1735BOLB   NC141617  22.520  20.840  15.820
 1735BOLB   PO141618  22.340  21.060  16.200
 1735BOLB   GL141619  22.410  21.230  16.550
 1735BOLB   GL241620  22.560  21.100  16.800
 1735BOLB   C1A41621  22.660  21.550  16.770
 1735BOLB   C2A41622  22.810  21.580  17.120
 1735BOLB   C3A41623  23.060  21.370  17.480
 1735BOLB   C4A41624  23.160  21.250  17.830
 1735BOLB   C1B41625  23.000  21.150  16.980
 1735BOLB   C2B41626  23.410  21.200  17.160
 1735BOLB   C3B41627  23.880  21.140  17.190
 1735BOLB   C4B41628  24.230  21.170  17.150
 1735BOLB   NC241629  24.750  21.730  19.420
 1735BOLB   PO241630  24.960  22.040  19.130
 1735BOLB   GL341631  24.790  21.730  18.770
 1735BOLB   GL441632  24.770  21.850  18.460
 1735BOLB   C1C41633  24.570  21.310  18.610
 1735BOLB   C2C41634  24.130  21.190  18.580
 1735BOLB   C3C41635  23.680  21.080  18.450
 1735BOLB   C4C41636  23.430  21.090  18.180
 1735BOLB   C1D41637  24.740  21.510  18.200
 1735BOLB   C2D41638  24.320  21.230  18.100
 1735BOLB   C3D41639  24.110  21.030  18.000
 1735BOLB   C4D41640  23.870  20.740  18.190
 1736BOLB   NC141641  10.290  10.520  11.000
 1736BOLB   PO141642  10.280  10.770  10.610
 1736BOLB   GL141643  10.030  10.490  10.460
 1736BOLB   GL241644   9.820  10.370  10.700
 1736BOLB   C1A41645  10.010  10.100  10.280
 1736BOLB   C2A41646   9.810   9.790  10.210
 1736BOLB   C3A41647   9.650   9.350  10.130
 1736BOLB   C4A41648   9.470   8.940   9.930
 1736BOLB   C1B41649   9.660   9.960  10.630
 1736BOLB   C2B41650   9.590   9.490  10.630
 1736BOLB   C3B41651   9.670   8.990  10.530
 1736BOLB   C4B41652   9.600   8.620  10.330
 1736BOLB   NC241653   7.860   7.180  10.350
 1736BOLB   PO241654   8.080   6.790  10.430
 1736BOLB   GL341655   8.350   7.110  10.550
 1736BOLB   GL441656   8.160   7.420  10.640
 1736BOLB   C1C41657   8.660   7.540  10.550
 1736BOLB   C2C41658   8.950   7.890  10.320
 1736BOLB   C3C41659   8.960   8.400  10.270
 1736BOLB   C4C41660   9.170   8.730  10.000
 1736BOLB   C1D41661   8.240   7.870  10.660
 1736BOLB   C2D41662   8.610   8.190  10.670
 1736BOLB   C3D41663   8.830   8.690  10.650
 1736BOLB   C4D41664   9.210   8.880  10.620
 1737BOLB   NC141665  18.350  23.950   9.800
 1737BOLB   PO141666  17.980  23.980   9.570
 1737BOLB   GL141667  17.870  24.290   9.290
 1737BOLB   GL241668  17.530  24.320   9.160
 1737BOLB   C1A41669  18.020  24.720   9.280
 1737BOLB   C2A41670  18.010  25.210   9.360
 1737BOLB   C3A41671  17.890  25.600   9.180
 1737BOLB   C4A41672  17.790  26.060   9.180
 1737BOLB   C1B41673  17.730  24.630   8.810
 1737BOLB   C2B41674  17.800  24.900   8.460
 1737BOLB   C3B41675  17.910  24.780   8.000
 1737BOLB   C4B41676  17.720  24.690   7.660
 1737BOLB   NC241677  18.580  27.760   7.710
 1737BOLB   PO241678  18.270  27.840   8.030
 1737BOLB   GL341679  18.190  27.780   8.570
 1737BOLB   GL441680  18.060  28.070   8.620
 1737BOLB   C1C41681  17.840  27.660   8.850
 1737BOLB   C2C41682  17.700  27.240   8.940
 1737BOLB   C3C41683  17.600  26.810   8.970
 1737BOLB   C4C41684  17.810  26.460   9.060
 1737BOLB   C1D41685  18.110  27.980   9.090
 1737BOLB   C2D41686  18.170  27.780   9.340
 1737BOLB   C3D41687  18.050  27.570   9.780
 1737BOLB   C4D41688  17.890  27.480  10.120
 1738BOLB   NC141689  22.700  19.430  15.950
 1738BOLB   PO141690  22.530  19.480  16.310
 1738BOLB   GL141691  22.940  19.570  16.450
 1738BOLB   GL241692  22.960  19.430  16.620
 1738BOLB   C1A41693  23.410  19.630  16.490
 1738BOLB   C2A41694  23.590  19.970  16.850
 1738BOLB   C3A41695  23.740  20.320  16.940
 1738BOLB   C4A41696  23.840  20.670  17.300
 1738BOLB   C1B41697  23.330  19.500  16.940
 1738BOLB   C2B41698  23.850  19.560  16.960
 1738BOLB   C3B41699  23.990  19.880  17.280
 1738BOLB   C4B41700  24.210  19.670  17.610
 1738BOLB   NC241701  25.970  21.780  16.970
 1738BOLB   PO241702  26.040  22.020  17.370
 1738BOLB   GL341703  25.540  21.800  17.320
 1738BOLB   GL441704  25.480  21.650  17.040
 1738BOLB   C1C41705  25.170  21.520  17.480
 1738BOLB   C2C41706  24.930  21.310  17.770
 1738BOLB   C3C41707  24.610  20.970  17.760
 1738BOLB   C4C41708  24.290  20.760  17.530
 1738BOLB   C1D41709  25.110  21.680  16.990
 1738BOLB   C2D41710  24.710  21.480  17.030
 1738BOLB   C3D41711  24.660  21.180  17.320
 1738BOLB   C4D41712  25.050  20.780  17.500
 1739BOLB   NC141713  18.870  24.400  11.490
 1739BOLB   PO141714  18.950  24.820  11.600
 1739BOLB   GL141715  19.100  25.220  11.550
 1739BOLB   GL241716  19.110  25.420  11.850
 1739BOLB   C1A41717  19.340  25.530  11.380
 1739BOLB   C2A41718  19.460  25.920  11.340
 1739BOLB   C3A41719  19.580  26.350  11.380
 1739BOLB   C4A41720  19.560  26.800  11.370
 1739BOLB   C1B41721  19.360  25.800  11.790
 1739BOLB   C2B41722  19.500  26.280  11.970
 1739BOLB   C3B41723  19.790  26.400  11.830
 1739BOLB   C4B41724  19.990  26.110  11.590
 1739BOLB   NC241725  20.390  28.540  10.790
 1739BOLB   PO241726  20.000  28.790  10.700
 1739BOLB   GL341727  19.870  28.470  10.930
 1739BOLB   GL441728  20.170  28.180  11.080
 1739BOLB   C1C41729  19.830  28.020  10.710
 1739BOLB   C2C41730  19.600  27.720  10.730
 1739BOLB   C3C41731  19.510  27.470  10.930
 1739BOLB   C4C41732  19.340  27.220  11.220
 1739BOLB   C1D41733  19.760  28.070  11.180
 1739BOLB   C2D41734  19.510  27.800  11.330
 1739BOLB   C3D41735  19.260  27.590  11.650
 1739BOLB   C4D41736  19.330  27.450  12.060
 1740BOLB   NC141737  22.630  15.910   8.200
 1740BOLB   PO141738  22.910  15.830   8.580
 1740BOLB   GL141739  23.290  15.910   8.280
 1740BOLB   GL241740  23.500  16.120   8.320
 1740BOLB   C1A41741  23.380  15.790   7.860
 1740BOLB   C2A41742  23.640  15.830   7.470
 1740BOLB   C3A41743  23.680  15.550   6.990
 1740BOLB   C4A41744  23.820  15.480   6.550
 1740BOLB   C1B41745  23.690  16.210   7.830
 1740BOLB   C2B41746  24.030  16.070   7.560
 1740BOLB   C3B41747  24.110  15.910   7.150
 1740BOLB   C4B41748  24.110  15.980   6.710
 1740BOLB   NC241749  25.830  14.970   5.100
 1740BOLB   PO241750  25.850  15.360   5.270
 1740BOLB   GL341751  25.470  15.260   5.500
 1740BOLB   GL441752  25.510  15.170   5.750
 1740BOLB   C1C41753  25.080  14.960   5.610
 1740BOLB   C2C41754  24.700  14.780   5.830
 1740BOLB   C3C41755  24.410  14.980   6.130
 1740BOLB   C4C41756  24.220  15.340   6.350
 1740BOLB   C1D41757  25.290  15.450   6.040
 1740BOLB   C2D41758  24.920  15.670   6.250
 1740BOLB   C3D41759  24.480  15.860   6.410
 1740BOLB   C4D41760  24.070  15.820   6.220
 1741BOLB   NC141761  14.750  24.750  13.420
 1741BOLB   PO141762  14.610  24.990  13.110
 1741BOLB   GL141763  14.370  25.350  13.030
 1741BOLB   GL241764  14.550  25.650  12.900
 1741BOLB   C1A41765  14.080  25.750  12.950
 1741BOLB   C2A41766  14.260  26.080  12.790
 1741BOLB   C3A41767  14.090  26.380  12.490
 1741BOLB   C4A41768  13.990  26.790  12.490
 1741BOLB   C1B41769  14.720  26.010  13.080
 1741BOLB   C2B41770  14.580  26.370  13.120
 1741BOLB   C3B41771  14.430  26.620  12.790
 1741BOLB   C4B41772  14.390  26.990  12.970
 1741BOLB   NC241773  13.230  29.180  12.660
 1741BOLB   PO241774  12.880  28.930  12.330
 1741BOLB   GL341775  12.990  28.660  12.110
 1741BOLB   GL441776  13.010  28.540  11.870
 1741BOLB   C1C41777  13.130  28.240  12.360
 1741BOLB   C2C41778  13.470  27.920  12.460
 1741BOLB   C3C41779  13.770  27.650  12.540
 1741BOLB   C4C41780  13.960  27.220  12.550
 1741BOLB   C1D41781  12.780  28.180  11.960
 1741BOLB   C2D41782  12.660  27.800  11.860
 1741BOLB   C3D41783  12.780  27.360  12.030
 1741BOLB   C4D41784  13.050  27.130  12.290
 1742BOLB   NC141785  15.550  17.300   0.450
 1742BOLB   PO141786  15.630  17.540   0.090
 1742BOLB   GL141787  15.830  17.720   0.490
 1742BOLB   GL241788  16.000  17.570   0.660
 1742BOLB   C1A41789  15.680  17.920   0.910
 1742BOLB   C2A41790  15.620  18.230   1.240
 1742BOLB   C3A41791  15.400  18.570   1.220
 1742BOLB   C4A41792  15.440  19.020   1.450
 1742BOLB   C1B41793  15.970  17.450   1.060
 1742BOLB   C2B41794  15.810  17.130   1.430
 1742BOLB   C3B41795  15.480  16.930   1.770
 1742BOLB   C4B41796  15.100  16.680   1.890
 1742BOLB   NC241797  15.250  20.350   0.120
 1742BOLB   PO241798  15.290  20.450   0.650
 1742BOLB   GL341799  15.250  20.520   1.140
 1742BOLB   GL441800  15.130  20.270   1.340
 1742BOLB   C1C41801  15.520  20.470   1.510
 1742BOLB   C2C41802  15.680  20.240   1.860
 1742BOLB   C3C41803  15.620  19.890   1.880
 1742BOLB   C4C41804  15.520  19.510   1.680
 1742BOLB   C1D41805  15.140  20.030   1.690
 1742BOLB   C2D41806  15.180  19.840   2.100
 1742BOLB   C3D41807  15.440  19.430   2.200
 1742BOLB   C4D41808  15.420  19.030   1.960
 1743BOLB   NC141809   7.820  18.390  10.570
 1743BOLB   PO141810   7.680  18.110  10.860
 1743BOLB   GL141811   7.300  18.290  10.630
 1743BOLB   GL241812   7.250  18.390  10.300
 1743BOLB   C1A41813   6.910  18.400  10.730
 1743BOLB   C2A41814   6.630  18.810  10.620
 1743BOLB   C3A41815   6.420  19.130  10.790
 1743BOLB   C4A41816   6.070  19.380  10.810
 1743BOLB   C1B41817   6.850  18.110  10.330
 1743BOLB   C2B41818   6.420  18.050  10.360
 1743BOLB   C3B41819   6.040  17.760  10.390
 1743BOLB   C4B41820   6.120  17.280  10.380
 1743BOLB   NC241821   3.930  20.110  10.480
 1743BOLB   PO241822   4.040  19.960  10.910
 1743BOLB   GL341823   4.320  20.160  11.250
 1743BOLB   GL441824   4.220  20.150  11.570
 1743BOLB   C1C41825   4.700  20.020  11.380
 1743BOLB   C2C41826   5.010  19.860  11.160
 1743BOLB   C3C41827   5.270  19.690  10.860
 1743BOLB   C4C41828   5.670  19.480  10.740
 1743BOLB   C1D41829   4.040  19.940  11.960
 1743BOLB   C2D41830   3.900  19.840  12.330
 1743BOLB   C3D41831   3.590  19.500  12.340
 1743BOLB   C4D41832   3.420  19.180  12.590
 1744BOLB   NC141833  22.520  13.830   9.420
 1744BOLB   PO141834  22.730  13.410   9.330
 1744BOLB   GL141835  23.100  13.210   9.180
 1744BOLB   GL241836  23.420  13.210   9.160
 1744BOLB   C1A41837  23.230  12.820   8.990
 1744BOLB   C2A41838  23.500  12.550   8.860
 1744BOLB   C3A41839  23.870  12.490   8.570
 1744BOLB   C4A41840  24.010  12.210   8.410
 1744BOLB   C1B41841  23.700  12.900   9.100
 1744BOLB   C2B41842  23.860  12.910   8.780
 1744BOLB   C3B41843  24.180  12.920   8.500
 1744BOLB   C4B41844  24.350  13.280   8.400
 1744BOLB   NC241845  25.310  10.650   6.640
 1744BOLB   PO241846  24.970  10.250   6.900
 1744BOLB   GL341847  24.890  10.530   7.160
 1744BOLB   GL441848  24.570  10.670   7.130
 1744BOLB   C1C41849  24.980  10.880   7.470
 1744BOLB   C2C41850  24.760  11.270   7.760
 1744BOLB   C3C41851  24.550  11.620   8.110
 1744BOLB   C4C41852  24.310  11.890   8.280
 1744BOLB   C1D41853  24.310  10.400   7.390
 1744BOLB   C2D41854  23.830  10.560   7.530
 1744BOLB   C3D41855  23.600  10.870   7.610
 1744BOLB   C4D41856  23.860  11.260   7.870
 1745BOLB   NC141857   8.370  19.870  11.340
 1745BOLB   PO141858   8.170  19.700  10.960
 1745BOLB   GL141859   7.840  19.760  10.690
 1745BOLB   GL241860   7.700  19.360  10.690
 1745BOLB   C1A41861   7.520  19.770  10.440
 1745BOLB   C2A41862   7.240  19.460  10.390
 1745BOLB   C3A41863   6.860  19.200  10.370
 1745BOLB   C4A41864   6.470  19.040  10.180
 1745BOLB   C1B41865   7.310  19.420  10.910
 1745BOLB   C2B41866   6.950  19.390  11.230
 1745BOLB   C3B41867   6.800  19.270  11.670
 1745BOLB   C4B41868   6.380  19.130  11.790
 1745BOLB   NC241869   3.530  18.490  10.300
 1745BOLB   PO241870   3.980  18.730  10.090
 1745BOLB   GL341871   4.290  18.770  10.210
 1745BOLB   GL441872   4.450  19.090  10.370
 1745BOLB   C1C41873   4.750  18.660  10.240
 1745BOLB   C2C41874   5.150  18.810  10.240
 1745BOLB   C3C41875   5.530  19.060  10.390
 1745BOLB   C4C41876   6.020  19.110  10.310
 1745BOLB   C1D41877   4.810  19.120  10.630
 1745BOLB   C2D41878   5.250  19.220  10.780
 1745BOLB   C3D41879   5.470  19.050  11.010
 1745BOLB   C4D41880   5.930  19.030  11.110
 1746BOLB   NC141881  20.560  18.660  18.420
 1746BOLB   PO141882  20.490  18.190  18.610
 1746BOLB   GL141883  20.730  18.120  18.890
 1746BOLB   GL241884  20.910  18.370  18.760
 1746BOLB   C1A41885  20.970  18.210  19.250
 1746BOLB   C2A41886  21.350  18.310  19.470
 1746BOLB   C3A41887  21.620  18.110  19.720
 1746BOLB   C4A41888  22.050  18.110  19.890
 1746BOLB   C1B41889  21.330  18.190  18.740
 1746BOLB   C2B41890  21.600  18.210  19.090
 1746BOLB   C3B41891  21.960  18.120  19.340
 1746BOLB   C4B41892  22.340  17.840  19.550
 1746BOLB   NC241893  23.370  19.230  21.100
 1746BOLB   PO241894  23.800  19.130  20.960
 1746BOLB   GL341895  23.470  19.100  20.650
 1746BOLB   GL441896  23.160  19.310  20.680
 1746BOLB   C1C41897  23.250  18.960  20.360
 1746BOLB   C2C41898  23.090  18.890  20.000
 1746BOLB   C3C41899  22.850  18.510  19.790
 1746BOLB   C4C41900  22.460  18.290  19.890
 1746BOLB   C1D41901  22.790  19.230  20.950
 1746BOLB   C2D41902  22.560  19.070  21.170
 1746BOLB   C3D41903  22.500  18.570  21.400
 1746BOLB   C4D41904  22.560  18.170  21.360
 1747BOLB   NC141905  22.000  22.340  12.550
 1747BOLB   PO141906  22.200  22.610  12.780
 1747BOLB   GL141907  22.740  22.840  12.820
 1747BOLB   GL241908  23.000  22.700  12.920
 1747BOLB   C1A41909  23.010  23.230  13.010
 1747BOLB   C2A41910  23.470  23.490  13.020
 1747BOLB   C3A41911  23.810  23.540  13.290
 1747BOLB   C4A41912  23.970  23.770  13.530
 1747BOLB   C1B41913  23.280  22.810  12.640
 1747BOLB   C2B41914  23.660  22.940  12.670
 1747BOLB   C3B41915  23.930  23.160  12.950
 1747BOLB   C4B41916  24.290  23.420  12.910
 1747BOLB   NC241917  26.420  24.980  13.740
 1747BOLB   PO241918  26.300  24.620  13.950
 1747BOLB   GL341919  25.870  24.490  13.810
 1747BOLB   GL441920  25.990  24.230  13.580
 1747BOLB   C1C41921  25.460  24.280  13.970
 1747BOLB   C2C41922  25.030  24.190  13.900
 1747BOLB   C3C41923  24.620  24.150  13.830
 1747BOLB   C4C41924  24.340  23.980  13.530
 1747BOLB   C1D41925  25.690  24.030  13.620
 1747BOLB   C2D41926  25.340  24.060  13.340
 1747BOLB   C3D41927  25.080  23.730  13.100
 1747BOLB   C4D41928  24.810  23.290  12.960
 1748BOLB   NC141929  18.030  23.460   9.600
 1748BOLB   PO141930  18.390  23.650   9.400
 1748BOLB   GL141931  18.340  24.100   9.290
 1748BOLB   GL241932  18.420  24.450   9.570
 1748BOLB   C1A41933  18.210  24.410   8.960
 1748BOLB   C2A41934  18.250  24.730   8.650
 1748BOLB   C3A41935  18.290  25.080   8.350
 1748BOLB   C4A41936  18.080  25.380   8.100
 1748BOLB   C1B41937  18.490  24.820   9.540
 1748BOLB   C2B41938  18.690  25.210   9.320
 1748BOLB   C3B41939  19.230  25.330   9.290
 1748BOLB   C4B41940  19.410  25.620   9.110
 1748BOLB   NC241941  18.160  28.040   6.780
 1748BOLB   PO241942  18.210  27.710   7.130
 1748BOLB   GL341943  18.410  27.400   7.350
 1748BOLB   GL441944  18.270  27.380   7.750
 1748BOLB   C1C41945  18.350  26.890   7.330
 1748BOLB   C2C41946  18.170  26.530   7.570
 1748BOLB   C3C41947  17.940  26.070   7.560
 1748BOLB   C4C41948  17.820  25.710   7.880
 1748BOLB   C1D41949  17.920  27.080   7.590
 1748BOLB   C2D41950  17.450  26.870   7.590
 1748BOLB   C3D41951  17.290  26.560   7.310
 1748BOLB   C4D41952  16.960  26.370   7.080
 1749BOLB   NC141953  24.210  16.980  11.140
 1749BOLB   PO141954  24.290  17.070  10.650
 1749BOLB   GL141955  24.630  17.070  10.780
 1749BOLB   GL241956  24.700  17.000  11.120
 1749BOLB   C1A41957  25.010  17.040  10.530
 1749BOLB   C2A41958  25.470  17.040  10.260
 1749BOLB   C3A41959  25.670  17.190   9.940
 1749BOLB   C4A41960  25.890  17.400   9.620
 1749BOLB   C1B41961  25.080  17.080  10.980
 1749BOLB   C2B41962  25.430  16.820  10.910
 1749BOLB   C3B41963  25.680  16.990  10.780
 1749BOLB   C4B41964  26.020  16.830  10.790
 1749BOLB   NC241965  28.260  16.320   9.610
 1749BOLB   PO241966  28.110  16.510  10.050
 1749BOLB   GL341967  27.720  16.740  10.060
 1749BOLB   GL441968  27.510  16.810   9.670
 1749BOLB   C1C41969  27.290  16.960  10.090
 1749BOLB   C2C41970  26.950  17.130  10.180
 1749BOLB   C3C41971  26.580  17.390  10.050
 1749BOLB   C4C41972  26.310  17.470   9.720
 1749BOLB   C1D41973  27.000  16.790   9.690
 1749BOLB   C2D41974  26.640  16.980   9.720
 1749BOLB   C3D41975  26.210  17.010  10.000
 1749BOLB   C4D41976  25.940  16.950  10.270
 1750BOLB   NC141977  13.610  13.920   4.520
 1750BOLB   PO141978  13.990  14.060   4.490
 1750BOLB   GL141979  13.900  13.900   4.100
 1750BOLB   GL241980  13.970  13.640   4.220
 1750BOLB   C1A41981  13.780  13.780   3.700
 1750BOLB   C2A41982  13.410  13.960   3.390
 1750BOLB   C3A41983  13.120  13.810   3.160
 1750BOLB   C4A41984  13.130  13.760   2.700
 1750BOLB   C1B41985  14.260  13.640   3.830
 1750BOLB   C2B41986  14.360  13.700   3.390
 1750BOLB   C3B41987  14.490  13.700   2.980
 1750BOLB   C4B41988  14.290  13.890   2.630
 1750BOLB   NC241989  13.690  13.070   0.100
 1750BOLB   PO241990  13.760  13.250   0.490
 1750BOLB   GL341991  13.780  13.370   0.850
 1750BOLB   GL441992  13.920  13.750   1.010
 1750BOLB   C1C41993  13.540  13.280   1.200
 1750BOLB   C2C41994  13.390  13.520   1.600
 1750BOLB   C3C41995  13.140  13.580   1.940
 1750BOLB   C4C41996  13.020  13.650   2.340
 1750BOLB   C1D41997  13.830  13.880   1.360
 1750BOLB   C2D41998  13.850  13.720   1.800
 1750BOLB   C3D41999  14.070  13.420   2.010
 1750BOLB   C4D42000  14.200  12.980   1.960
 1751BOLB   NC142001  17.070  18.560  20.630
 1751BOLB   PO142002  16.820  18.320  21.030
 1751BOLB   GL142003  16.830  18.410  21.470
 1751BOLB   GL242004  16.620  18.660  21.530
 1751BOLB   C1A42005  16.930  18.320  21.890
 1751BOLB   C2A42006  16.880  18.270  22.320
 1751BOLB   C3A42007  16.950  18.460  22.710
 1751BOLB   C4A42008  16.990  18.330  23.090
 1751BOLB   C1B42009  16.970  18.790  21.800
 1751BOLB   C2B42010  17.340  18.970  21.830
 1751BOLB   C3B42011  17.580  18.960  22.160
 1751BOLB   C4B42012  17.630  18.970  22.520
 1751BOLB   NC242013  18.800  18.690  25.050
 1751BOLB   PO242014  18.570  18.310  24.840
 1751BOLB   GL342015  18.350  18.350  24.590
 1751BOLB   GL442016  18.310  18.570  24.380
 1751BOLB   C1C42017  17.760  18.320  24.410
 1751BOLB   C2C42018  17.560  18.080  24.150
 1751BOLB   C3C42019  17.350  18.070  23.850
 1751BOLB   C4C42020  16.950  18.170  23.540
 1751BOLB   C1D42021  18.120  18.330  23.910
 1751BOLB   C2D42022  17.750  18.250  23.650
 1751BOLB   C3D42023  17.680  17.890  23.370
 1751BOLB   C4D42024  17.470  18.010  22.900
 1752BOLB   NC142025  19.820  20.720  18.670
 1752BOLB   PO142026  19.490  21.020  18.760
 1752BOLB   GL142027  19.740  21.100  19.050
 1752BOLB   GL242028  19.940  21.380  18.900
 1752BOLB   C1A42029  20.030  20.910  19.400
 1752BOLB   C2A42030  20.340  20.990  19.610
 1752BOLB   C3A42031  20.350  21.060  19.930
 1752BOLB   C4A42032  20.460  20.930  20.420
 1752BOLB   C1B42033  20.010  21.390  19.340
 1752BOLB   C2B42034  20.210  21.530  19.780
 1752BOLB   C3B42035  20.170  21.470  20.140
 1752BOLB   C4B42036  19.800  21.540  20.260
 1752BOLB   NC242037  20.870  22.270  22.720
 1752BOLB   PO242038  20.980  22.010  22.340
 1752BOLB   GL342039  21.110  22.050  21.970
 1752BOLB   GL442040  21.110  22.290  21.880
 1752BOLB   C1C42041  21.200  21.790  21.600
 1752BOLB   C2C42042  21.130  21.360  21.440
 1752BOLB   C3C42043  20.840  21.100  21.160
 1752BOLB   C4C42044  20.740  20.920  20.700
 1752BOLB   C1D42045  20.660  22.310  21.610
 1752BOLB   C2D42046  20.300  22.030  21.590
 1752BOLB   C3D42047  20.260  21.640  21.580
 1752BOLB   C4D42048  20.210  21.250  21.600
 1753BOLB   NC142049  23.260  18.070   9.290
 1753BOLB   PO142050  23.620  18.080   9.000
 1753BOLB   GL142051  24.030  18.070   9.100
 1753BOLB   GL242052  24.270  17.840   9.160
 1753BOLB   C1A42053  24.480  18.180   8.840
 1753BOLB   C2A42054  24.750  18.370   8.460
 1753BOLB   C3A42055  25.070  18.410   8.120
 1753BOLB   C4A42056  25.320  18.710   7.960
 1753BOLB   C1B42057  24.750  17.740   8.970
 1753BOLB   C2B42058  25.090  18.040   8.790
 1753BOLB   C3B42059  25.270  18.370   8.560
 1753BOLB   C4B42060  25.570  18.710   8.680
 1753BOLB   NC242061  27.110  18.650   7.050
 1753BOLB   PO242062  27.300  19.000   7.250
 1753BOLB   GL342063  26.940  19.110   7.270
 1753BOLB   GL442064  26.880  19.240   7.060
 1753BOLB   C1C42065  26.510  19.030   7.380
 1753BOLB   C2C42066  26.190  18.930   7.560
 1753BOLB   C3C42067  25.950  19.180   7.850
 1753BOLB   C4C42068  25.500  19.140   7.850
 1753BOLB   C1D42069  26.620  19.580   7.300
 1753BOLB   C2D42070  26.310  19.820   7.340
 1753BOLB   C3D42071  25.970  19.950   7.230
 1753BOLB   C4D42072  25.760  19.620   6.950
 1754BOLB   NC142073  24.000  19.570  11.010
 1754BOLB   PO142074  23.950  20.030  11.100
 1754BOLB   GL142075  24.290  20.310  11.150
 1754BOLB   GL242076  24.430  20.270  10.880
 1754BOLB   C1A42077  24.370  20.710  11.180
 1754BOLB   C2A42078  24.710  20.970  11.030
 1754BOLB   C3A42079  24.850  21.300  11.070
 1754BOLB   C4A42080  24.910  21.770  11.260
 1754BOLB   C1B42081  24.810  20.400  11.010
 1754BOLB   C2B42082  25.220  20.580  11.020
 1754BOLB   C3B42083  25.460  20.630  10.590
 1754BOLB   C4B42084  25.690  20.390  10.380
 1754BOLB   NC242085  26.900  23.380  11.540
 1754BOLB   PO242086  27.050  23.100  11.760
 1754BOLB   GL342087  26.710  22.850  11.520
 1754BOLB   GL442088  26.570  22.990  11.270
 1754BOLB   C1C42089  26.250  22.780  11.660
 1754BOLB   C2C42090  25.950  22.590  11.500
 1754BOLB   C3C42091  25.560  22.430  11.550
 1754BOLB   C4C42092  25.150  22.170  11.490
 1754BOLB   C1D42093  26.100  22.890  11.140
 1754BOLB   C2D42094  25.600  22.710  10.950
 1754BOLB   C3D42095  25.260  22.990  10.880
 1754BOLB   C4D42096  25.040  23.050  10.650
 1755BOLB   NC142097  21.150  24.300  13.940
 1755BOLB   PO142098  21.400  24.210  13.460
 1755BOLB   GL142099  21.670  24.510  13.320
 1755BOLB   GL242100  21.520  24.770  13.290
 1755BOLB   C1A42101  21.980  24.710  12.990
 1755BOLB   C2A42102  22.250  24.980  12.810
 1755BOLB   C3A42103  22.280  25.350  12.730
 1755BOLB   C4A42104  22.450  25.630  12.960
 1755BOLB   C1B42105  21.830  25.020  13.350
 1755BOLB   C2B42106  22.180  25.220  13.300
 1755BOLB   C3B42107  22.640  25.180  13.200
 1755BOLB   C4B42108  23.020  25.220  13.040
 1755BOLB   NC242109  23.150  27.540  13.180
 1755BOLB   PO242110  23.490  27.320  13.460
 1755BOLB   GL342111  23.200  27.030  13.270
 1755BOLB   GL442112  23.160  27.120  12.930
 1755BOLB   C1C42113  22.870  26.750  13.320
 1755BOLB   C2C42114  22.740  26.430  13.400
 1755BOLB   C3C42115  22.630  26.050  13.360
 1755BOLB   C4C42116  22.770  25.690  13.140
 1755BOLB   C1D42117  22.720  27.100  12.930
 1755BOLB   C2D42118  22.340  26.900  12.630
 1755BOLB   C3D42119  22.110  26.590  12.510
 1755BOLB   C4D42120  22.150  26.100  12.400
 1756BOLB   NC142121  11.020   9.990  11.070
 1756BOLB   PO142122  10.680  10.250  11.130
 1756BOLB   GL142123  10.400   9.950  11.160
 1756BOLB   GL242124  10.600   9.770  10.940
 1756BOLB   C1A42125  10.020   9.750  11.200
 1756BOLB   C2A42126   9.700   9.590  11.440
 1756BOLB   C3A42127   9.400   9.210  11.500
 1756BOLB   C4A42128   9.370   8.820  11.250
 1756BOLB   C1B42129  10.560   9.310  10.830
 1756BOLB   C2B42130  10.430   8.960  10.940
 1756BOLB   C3B42131   9.920   8.800  10.930
 1756BOLB   C4B42132   9.620   8.520  10.860
 1756BOLB   NC242133   8.130   6.830  10.960
 1756BOLB   PO242134   7.710   7.130  10.910
 1756BOLB   GL342135   8.110   7.340  11.130
 1756BOLB   GL442136   7.960   7.500  11.460
 1756BOLB   C1C42137   8.420   7.570  11.020
 1756BOLB   C2C42138   8.610   7.950  11.090
 1756BOLB   C3C42139   8.900   8.270  11.100
 1756BOLB   C4C42140   9.140   8.550  11.010
 1756BOLB   C1D42141   8.240   7.830  11.400
 1756BOLB   C2D42142   8.520   8.140  11.640
 1756BOLB   C3D42143   8.780   8.560  11.580
 1756BOLB   C4D42144   9.050   8.930  11.650
 1757BOLB   NC142145  20.680  28.650  11.120
 1757BOLB   PO142146  20.560  28.240  11.410
 1757BOLB   GL142147  20.480  27.890  11.330
 1757BOLB   GL242148  20.690  27.680  11.180
 1757BOLB   C1A42149  20.050  27.690  11.330
 1757BOLB   C2A42150  19.840  27.250  11.360
 1757BOLB   C3A42151  20.100  26.930  11.360
 1757BOLB   C4A42152  20.580  26.890  11.280
 1757BOLB   C1B42153  20.760  27.520  11.650
 1757BOLB   C2B42154  20.600  27.350  12.040
 1757BOLB   C3B42155  20.870  27.210  12.300
 1757BOLB   C4B42156  20.790  26.870  12.560
 1757BOLB   NC242157  22.730  27.750  11.620
 1757BOLB   PO242158  22.580  27.850  11.190
 1757BOLB   GL342159  22.380  27.440  11.130
 1757BOLB   GL442160  22.130  27.420  11.480
 1757BOLB   C1C42161  22.250  26.990  11.200
 1757BOLB   C2C42162  21.840  26.740  11.200
 1757BOLB   C3C42163  21.310  26.720  11.490
 1757BOLB   C4C42164  20.810  26.560  11.460
 1757BOLB   C1D42165  22.090  27.160  11.830
 1757BOLB   C2D42166  21.820  27.020  12.200
 1757BOLB   C3D42167  21.530  27.190  12.470
 1757BOLB   C4D42168  21.230  27.040  12.830
 1758BOLB   NC142169  20.800  20.390  17.820
 1758BOLB   PO142170  21.150  20.090  17.820
 1758BOLB   GL142171  21.250  19.870  18.330
 1758BOLB   GL242172  21.550  19.680  18.290
 1758BOLB   C1A42173  21.380  20.160  18.690
 1758BOLB   C2A42174  21.460  20.440  18.900
 1758BOLB   C3A42175  21.580  20.780  19.170
 1758BOLB   C4A42176  21.990  20.840  19.190
 1758BOLB   C1B42177  21.820  20.010  18.480
 1758BOLB   C2B42178  22.240  19.970  18.380
 1758BOLB   C3B42179  22.720  19.820  18.370
 1758BOLB   C4B42180  23.140  19.800  18.460
 1758BOLB   NC242181  24.090  20.310  20.220
 1758BOLB   PO242182  24.450  20.480  19.980
 1758BOLB   GL342183  24.080  20.510  19.770
 1758BOLB   GL442184  24.050  20.890  19.730
 1758BOLB   C1C42185  23.590  20.620  19.790
 1758BOLB   C2C42186  23.170  20.630  19.690
 1758BOLB   C3C42187  22.830  20.670  19.500
 1758BOLB   C4C42188  22.350  20.810  19.510
 1758BOLB   C1D42189  24.000  21.140  19.440
 1758BOLB   C2D42190  23.810  21.010  19.030
 1758BOLB   C3D42191  23.410  20.930  18.820
 1758BOLB   C4D42192  23.180  20.740  18.520
 1759BOLB   NC142193  14.510  24.110  10.300
 1759BOLB   PO142194  14.400  24.520  10.170
 1759BOLB   GL142195  14.020  24.720   9.970
 1759BOLB   GL242196  14.200  25.020  10.100
 1759BOLB   C1A42197  13.890  24.980   9.620
 1759BOLB   C2A42198  13.740  25.350   9.370
 1759BOLB   C3A42199  13.690  25.790   9.200
 1759BOLB   C4A42200  13.760  26.050   8.820
 1759BOLB   C1B42201  14.090  25.410   9.750
 1759BOLB   C2B42202  14.060  25.870   9.610
 1759BOLB   C3B42203  14.000  26.220   9.670
 1759BOLB   C4B42204  13.620  26.500   9.670
 1759BOLB   NC242205  13.280  27.310   7.400
 1759BOLB   PO242206  13.420  27.380   6.970
 1759BOLB   GL342207  13.730  27.130   7.200
 1759BOLB   GL442208  13.710  26.970   7.030
 1759BOLB   C1C42209  14.010  26.940   7.540
 1759BOLB   C2C42210  13.920  26.590   7.750
 1759BOLB   C3C42211  13.740  26.180   7.930
 1759BOLB   C4C42212  13.650  26.060   8.410
 1759BOLB   C1D42213  13.510  26.700   7.380
 1759BOLB   C2D42214  13.410  26.380   7.690
 1759BOLB   C3D42215  13.290  25.960   7.890
 1759BOLB   C4D42216  13.590  25.620   8.060
 1760BOLB   NC142217  20.660  23.430   8.400
 1760BOLB   PO142218  20.280  23.450   8.710
 1760BOLB   GL142219  20.260  23.790   8.370
 1760BOLB   GL242220  20.490  23.860   8.250
 1760BOLB   C1A42221  20.110  24.120   8.140
 1760BOLB   C2A42222  20.220  24.480   7.850
 1760BOLB   C3A42223  19.870  24.780   7.680
 1760BOLB   C4A42224  20.050  25.180   7.650
 1760BOLB   C1B42225  20.620  24.080   7.880
 1760BOLB   C2B42226  20.990  24.090   8.020
 1760BOLB   C3B42227  21.350  24.020   8.180
 1760BOLB   C4B42228  21.560  24.340   8.140
 1760BOLB   NC242229  20.520  27.660   7.040
 1760BOLB   PO242230  20.560  27.210   7.150
 1760BOLB   GL342231  20.590  26.950   7.540
 1760BOLB   GL442232  20.480  27.090   7.760
 1760BOLB   C1C42233  20.680  26.470   7.740
 1760BOLB   C2C42234  20.350  26.260   7.740
 1760BOLB   C3C42235  20.190  25.900   7.830
 1760BOLB   C4C42236  19.920  25.570   7.710
 1760BOLB   C1D42237  20.250  26.720   7.960
 1760BOLB   C2D42238  19.980  26.420   8.030
 1760BOLB   C3D42239  19.730  26.170   7.810
 1760BOLB   C4D42240  19.830  25.970   7.370
 1761BOLB   NC142241   8.400  18.920  11.250
 1761BOLB   PO142242   8.280  19.190  11.560
 1761BOLB   GL142243   7.950  19.540  11.430
 1761BOLB   GL242244   8.050  19.660  11.700
 1761BOLB   C1A42245   7.590  19.780  11.310
 1761BOLB   C2A42246   7.160  19.800  11.230
 1761BOLB   C3A42247   6.790  20.110  11.180
 1761BOLB   C4A42248   6.460  20.380  10.910
 1761BOLB   C1B42249   7.890  20.040  11.770
 1761BOLB   C2B42250   7.660  20.350  11.460
 1761BOLB   C3B42251   7.230  20.410  11.280
 1761BOLB   C4B42252   7.010  20.390  10.840
 1761BOLB   NC242253   4.720  20.450   9.910
 1761BOLB   PO242254   4.800  20.280   9.460
 1761BOLB   GL342255   5.070  20.030   9.730
 1761BOLB   GL442256   5.070  19.740   9.860
 1761BOLB   C1C42257   5.390  20.180   9.890
 1761BOLB   C2C42258   5.690  20.080  10.060
 1761BOLB   C3C42259   5.820  20.150  10.460
 1761BOLB   C4C42260   5.990  20.390  10.850
 1761BOLB   C1D42261   5.450  19.750   9.720
 1761BOLB   C2D42262   5.940  19.650   9.790
 1761BOLB   C3D42263   6.370  19.610  10.020
 1761BOLB   C4D42264   6.770  19.660  10.240
 1762BOLB   NC142265  23.970  16.000  10.990
 1762BOLB   PO142266  23.930  15.560  11.090
 1762BOLB   GL142267  24.330  15.380  11.090
 1762BOLB   GL242268  24.370  15.030  11.170
 1762BOLB   C1A42269  24.750  15.380  11.110
 1762BOLB   C2A42270  25.060  15.180  10.790
 1762BOLB   C3A42271  25.420  15.340  10.560
 1762BOLB   C4A42272  25.730  15.400  10.210
 1762BOLB   C1B42273  24.790  14.910  11.220
 1762BOLB   C2B42274  25.190  14.830  11.290
 1762BOLB   C3B42275  25.390  14.500  11.570
 1762BOLB   C4B42276  25.450  14.190  11.450
 1762BOLB   NC242277  27.630  14.760   9.200
 1762BOLB   PO242278  27.680  15.160   8.990
 1762BOLB   GL342279  27.230  15.240   9.090
 1762BOLB   GL442280  27.160  15.010   9.160
 1762BOLB   C1C42281  27.110  15.490   9.480
 1762BOLB   C2C42282  26.740  15.640   9.660
 1762BOLB   C3C42283  26.510  15.590  10.020
 1762BOLB   C4C42284  26.160  15.330  10.250
 1762BOLB   C1D42285  26.810  15.020   9.370
 1762BOLB   C2D42286  26.470  15.250   9.620
 1762BOLB   C3D42287  26.100  15.340   9.750
 1762BOLB   C4D42288  25.930  15.680   9.840
 1763BOLB   NC142289  23.930  16.490  11.700
 1763BOLB   PO142290  24.270  16.810  11.600
 1763BOLB   GL142291  24.670  16.750  11.630
 1763BOLB   GL242292  24.820  16.350  11.850
 1763BOLB   C1A42293  25.070  16.650  11.440
 1763BOLB   C2A42294  25.480  16.560  11.320
 1763BOLB   C3A42295  25.900  16.510  11.630
 1763BOLB   C4A42296  26.170  16.390  11.970
 1763BOLB   C1B42297  25.260  16.280  11.830
 1763BOLB   C2B42298  25.680  16.190  11.980
 1763BOLB   C3B42299  25.920  16.050  12.210
 1763BOLB   C4B42300  26.150  16.120  12.630
 1763BOLB   NC242301  28.430  16.730  12.570
 1763BOLB   PO242302  28.620  16.500  12.170
 1763BOLB   GL342303  28.120  16.530  12.180
 1763BOLB   GL442304  28.100  16.800  12.260
 1763BOLB   C1C42305  27.700  16.430  12.330
 1763BOLB   C2C42306  27.230  16.660  12.340
 1763BOLB   C3C42307  26.800  16.580  12.470
 1763BOLB   C4C42308  26.570  16.410  12.220
 1763BOLB   C1D42309  27.630  16.870  12.130
 1763BOLB   C2D42310  27.340  17.160  12.270
 1763BOLB   C3D42311  26.980  17.050  12.410
 1763BOLB   C4D42312  26.580  17.110  12.420
 1764BOLB   NC142313  22.900  20.500   8.530
 1764BOLB   PO142314  22.580  20.870   8.430
 1764BOLB   GL142315  22.800  20.860   8.020
 1764BOLB   GL242316  22.760  21.210   8.020
 1764BOLB   C1A42317  23.310  21.030   7.800
 1764BOLB   C2A42318  23.470  21.370   7.690
 1764BOLB   C3A42319  23.700  21.790   7.540
 1764BOLB   C4A42320  23.970  21.910   7.300
 1764BOLB   C1B42321  22.910  21.450   7.760
 1764BOLB   C2B42322  23.190  21.740   7.520
 1764BOLB   C3B42323  23.380  21.920   7.100
 1764BOLB   C4B42324  23.330  22.300   7.010
 1764BOLB   NC242325  25.820  22.260   5.740
 1764BOLB   PO242326  25.770  22.310   6.190
 1764BOLB   GL342327  25.360  22.220   6.150
 1764BOLB   GL442328  25.380  21.930   6.010
 1764BOLB   C1C42329  24.870  22.270   6.240
 1764BOLB   C2C42330  24.480  22.160   6.420
 1764BOLB   C3C42331  24.190  22.230   6.660
 1764BOLB   C4C42332  23.980  22.300   6.950
 1764BOLB   C1D42333  25.320  21.470   6.220
 1764BOLB   C2D42334  25.210  21.130   6.390
 1764BOLB   C3D42335  24.920  20.830   6.480
 1764BOLB   C4D42336  24.780  20.570   6.900
 1765BOLB   NC142337  19.730  14.350   5.470
 1765BOLB   PO142338  20.090  14.340   5.190
 1765BOLB   GL142339  20.420  14.220   4.940
 1765BOLB   GL242340  20.470  14.490   4.760
 1765BOLB   C1A42341  20.730  14.090   4.590
 1765BOLB   C2A42342  21.100  14.030   4.380
 1765BOLB   C3A42343  21.460  14.070   4.180
 1765BOLB   C4A42344  21.640  14.390   4.020
 1765BOLB   C1B42345  20.590  14.420   4.280
 1765BOLB   C2B42346  20.670  14.610   3.920
 1765BOLB   C3B42347  20.870  14.530   3.490
 1765BOLB   C4B42348  21.040  14.250   3.160
 1765BOLB   NC242349  22.560  15.290   1.750
 1765BOLB   PO242350  22.790  15.160   2.120
 1765BOLB   GL342351  22.450  15.040   2.240
 1765BOLB   GL442352  22.170  15.010   2.000
 1765BOLB   C1C42353  22.150  14.910   2.590
 1765BOLB   C2C42354  22.000  14.800   2.980
 1765BOLB   C3C42355  21.850  14.660   3.270
 1765BOLB   C4C42356  21.700  14.650   3.800
 1765BOLB   C1D42357  21.760  14.870   2.200
 1765BOLB   C2D42358  21.560  14.820   2.550
 1765BOLB   C3D42359  21.460  14.680   2.960
 1765BOLB   C4D42360  21.150  14.880   3.170
 1766BOLB   NC142361  21.950  23.040  12.570
 1766BOLB   PO142362  22.320  23.100  12.670
 1766BOLB   GL142363  22.570  23.360  12.610
 1766BOLB   GL242364  22.630  23.530  12.380
 1766BOLB   C1A42365  22.960  23.720  12.740
 1766BOLB   C2A42366  23.270  23.920  12.880
 1766BOLB   C3A42367  23.630  24.000  13.150
 1766BOLB   C4A42368  23.930  24.260  13.140
 1766BOLB   C1B42369  22.850  23.900  12.270
 1766BOLB   C2B42370  23.290  23.950  12.300
 1766BOLB   C3B42371  23.650  23.960  12.490
 1766BOLB   C4B42372  24.050  23.860  12.800
 1766BOLB   NC242373  25.700  25.450  13.460
 1766BOLB   PO242374  25.970  25.530  13.030
 1766BOLB   GL342375  25.530  25.440  12.920
 1766BOLB   GL442376  25.310  25.520  13.120
 1766BOLB   C1C42377  25.180  25.130  12.760
 1766BOLB   C2C42378  24.770  24.910  12.840
 1766BOLB   C3C42379  24.610  24.580  12.920
 1766BOLB   C4C42380  24.380  24.330  13.020
 1766BOLB   C1D42381  24.910  25.390  13.160
 1766BOLB   C2D42382  24.600  25.340  13.050
 1766BOLB   C3D42383  24.300  25.150  12.670
 1766BOLB   C4D42384  23.900  24.960  12.540
 1767BOLB   NC142385  21.420  23.770  14.030
 1767BOLB   PO142386  21.310  24.040  14.270
 1767BOLB   GL142387  21.570  24.260  14.540
 1767BOLB   GL242388  21.540  23.980  14.910
 1767BOLB   C1A42389  21.770  24.610  14.760
 1767BOLB   C2A42390  21.840  25.010  15.120
 1767BOLB   C3A42391  21.890  25.420  15.270
 1767BOLB   C4A42392  21.720  25.810  15.270
 1767BOLB   C1B42393  21.780  24.260  15.100
 1767BOLB   C2B42394  22.100  24.650  15.220
 1767BOLB   C3B42395  22.480  24.670  15.490
 1767BOLB   C4B42396  22.630  24.430  15.810
 1767BOLB   NC242397  22.690  27.740  15.720
 1767BOLB   PO242398  22.490  27.990  15.360
 1767BOLB   GL342399  22.240  27.710  15.160
 1767BOLB   GL442400  22.430  27.470  15.270
 1767BOLB   C1C42401  22.040  27.340  14.960
 1767BOLB   C2C42402  21.760  26.920  14.810
 1767BOLB   C3C42403  21.960  26.500  14.780
 1767BOLB   C4C42404  21.730  26.130  15.020
 1767BOLB   C1D42405  22.190  27.090  15.400
 1767BOLB   C2D42406  21.940  27.000  15.640
 1767BOLB   C3D42407  21.690  27.090  16.030
 1767BOLB   C4D42408  21.370  26.900  16.130
 1768BOLB   NC142409  21.820  16.810  16.850
 1768BOLB   PO142410  22.220  16.620  17.010
 1768BOLB   GL142411  22.530  16.670  17.250
 1768BOLB   GL242412  22.690  16.840  17.080
 1768BOLB   C1A42413  22.630  16.660  17.610
 1768BOLB   C2A42414  22.950  16.380  17.940
 1768BOLB   C3A42415  23.210  16.010  17.990
 1768BOLB   C4A42416  23.610  15.840  17.740
 1768BOLB   C1B42417  23.070  16.710  17.370
 1768BOLB   C2B42418  23.420  16.850  17.560
 1768BOLB   C3B42419  23.710  17.310  17.570
 1768BOLB   C4B42420  23.980  17.520  17.230
 1768BOLB   NC242421  25.950  15.390  18.270
 1768BOLB   PO242422  25.710  15.350  18.710
 1768BOLB   GL342423  25.290  15.340  18.600
 1768BOLB   GL442424  25.340  15.270  18.260
 1768BOLB   C1C42425  24.900  15.480  18.440
 1768BOLB   C2C42426  24.670  15.490  18.100
 1768BOLB   C3C42427  24.430  15.630  17.640
 1768BOLB   C4C42428  24.060  15.850  17.700
 1768BOLB   C1D42429  25.230  15.470  17.970
 1768BOLB   C2D42430  24.940  15.720  17.760
 1768BOLB   C3D42431  24.870  15.870  17.340
 1768BOLB   C4D42432  24.820  15.680  16.870
 1769BOLB   NC142433  14.220  24.780  10.550
 1769BOLB   PO142434  14.510  24.970  10.840
 1769BOLB   GL142435  14.210  25.380  10.690
 1769BOLB   GL242436  14.370  25.670  10.900
 1769BOLB   C1A42437  13.960  25.570  10.230
 1769BOLB   C2A42438  13.770  25.950  10.150
 1769BOLB   C3A42439  13.440  26.260  10.130
 1769BOLB   C4A42440  13.090  26.470  10.120
 1769BOLB   C1B42441  13.950  25.800  10.640
 1769BOLB   C2B42442  13.600  26.020  10.590
 1769BOLB   C3B42443  13.220  26.160  10.590
 1769BOLB   C4B42444  13.120  26.480  10.620
 1769BOLB   NC242445  12.520  28.690   9.560
 1769BOLB   PO242446  12.870  28.300   9.640
 1769BOLB   GL342447  12.980  28.050   9.930
 1769BOLB   GL442448  13.350  27.920   9.960
 1769BOLB   C1C42449  12.890  27.650  10.100
 1769BOLB   C2C42450  12.750  27.300  10.180
 1769BOLB   C3C42451  12.530  27.070  10.370
 1769BOLB   C4C42452  12.660  26.560  10.260
 1769BOLB   C1D42453  13.640  27.600   9.860
 1769BOLB   C2D42454  13.830  27.130   9.880
 1769BOLB   C3D42455  14.100  26.840   9.550
 1769BOLB   C4D42456  14.380  26.610   9.250
 1770BOLB   NC142457  18.310  14.270   4.930
 1770BOLB   PO142458  17.890  14.080   4.700
 1770BOLB   GL142459  17.650  14.040   4.310
 1770BOLB   GL242460  17.300  14.120   4.280
 1770BOLB   C1A42461  17.780  13.780   3.990
 1770BOLB   C2A42462  17.830  13.510   3.590
 1770BOLB   C3A42463  17.810  13.060   3.240
 1770BOLB   C4A42464  17.510  12.830   2.960
 1770BOLB   C1B42465  17.170  13.870   3.940
 1770BOLB   C2B42466  17.330  13.620   3.680
 1770BOLB   C3B42467  17.380  13.320   3.390
 1770BOLB   C4B42468  17.410  13.280   2.910
 1770BOLB   NC242469  17.620  12.560   0.480
 1770BOLB   PO242470  17.740  13.040   0.560
 1770BOLB   GL342471  17.570  12.860   0.990
 1770BOLB   GL442472  17.400  12.540   1.000
 1770BOLB   C1C42473  17.740  12.870   1.270
 1770BOLB   C2C42474  17.760  12.810   1.730
 1770BOLB   C3C42475  17.440  12.980   2.060
 1770BOLB   C4C42476  17.290  12.890   2.540
 1770BOLB   C1D42477  17.050  12.830   1.100
 1770BOLB   C2D42478  16.750  13.040   1.240
 1770BOLB   C3D42479  16.520  13.050   1.640
 1770BOLB   C4D42480  16.590  12.680   1.940
 1771BOLB   NC142481  11.940  20.110   6.730
 1771BOLB   PO142482  12.290  20.260   6.830
 1771BOLB   GL142483  12.020  20.540   6.540
 1771BOLB   GL242484  11.760  20.670   6.690
 1771BOLB   C1A42485  12.150  20.940   6.300
 1771BOLB   C2A42486  12.220  20.960   5.830
 1771BOLB   C3A42487  12.070  21.100   5.510
 1771BOLB   C4A42488  12.030  20.970   5.120
 1771BOLB   C1B42489  11.650  21.130   6.540
 1771BOLB   C2B42490  11.280  21.330   6.320
 1771BOLB   C3B42491  11.260  21.560   5.890
 1771BOLB   C4B42492  11.250  21.630   5.430
 1771BOLB   NC242493  11.840  22.190   2.830
 1771BOLB   PO242494  11.450  21.980   2.950
 1771BOLB   GL342495  11.730  21.930   3.300
 1771BOLB   GL442496  12.100  21.860   3.280
 1771BOLB   C1C42497  11.750  21.550   3.560
 1771BOLB   C2C42498  11.950  21.320   3.840
 1771BOLB   C3C42499  11.970  21.110   4.340
 1771BOLB   C4C42500  12.020  20.870   4.730
 1771BOLB   C1D42501  12.220  21.460   3.310
 1771BOLB   C2D42502  12.160  21.090   3.510
 1771BOLB   C3D42503  12.110  20.830   3.910
 1771BOLB   C4D42504  11.790  20.420   3.970
 1772BOLB   NC142505  16.300  21.710  19.630
 1772BOLB   PO142506  16.700  21.690  19.570
 1772BOLB   GL142507  16.840  21.870  19.870
 1772BOLB   GL242508  16.950  21.720  20.060
 1772BOLB   C1A42509  16.970  22.250  20.270
 1772BOLB   C2A42510  17.270  22.410  20.570
 1772BOLB   C3A42511  17.570  22.680  20.790
 1772BOLB   C4A42512  17.920  22.500  21.020
 1772BOLB   C1B42513  17.330  21.790  20.310
 1772BOLB   C2B42514  17.700  21.680  20.640
 1772BOLB   C3B42515  17.990  21.830  20.880
 1772BOLB   C4B42516  18.350  21.920  21.120
 1772BOLB   NC242517  18.090  24.350  22.850
 1772BOLB   PO242518  18.100  23.870  22.850
 1772BOLB   GL342519  17.920  23.720  22.480
 1772BOLB   GL442520  17.610  23.380  22.500
 1772BOLB   C1C42521  18.090  23.370  22.290
 1772BOLB   C2C42522  18.270  23.060  22.170
 1772BOLB   C3C42523  18.250  22.820  21.720
 1772BOLB   C4C42524  18.050  22.600  21.400
 1772BOLB   C1D42525  17.350  23.140  22.250
 1772BOLB   C2D42526  17.160  22.820  22.040
 1772BOLB   C3D42527  16.810  22.520  21.980
 1772BOLB   C4D42528  16.520  22.700  21.670
 1773BOLB   NC142529  16.600  19.910   5.130
 1773BOLB   PO142530  17.120  19.720   5.090
 1773BOLB   GL142531  17.560  19.620   4.900
 1773BOLB   GL242532  17.810  19.730   4.930
 1773BOLB   C1A42533  17.610  19.710   4.420
 1773BOLB   C2A42534  17.430  19.730   4.060
 1773BOLB   C3A42535  17.140  20.030   3.800
 1773BOLB   C4A42536  16.980  20.370   3.600
 1773BOLB   C1B42537  18.050  19.790   4.580
 1773BOLB   C2B42538  18.030  19.990   4.270
 1773BOLB   C3B42539  17.950  20.360   3.900
 1773BOLB   C4B42540  18.030  20.700   3.550
 1773BOLB   NC242541  16.100  22.270   2.090
 1773BOLB   PO242542  16.280  22.250   1.750
 1773BOLB   GL342543  16.370  21.860   1.990
 1773BOLB   GL442544  15.980  21.740   2.200
 1773BOLB   C1C42545  16.570  21.640   2.310
 1773BOLB   C2C42546  16.760  21.240   2.570
 1773BOLB   C3C42547  16.970  20.970   2.950
 1773BOLB   C4C42548  16.980  20.700   3.300
 1773BOLB   C1D42549  15.810  21.670   2.600
 1773BOLB   C2D42550  15.960  21.410   2.710
 1773BOLB   C3D42551  16.390  21.540   2.750
 1773BOLB   C4D42552  16.530  21.920   3.070
 1774BOLB   NC142553  19.970  16.730  24.250
 1774BOLB   PO142554  20.000  16.860  23.790
 1774BOLB   GL142555  19.890  16.920  23.440
 1774BOLB   GL242556  19.930  17.270  23.410
 1774BOLB   C1A42557  19.760  16.850  23.040
 1774BOLB   C2A42558  19.540  16.820  22.760
 1774BOLB   C3A42559  19.450  16.800  22.430
 1774BOLB   C4A42560  19.170  17.090  22.100
 1774BOLB   C1B42561  19.970  17.380  23.000
 1774BOLB   C2B42562  19.750  17.270  22.630
 1774BOLB   C3B42563  19.310  17.260  22.580
 1774BOLB   C4B42564  18.930  17.100  22.620
 1774BOLB   NC242565  19.420  17.220  24.460
 1774BOLB   PO242566  19.470  17.570  24.160
 1774BOLB   GL342567  19.380  17.640  23.720
 1774BOLB   GL442568  19.490  17.240  23.610
 1774BOLB   C1C42569  19.090  17.650  23.350
 1774BOLB   C2C42570  19.030  17.700  22.930
 1774BOLB   C3C42571  18.760  17.620  22.500
 1774BOLB   C4C42572  18.880  17.390  22.190
 1774BOLB   C1D42573  19.390  16.900  23.500
 1774BOLB   C2D42574  19.270  16.640  23.190
 1774BOLB   C3D42575  19.060  16.680  22.710
 1774BOLB   C4D42576  18.680  16.650  22.460
 1775BOLB   NC142577  19.460  22.500   7.380
 1775BOLB   PO142578  19.600  22.070   7.240
 1775BOLB   GL142579  19.870  22.200   6.840
 1775BOLB   GL242580  20.100  22.280   6.850
 1775BOLB   C1A42581  19.870  22.140   6.430
 1775BOLB   C2A42582  19.920  22.260   6.000
 1775BOLB   C3A42583  19.850  22.330   5.600
 1775BOLB   C4A42584  19.870  22.730   5.340
 1775BOLB   C1B42585  20.170  22.720   6.750
 1775BOLB   C2B42586  20.190  23.120   6.770
 1775BOLB   C3B42587  20.440  23.510   6.770
 1775BOLB   C4B42588  20.400  23.820   6.870
 1775BOLB   NC242589  19.910  24.240   3.350
 1775BOLB   PO242590  19.940  23.790   3.470
 1775BOLB   GL342591  19.560  23.660   3.730
 1775BOLB   GL442592  19.160  23.520   3.590
 1775BOLB   C1C42593  19.490  23.290   3.880
 1775BOLB   C2C42594  19.520  23.150   4.260
 1775BOLB   C3C42595  19.670  23.190   4.700
 1775BOLB   C4C42596  19.950  23.010   5.000
 1775BOLB   C1D42597  19.000  23.570   4.050
 1775BOLB   C2D42598  19.120  23.440   4.420
 1775BOLB   C3D42599  19.210  23.060   4.660
 1775BOLB   C4D42600  19.300  22.800   4.980
 1776BOLB   NC142601  22.640  13.490   7.840
 1776BOLB   PO142602  22.460  13.310   7.470
 1776BOLB   GL142603  22.730  12.930   7.330
 1776BOLB   GL242604  22.750  13.170   7.090
 1776BOLB   C1A42605  22.810  12.490   7.150
 1776BOLB   C2A42606  22.650  12.300   6.720
 1776BOLB   C3A42607  22.970  12.240   6.400
 1776BOLB   C4A42608  23.220  11.780   6.430
 1776BOLB   C1B42609  23.070  12.950   6.950
 1776BOLB   C2B42610  23.170  12.570   6.800
 1776BOLB   C3B42611  23.140  12.210   6.870
 1776BOLB   C4B42612  22.940  11.890   6.930
 1776BOLB   NC242613  24.910  10.630   5.780
 1776BOLB   PO242614  25.020  10.700   6.150
 1776BOLB   GL342615  24.710  10.990   6.030
 1776BOLB   GL442616  24.630  11.310   6.020
 1776BOLB   C1C42617  24.300  10.960   6.010
 1776BOLB   C2C42618  24.250  11.140   6.370
 1776BOLB   C3C42619  23.880  11.390   6.360
 1776BOLB   C4C42620  23.440  11.410   6.330
 1776BOLB   C1D42621  24.620  11.670   6.300
 1776BOLB   C2D42622  24.700  11.750   6.720
 1776BOLB   C3D42623  24.510  11.790   7.080
 1776BOLB   C4D42624  24.310  11.990   7.450
 1777BOLB   NC142625  18.240  25.070  11.160
 1777BOLB   PO142626  18.480  24.710  10.960
 1777BOLB   GL142627  18.540  25.130  10.720
 1777BOLB   GL242628  18.520  25.030  10.400
 1777BOLB   C1A42629  18.740  25.500  10.770
 1777BOLB   C2A42630  18.820  25.850  10.580
 1777BOLB   C3A42631  18.840  26.220  10.660
 1777BOLB   C4A42632  19.030  26.520  10.580
 1777BOLB   C1B42633  18.550  25.450  10.310
 1777BOLB   C2B42634  18.470  25.770  10.060
 1777BOLB   C3B42635  18.660  26.160  10.220
 1777BOLB   C4B42636  18.920  26.440  10.070
 1777BOLB   NC242637  20.990  28.100  11.070
 1777BOLB   PO242638  20.680  28.170  10.910
 1777BOLB   GL342639  20.420  27.800  10.810
 1777BOLB   GL442640  20.550  27.820  10.560
 1777BOLB   C1C42641  20.050  27.500  10.830
 1777BOLB   C2C42642  20.030  27.140  10.930
 1777BOLB   C3C42643  19.610  26.990  10.850
 1777BOLB   C4C42644  19.480  26.760  10.570
 1777BOLB   C1D42645  20.860  27.510  10.660
 1777BOLB   C2D42646  20.890  27.110  10.880
 1777BOLB   C3D42647  20.810  26.680  10.560
 1777BOLB   C4D42648  20.470  26.440  10.400
 1778BOLB   NC142649  23.950  14.820  11.970
 1778BOLB   PO142650  23.950  14.870  12.380
 1778BOLB   GL142651  24.260  15.000  12.370
 1778BOLB   GL242652  24.510  15.210  12.410
 1778BOLB   C1A42653  24.610  14.760  12.180
 1778BOLB   C2A42654  25.050  14.800  12.410
 1778BOLB   C3A42655  25.330  15.040  12.350
 1778BOLB   C4A42656  25.750  15.200  12.000
 1778BOLB   C1B42657  24.870  15.150  12.780
 1778BOLB   C2B42658  25.270  14.980  12.960
 1778BOLB   C3B42659  25.670  14.900  12.980
 1778BOLB   C4B42660  26.040  14.880  13.050
 1778BOLB   NC242661  28.420  14.800  12.340
 1778BOLB   PO242662  28.100  15.100  12.040
 1778BOLB   GL342663  27.720  15.140  12.340
 1778BOLB   GL442664  27.610  15.470  12.440
 1778BOLB   C1C42665  27.330  15.110  12.150
 1778BOLB   C2C42666  26.980  15.330  11.940
 1778BOLB   C3C42667  26.490  15.340  11.840
 1778BOLB   C4C42668  26.060  15.330  11.760
 1778BOLB   C1D42669  27.110  15.540  12.480
 1778BOLB   C2D42670  26.700  15.440  12.350
 1778BOLB   C3D42671  26.220  15.350  12.320
 1778BOLB   C4D42672  25.830  15.070  12.540
 1779BOLB   NC142673  16.410  17.400  20.260
 1779BOLB   PO142674  16.510  17.400  20.700
 1779BOLB   GL142675  16.570  17.400  21.210
 1779BOLB   GL242676  16.230  17.170  21.160
 1779BOLB   C1A42677  16.800  17.320  21.610
 1779BOLB   C2A42678  17.000  17.190  22.050
 1779BOLB   C3A42679  17.180  17.170  22.540
 1779BOLB   C4A42680  17.000  17.280  22.860
 1779BOLB   C1B42681  16.280  17.270  21.580
 1779BOLB   C2B42682  16.370  17.260  22.010
 1779BOLB   C3B42683  16.640  17.220  22.460
 1779BOLB   C4B42684  16.430  17.030  22.780
 1779BOLB   NC242685  18.370  17.950  25.160
 1779BOLB   PO242686  18.560  17.470  25.080
 1779BOLB   GL342687  18.130  17.530  24.840
 1779BOLB   GL442688  17.850  17.690  24.970
 1779BOLB   C1C42689  17.760  17.390  24.440
 1779BOLB   C2C42690  17.450  17.590  24.140
 1779BOLB   C3C42691  17.350  17.610  23.690
 1779BOLB   C4C42692  17.170  17.320  23.310
 1779BOLB   C1D42693  17.640  17.840  24.590
 1779BOLB   C2D42694  17.240  17.900  24.490
 1779BOLB   C3D42695  16.850  17.710  24.470
 1779BOLB   C4D42696  16.550  17.340  24.460
 1780BOLB   NC142697  24.040  20.270  10.560
 1780BOLB   PO142698  24.050  20.090  10.210
 1780BOLB   GL142699  24.270  20.130   9.820
 1780BOLB   GL242700  24.470  19.860   9.960
 1780BOLB   C1A42701  24.660  20.060   9.470
 1780BOLB   C2A42702  24.930  20.130   9.290
 1780BOLB   C3A42703  25.160  20.190   8.890
 1780BOLB   C4A42704  24.990  20.530   8.650
 1780BOLB   C1B42705  24.680  20.300   9.910
 1780BOLB   C2B42706  24.980  20.600   9.650
 1780BOLB   C3B42707  25.190  20.640   9.280
 1780BOLB   C4B42708  25.410  20.740   8.850
 1780BOLB   NC242709  26.750  20.420   6.700
 1780BOLB   PO242710  26.560  20.840   6.900
 1780BOLB   GL342711  26.160  20.940   6.980
 1780BOLB   GL442712  25.960  21.160   6.810
 1780BOLB   C1C42713  25.740  20.870   7.230
 1780BOLB   C2C42714  25.470  20.850   7.560
 1780BOLB   C3C42715  25.320  20.840   7.920
 1780BOLB   C4C42716  25.160  20.750   8.350
 1780BOLB   C1D42717  25.400  21.300   6.800
 1780BOLB   C2D42718  24.870  21.320   6.870
 1780BOLB   C3D42719  24.430  21.310   7.070
 1780BOLB   C4D42720  24.090  21.240   7.370
 1781BOLB   NC142721  18.990  21.660  19.030
 1781BOLB   PO142722  19.180  21.290  19.090
 1781BOLB   GL142723  19.520  21.250  19.440
 1781BOLB   GL242724  19.240  21.090  19.730
 1781BOLB   C1A42725  19.810  21.130  19.800
 1781BOLB   C2A42726  19.940  21.010  20.190
 1781BOLB   C3A42727  19.960  20.990  20.610
 1781BOLB   C4A42728  19.690  21.090  20.870
 1781BOLB   C1B42729  19.400  21.470  19.940
 1781BOLB   C2B42730  19.300  21.620  20.290
 1781BOLB   C3B42731  19.080  22.080  20.390
 1781BOLB   C4B42732  18.780  22.390  20.420
 1781BOLB   NC242733  19.950  23.030  22.920
 1781BOLB   PO242734  19.960  22.570  22.730
 1781BOLB   GL342735  19.910  22.190  22.510
 1781BOLB   GL442736  20.020  22.460  22.270
 1781BOLB   C1C42737  19.860  21.920  22.160
 1781BOLB   C2C42738  19.350  21.750  21.980
 1781BOLB   C3C42739  19.330  21.690  21.560
 1781BOLB   C4C42740  19.480  21.440  21.170
 1781BOLB   C1D42741  20.000  22.510  21.840
 1781BOLB   C2D42742  20.210  22.520  21.380
 1781BOLB   C3D42743  20.250  22.370  20.900
 1781BOLB   C4D42744  20.270  22.300  20.470
 1782BOLB   NC142745  23.310   7.210  10.230
 1782BOLB   PO142746  23.490   7.390  10.630
 1782BOLB   GL142747  23.430   7.680  11.000
 1782BOLB   GL242748  23.660   7.900  10.910
 1782BOLB   C1A42749  23.190   8.070  11.180
 1782BOLB   C2A42750  22.900   8.390  11.370
 1782BOLB   C3A42751  22.590   8.740  11.400
 1782BOLB   C4A42752  22.390   8.860  11.720
 1782BOLB   C1B42753  23.460   8.320  10.810
 1782BOLB   C2B42754  23.180   8.670  11.030
 1782BOLB   C3B42755  23.200   8.810  11.420
 1782BOLB   C4B42756  22.960   9.000  11.680
 1782BOLB   NC242757  22.900   6.990  12.590
 1782BOLB   PO242758  22.970   7.130  13.120
 1782BOLB   GL342759  22.860   7.540  13.260
 1782BOLB   GL442760  22.800   7.400  13.550
 1782BOLB   C1C42761  22.620   7.770  13.100
 1782BOLB   C2C42762  22.460   8.060  12.760
 1782BOLB   C3C42763  22.220   8.260  12.420
 1782BOLB   C4C42764  22.270   8.590  12.040
 1782BOLB   C1D42765  22.710   7.860  13.670
 1782BOLB   C2D42766  22.510   8.130  13.400
 1782BOLB   C3D42767  22.220   8.320  13.140
 1782BOLB   C4D42768  22.110   8.530  12.860
 1783BOLB   NC142769  21.670  15.550   6.860
 1783BOLB   PO142770  21.880  15.410   6.570
 1783BOLB   GL142771  22.030  15.340   6.250
 1783BOLB   GL242772  21.940  15.630   6.030
 1783BOLB   C1A42773  22.400  15.230   6.130
 1783BOLB   C2A42774  22.520  15.220   5.680
 1783BOLB   C3A42775  22.530  15.420   5.210
 1783BOLB   C4A42776  22.550  15.670   4.910
 1783BOLB   C1B42777  22.300  15.630   5.800
 1783BOLB   C2B42778  22.280  15.820   5.400
 1783BOLB   C3B42779  22.090  16.010   5.100
 1783BOLB   C4B42780  21.790  16.210   5.250
 1783BOLB   NC242781  24.410  15.500   3.600
 1783BOLB   PO242782  24.120  15.480   3.200
 1783BOLB   GL342783  23.810  15.500   3.510
 1783BOLB   GL442784  23.820  15.270   3.730
 1783BOLB   C1C42785  23.630  15.810   3.840
 1783BOLB   C2C42786  23.360  15.990   4.160
 1783BOLB   C3C42787  22.970  15.940   4.230
 1783BOLB   C4C42788  22.810  15.620   4.570
 1783BOLB   C1D42789  23.470  15.270   3.840
 1783BOLB   C2D42790  23.140  15.500   4.020
 1783BOLB   C3D42791  22.720  15.470   4.120
 1783BOLB   C4D42792  22.380  15.400   4.430
 1784BOLB   NC142793  21.220  23.420   9.820
 1784BOLB   PO142794  21.070  23.220   9.410
 1784BOLB   GL142795  21.190  23.560   9.330
 1784BOLB   GL242796  20.950  23.760   9.140
 1784BOLB   C1A42797  21.460  23.800   9.260
 1784BOLB   C2A42798  21.660  24.080   9.080
 1784BOLB   C3A42799  21.850  24.480   8.970
 1784BOLB   C4A42800  22.150  24.800   9.020
 1784BOLB   C1B42801  21.020  24.190   9.130
 1784BOLB   C2B42802  21.060  24.320   8.690
 1784BOLB   C3B42803  21.240  24.580   8.450
 1784BOLB   C4B42804  21.410  24.940   8.260
 1784BOLB   NC242805  21.960  26.500   7.190
 1784BOLB   PO242806  22.170  26.120   7.330
 1784BOLB   GL342807  22.220  25.840   7.640
 1784BOLB   GL442808  22.120  25.570   7.520
 1784BOLB   C1C42809  22.200  25.780   8.010
 1784BOLB   C2C42810  22.090  25.650   8.440
 1784BOLB   C3C42811  22.280  25.320   8.610
 1784BOLB   C4C42812  22.280  25.090   8.960
 1784BOLB   C1D42813  22.140  25.290   7.960
 1784BOLB   C2D42814  22.140  24.880   8.210
 1784BOLB   C3D42815  22.310  24.790   8.540
 1784BOLB   C4D42816  22.420  24.480   8.810
 1785BOLB   NC142817  25.350  18.690  20.050
 1785BOLB   PO142818  24.770  18.640  20.080
 1785BOLB   GL142819  24.630  18.580  19.600
 1785BOLB   GL242820  24.440  18.880  19.530
 1785BOLB   C1A42821  24.490  18.470  19.150
 1785BOLB   C2A42822  24.420  18.630  18.630
 1785BOLB   C3A42823  24.130  18.560  18.310
 1785BOLB   C4A42824  24.220  18.930  18.010
 1785BOLB   C1B42825  24.340  18.940  19.050
 1785BOLB   C2B42826  24.010  19.080  18.920
 1785BOLB   C3B42827  23.560  19.130  18.670
 1785BOLB   C4B42828  23.420  18.990  18.170
 1785BOLB   NC242829  26.350  18.670  18.130
 1785BOLB   PO242830  26.130  19.030  18.030
 1785BOLB   GL342831  25.760  19.120  17.990
 1785BOLB   GL442832  25.620  19.270  18.270
 1785BOLB   C1C42833  25.540  19.500  17.850
 1785BOLB   C2C42834  25.150  19.730  17.830
 1785BOLB   C3C42835  24.690  19.520  17.770
 1785BOLB   C4C42836  24.390  19.190  17.740
 1785BOLB   C1D42837  25.210  19.420  18.310
 1785BOLB   C2D42838  24.830  19.310  18.190
 1785BOLB   C3D42839  24.800  18.920  17.880
 1785BOLB   C4D42840  24.670  18.600  17.600
 1786BOLB   NC142841  14.630  22.050   7.550
 1786BOLB   PO142842  14.780  22.070   7.170
 1786BOLB   GL142843  14.850  22.400   6.810
 1786BOLB   GL242844  15.240  22.350   7.040
 1786BOLB   C1A42845  14.970  22.800   6.600
 1786BOLB   C2A42846  14.870  23.250   6.420
 1786BOLB   C3A42847  14.590  23.560   6.190
 1786BOLB   C4A42848  14.170  23.700   6.200
 1786BOLB   C1B42849  15.370  22.730   6.910
 1786BOLB   C2B42850  15.330  23.110   6.680
 1786BOLB   C3B42851  15.240  23.510   6.610
 1786BOLB   C4B42852  15.100  23.960   6.350
 1786BOLB   NC242853  12.160  24.490   4.730
 1786BOLB   PO242854  12.340  24.810   5.010
 1786BOLB   GL342855  12.640  24.610   5.210
 1786BOLB   GL442856  12.810  24.330   5.230
 1786BOLB   C1C42857  12.750  24.490   5.740
 1786BOLB   C2C42858  13.030  24.260   5.960
 1786BOLB   C3C42859  13.420  24.170   6.150
 1786BOLB   C4C42860  13.720  23.850   6.210
 1786BOLB   C1D42861  12.860  24.020   5.460
 1786BOLB   C2D42862  12.910  23.720   5.890
 1786BOLB   C3D42863  13.170  23.700   6.270
 1786BOLB   C4D42864  13.450  23.580   6.640
 1787BOLB   NC142865   9.770  17.320   8.010
 1787BOLB   PO142866   9.730  17.150   7.570
 1787BOLB   GL142867   9.350  17.150   7.540
 1787BOLB   GL242868   9.390  16.830   7.370
 1787BOLB   C1A42869   8.910  16.990   7.270
 1787BOLB   C2A42870   8.500  17.070   7.130
 1787BOLB   C3A42871   8.210  16.880   6.960
 1787BOLB   C4A42872   8.190  16.570   6.720
 1787BOLB   C1B42873   9.270  17.040   6.890
 1787BOLB   C2B42874   8.930  17.290   6.860
 1787BOLB   C3B42875   8.550  17.500   6.690
 1787BOLB   C4B42876   8.370  17.880   6.550
 1787BOLB   NC242877   6.020  15.170   5.480
 1787BOLB   PO242878   6.310  15.400   5.660
 1787BOLB   GL342879   6.680  15.510   5.770
 1787BOLB   GL442880   6.830  15.230   5.790
 1787BOLB   C1C42881   7.050  15.760   5.980
 1787BOLB   C2C42882   7.450  16.010   6.110
 1787BOLB   C3C42883   7.800  16.080   6.300
 1787BOLB   C4C42884   8.060  16.350   6.390
 1787BOLB   C1D42885   7.260  15.330   5.620
 1787BOLB   C2D42886   7.520  15.580   5.830
 1787BOLB   C3D42887   8.000  15.720   5.900
 1787BOLB   C4D42888   8.410  15.620   5.880
 1788BOLB   NC142889  23.470  16.970  13.020
 1788BOLB   PO142890  23.850  17.030  12.860
 1788BOLB   GL142891  24.330  16.860  12.940
 1788BOLB   GL242892  24.450  16.590  12.790
 1788BOLB   C1A42893  24.710  17.010  12.970
 1788BOLB   C2A42894  25.140  17.130  12.950
 1788BOLB   C3A42895  25.550  17.380  12.890
 1788BOLB   C4A42896  25.880  17.530  12.490
 1788BOLB   C1B42897  24.870  16.500  12.880
 1788BOLB   C2B42898  25.260  16.340  13.010
 1788BOLB   C3B42899  25.370  15.850  13.080
 1788BOLB   C4B42900  25.620  15.620  13.380
 1788BOLB   NC242901  27.980  17.840  12.810
 1788BOLB   PO242902  27.790  17.620  13.160
 1788BOLB   GL342903  27.420  17.670  13.060
 1788BOLB   GL442904  27.500  17.720  12.680
 1788BOLB   C1C42905  26.970  17.830  13.120
 1788BOLB   C2C42906  26.560  17.900  12.920
 1788BOLB   C3C42907  26.500  17.810  12.570
 1788BOLB   C4C42908  26.230  17.750  12.400
 1788BOLB   C1D42909  27.000  17.790  12.510
 1788BOLB   C2D42910  26.670  17.520  12.250
 1788BOLB   C3D42911  26.210  17.340  12.100
 1788BOLB   C4D42912  25.840  17.270  12.010
 1789BOLB   NC142913  21.710  22.140  15.910
 1789BOLB   PO142914  21.890  22.430  15.680
 1789BOLB   GL142915  22.260  22.560  15.780
 1789BOLB   GL242916  22.560  22.620  15.580
 1789BOLB   C1A42917  22.540  22.720  16.120
 1789BOLB   C2A42918  22.890  22.990  16.230
 1789BOLB   C3A42919  23.250  23.160  16.320
 1789BOLB   C4A42920  23.380  23.650  16.260
 1789BOLB   C1B42921  22.940  22.850  15.610
 1789BOLB   C2B42922  23.220  22.880  15.190
 1789BOLB   C3B42923  23.520  23.190  15.080
 1789BOLB   C4B42924  23.960  23.380  15.140
 1789BOLB   NC242925  24.050  26.390  16.080
 1789BOLB   PO242926  24.340  26.130  15.770
 1789BOLB   GL342927  24.000  25.800  15.940
 1789BOLB   GL442928  23.680  25.920  15.920
 1789BOLB   C1C42929  23.960  25.220  16.010
 1789BOLB   C2C42930  23.880  24.780  15.990
 1789BOLB   C3C42931  23.650  24.430  16.070
 1789BOLB   C4C42932  23.460  24.100  16.120
 1789BOLB   C1D42933  23.390  25.750  15.540
 1789BOLB   C2D42934  23.160  25.420  15.280
 1789BOLB   C3D42935  23.020  25.030  15.150
 1789BOLB   C4D42936  22.710  24.710  14.990
 1790BOLB   NC142937   6.560   9.280  10.500
 1790BOLB   PO142938   6.320   9.440  10.810
 1790BOLB   GL142939   6.710   9.480  11.040
 1790BOLB   GL242940   7.050   9.470  10.680
 1790BOLB   C1A42941   7.060   9.330  11.200
 1790BOLB   C2A42942   7.230   9.240  11.560
 1790BOLB   C3A42943   7.220   9.160  12.020
 1790BOLB   C4A42944   7.230   9.220  12.450
 1790BOLB   C1B42945   7.380   9.590  10.380
 1790BOLB   C2B42946   7.580   9.320  10.280
 1790BOLB   C3B42947   7.960   9.330  10.120
 1790BOLB   C4B42948   8.250   9.690  10.050
 1790BOLB   NC242949   6.370   8.560  11.160
 1790BOLB   PO242950   6.080   8.330  11.460
 1790BOLB   GL342951   5.840   8.480  11.700
 1790BOLB   GL442952   5.580   8.750  11.930
 1790BOLB   C1C42953   6.030   8.600  12.140
 1790BOLB   C2C42954   6.300   8.950  12.350
 1790BOLB   C3C42955   6.680   9.050  12.740
 1790BOLB   C4C42956   7.030   9.320  12.730
 1790BOLB   C1D42957   5.900   8.980  11.860
 1790BOLB   C2D42958   6.220   9.230  11.910
 1790BOLB   C3D42959   6.520   9.330  11.710
 1790BOLB   C4D42960   6.770   9.730  11.490
 1791BOLB   NC142961  15.750  15.150   4.060
 1791BOLB   PO142962  16.200  15.050   4.130
 1791BOLB   GL142963  16.250  15.040   3.690
 1791BOLB   GL242964  16.350  14.710   3.560
 1791BOLB   C1A42965  16.060  15.220   3.300
 1791BOLB   C2A42966  15.940  15.230   2.830
 1791BOLB   C3A42967  16.120  15.200   2.430
 1791BOLB   C4A42968  16.230  15.270   2.100
 1791BOLB   C1B42969  16.520  14.440   3.190
 1791BOLB   C2B42970  16.440  14.160   2.810
 1791BOLB   C3B42971  16.450  13.930   2.430
 1791BOLB   C4B42972  16.540  13.480   2.470
 1791BOLB   NC242973  17.840  15.170   0.160
 1791BOLB   PO242974  17.550  14.840   0.340
 1791BOLB   GL342975  17.700  14.820   0.700
 1791BOLB   GL442976  17.760  15.240   0.700
 1791BOLB   C1C42977  17.460  15.120   1.030
 1791BOLB   C2C42978  17.040  15.090   1.270
 1791BOLB   C3C42979  16.640  15.330   1.490
 1791BOLB   C4C42980  16.380  15.400   1.760
 1791BOLB   C1D42981  18.010  14.990   1.010
 1791BOLB   C2D42982  18.100  15.120   1.400
 1791BOLB   C3D42983  18.380  15.010   1.740
 1791BOLB   C4D42984  18.710  15.200   2.010
 1792BOLB   NC142985  23.710  14.470  12.590
 1792BOLB   PO142986  23.800  14.690  12.930
 1792BOLB   GL142987  24.210  14.760  13.210
 1792BOLB   GL242988  24.160  14.810  13.560
 1792BOLB   C1A42989  24.610  14.630  13.350
 1792BOLB   C2A42990  24.910  14.260  13.360
 1792BOLB   C3A42991  25.050  13.750  13.520
 1792BOLB   C4A42992  25.210  13.420  13.800
 1792BOLB   C1B42993  24.430  14.540  13.860
 1792BOLB   C2B42994  24.490  14.530  14.350
 1792BOLB   C3B42995  24.760  14.540  14.580
 1792BOLB   C4B42996  25.070  14.840  14.640
 1792BOLB   NC242997  27.390  12.090  14.620
 1792BOLB   PO242998  27.140  12.300  14.310
 1792BOLB   GL342999  26.720  12.560  14.320
 1792BOLB   GL443000  26.750  12.740  14.110
 1792BOLB   C1C43001  26.280  12.820  14.340
 1792BOLB   C2C43002  25.920  12.810  14.370
 1792BOLB   C3C43003  25.630  12.990  14.180
 1792BOLB   C4C43004  25.340  13.180  14.030
 1792BOLB   C1D43005  26.660  13.120  13.930
 1792BOLB   C2D43006  26.400  13.400  13.740
 1792BOLB   C3D43007  26.280  13.480  13.320
 1792BOLB   C4D43008  25.900  13.490  13.090
 1793BOLB   NC143009  11.260  18.500   1.310
 1793BOLB   PO143010  10.990  18.670   1.700
 1793BOLB   GL143011  11.340  18.450   1.960
 1793BOLB   GL243012  11.310  18.240   2.260
 1793BOLB   C1A43013  11.780  18.200   2.110
 1793BOLB   C2A43014  12.110  18.130   2.300
 1793BOLB   C3A43015  12.230  17.840   2.600
 1793BOLB   C4A43016  12.460  17.390   2.570
 1793BOLB   C1B43017  11.520  17.960   2.590
 1793BOLB   C2B43018  11.490  17.720   2.970
 1793BOLB   C3B43019  11.310  17.480   3.320
 1793BOLB   C4B43020  11.040  17.160   3.720
 1793BOLB   NC243021  12.900  16.910   0.480
 1793BOLB   PO243022  12.790  17.350   0.440
 1793BOLB   GL343023  12.750  17.060   0.930
 1793BOLB   GL443024  12.890  16.710   1.010
 1793BOLB   C1C43025  12.700  16.900   1.390
 1793BOLB   C2C43026  12.630  16.880   1.780
 1793BOLB   C3C43027  12.630  16.720   2.140
 1793BOLB   C4C43028  12.530  16.980   2.510
 1793BOLB   C1D43029  13.210  16.510   1.150
 1793BOLB   C2D43030  13.490  16.400   1.450
 1793BOLB   C3D43031  13.610  16.730   1.740
 1793BOLB   C4D43032  13.930  16.970   1.700
 1794BOLB   NC143033  18.290  19.620  20.300
 1794BOLB   PO143034  18.000  19.360  20.600
 1794BOLB   GL143035  18.170  19.810  20.790
 1794BOLB   GL243036  18.510  19.860  20.690
 1794BOLB   C1A43037  18.400  19.910  21.250
 1794BOLB   C2A43038  18.900  20.020  21.430
 1794BOLB   C3A43039  19.270  19.820  21.540
 1794BOLB   C4A43040  19.650  19.900  21.690
 1794BOLB   C1B43041  18.720  20.120  20.880
 1794BOLB   C2B43042  19.140  20.350  21.030
 1794BOLB   C3B43043  19.500  20.230  21.200
 1794BOLB   C4B43044  19.910  20.240  20.860
 1794BOLB   NC243045  21.370  20.200  23.330
 1794BOLB   PO243046  21.230  20.730  23.210
 1794BOLB   GL343047  21.140  20.410  22.930
 1794BOLB   GL443048  20.950  20.230  23.060
 1794BOLB   C1C43049  21.220  20.220  22.460
 1794BOLB   C2C43050  20.910  20.070  22.160
 1794BOLB   C3C43051  20.570  20.040  21.940
 1794BOLB   C4C43052  20.040  20.000  21.850
 1794BOLB   C1D43053  20.740  20.110  22.650
 1794BOLB   C2D43054  20.450  19.960  22.410
 1794BOLB   C3D43055  19.970  19.720  22.260
 1794BOLB   C4D43056  19.650  19.610  22.130
 1795BOLB   NC143057  10.430  11.340   8.290
 1795BOLB   PO143058  10.550  11.700   8.060
 1795BOLB   GL143059  10.200  11.520   7.910
 1795BOLB   GL243060   9.980  11.530   7.730
 1795BOLB   C1A43061  10.030  11.070   7.970
 1795BOLB   C2A43062   9.950  10.680   7.840
 1795BOLB   C3A43063   9.680  10.340   7.760
 1795BOLB   C4A43064   9.210  10.340   7.640
 1795BOLB   C1B43065  10.280  11.490   7.400
 1795BOLB   C2B43066  10.230  11.340   7.020
 1795BOLB   C3B43067   9.950  11.300   6.730
 1795BOLB   C4B43068   9.720  11.050   6.530
 1795BOLB   NC243069   7.500  10.220   6.130
 1795BOLB   PO243070   7.930  10.300   5.780
 1795BOLB   GL343071   8.300  10.130   5.860
 1795BOLB   GL443072   8.510  10.340   5.870
 1795BOLB   C1C43073   8.620  10.020   6.260
 1795BOLB   C2C43074   8.720  10.350   6.610
 1795BOLB   C3C43075   8.790  10.490   6.970
 1795BOLB   C4C43076   9.000  10.580   7.380
 1795BOLB   C1D43077   8.900  10.520   6.110
 1795BOLB   C2D43078   9.240  10.310   6.390
 1795BOLB   C3D43079   9.010   9.980   6.580
 1795BOLB   C4D43080   9.070   9.700   6.830
 1796BOLB   NC143081  26.860  21.470   6.230
 1796BOLB   PO143082  26.420  21.600   6.190
 1796BOLB   GL143083  26.040  21.400   6.280
 1796BOLB   GL243084  25.750  21.640   6.450
 1796BOLB   C1A43085  25.740  21.080   6.290
 1796BOLB   C2A43086  25.580  20.770   6.200
 1796BOLB   C3A43087  25.320  20.540   6.430
 1796BOLB   C4A43088  25.160  20.330   6.790
 1796BOLB   C1B43089  25.610  21.720   6.830
 1796BOLB   C2B43090  25.230  21.760   7.100
 1796BOLB   C3B43091  24.820  21.700   7.150
 1796BOLB   C4B43092  24.400  21.620   7.460
 1796BOLB   NC243093  27.620  19.540   7.390
 1796BOLB   PO243094  27.330  19.730   7.430
 1796BOLB   GL343095  26.900  19.810   7.610
 1796BOLB   GL443096  26.850  19.430   7.700
 1796BOLB   C1C43097  26.570  20.090   7.650
 1796BOLB   C2C43098  26.250  20.300   7.450
 1796BOLB   C3C43099  26.020  20.440   7.210
 1796BOLB   C4C43100  25.560  20.340   7.120
 1796BOLB   C1D43101  26.350  19.450   7.680
 1796BOLB   C2D43102  25.990  19.340   7.390
 1796BOLB   C3D43103  25.550  19.410   7.460
 1796BOLB   C4D43104  25.130  19.470   7.640
 1797BOLB   NC143105  17.940  22.580  18.490
 1797BOLB   PO143106  18.070  22.890  18.880
 1797BOLB   GL143107  18.200  23.110  19.190
 1797BOLB   GL243108  18.270  22.990  19.440
 1797BOLB   C1A43109  18.110  23.580  19.280
 1797BOLB   C2A43110  18.340  23.910  19.420
 1797BOLB   C3A43111  18.640  23.910  19.780
 1797BOLB   C4A43112  18.820  23.860  20.070
 1797BOLB   C1B43113  18.350  23.140  19.820
 1797BOLB   C2B43114  18.340  23.140  20.290
 1797BOLB   C3B43115  18.200  23.330  20.630
 1797BOLB   C4B43116  18.000  23.740  20.640
 1797BOLB   NC243117  20.240  24.620  21.940
 1797BOLB   PO243118  20.310  24.230  22.150
 1797BOLB   GL343119  20.030  24.040  21.780
 1797BOLB   GL443120  19.770  23.930  21.750
 1797BOLB   C1C43121  19.860  24.040  21.310
 1797BOLB   C2C43122  19.570  23.920  21.000
 1797BOLB   C3C43123  19.460  23.890  20.600
 1797BOLB   C4C43124  19.090  23.790  20.410
 1797BOLB   C1D43125  19.380  24.000  21.560
 1797BOLB   C2D43126  19.150  23.700  21.320
 1797BOLB   C3D43127  18.810  23.630  20.950
 1797BOLB   C4D43128  18.630  23.580  20.530
 1798BOLB   NC143129  23.400  18.970  13.300
 1798BOLB   PO143130  23.410  19.430  13.360
 1798BOLB   GL143131  23.910  19.570  13.340
 1798BOLB   GL243132  24.190  19.360  13.410
 1798BOLB   C1A43133  24.250  19.870  13.420
 1798BOLB   C2A43134  24.600  19.960  13.570
 1798BOLB   C3A43135  24.970  20.000  13.690
 1798BOLB   C4A43136  25.390  20.260  13.860
 1798BOLB   C1B43137  24.510  19.480  13.140
 1798BOLB   C2B43138  24.930  19.430  13.150
 1798BOLB   C3B43139  25.330  19.570  13.160
 1798BOLB   C4B43140  25.690  19.350  13.180
 1798BOLB   NC243141  27.790  20.560  14.660
 1798BOLB   PO243142  27.620  20.770  14.290
 1798BOLB   GL343143  27.300  21.000  14.110
 1798BOLB   GL443144  27.070  20.790  14.340
 1798BOLB   C1C43145  26.820  21.080  14.060
 1798BOLB   C2C43146  26.460  20.970  14.040
 1798BOLB   C3C43147  26.050  20.860  13.890
 1798BOLB   C4C43148  25.760  20.470  13.830
 1798BOLB   C1D43149  26.770  20.560  14.110
 1798BOLB   C2D43150  26.470  20.500  13.800
 1798BOLB   C3D43151  26.120  20.540  13.410
 1798BOLB   C4D43152  26.160  20.640  12.930
 1799BOLB   NC143153  15.360  11.350   6.440
 1799BOLB   PO143154  15.090  11.250   6.090
 1799BOLB   GL143155  15.060  10.880   5.750
 1799BOLB   GL243156  15.150  10.880   5.490
 1799BOLB   C1A43157  14.800  10.550   5.540
 1799BOLB   C2A43158  14.660  10.310   5.280
 1799BOLB   C3A43159  14.380  10.070   4.950
 1799BOLB   C4A43160  14.020   9.960   4.630
 1799BOLB   C1B43161  15.110  10.660   5.120
 1799BOLB   C2B43162  15.110  10.280   4.970
 1799BOLB   C3B43163  14.820  10.100   4.600
 1799BOLB   C4B43164  14.510   9.810   4.330
 1799BOLB   NC243165  13.600   8.230   2.800
 1799BOLB   PO243166  13.350   8.590   3.080
 1799BOLB   GL343167  13.660   8.950   3.190
 1799BOLB   GL443168  13.430   9.100   3.510
 1799BOLB   C1C43169  13.850   9.220   3.380
 1799BOLB   C2C43170  14.020   9.490   3.610
 1799BOLB   C3C43171  14.100   9.590   4.010
 1799BOLB   C4C43172  14.000   9.690   4.480
 1799BOLB   C1D43173  13.510   9.290   3.930
 1799BOLB   C2D43174  13.620   9.200   4.400
 1799BOLB   C3D43175  13.820   9.340   4.760
 1799BOLB   C4D43176  14.160   9.610   4.990
 1800BOLB   NC143177  21.750  14.910   0.770
 1800BOLB   PO143178  21.780  15.090   1.240
 1800BOLB   GL143179  21.480  15.000   1.580
 1800BOLB   GL243180  21.390  14.730   1.490
 1800BOLB   C1A43181  21.480  15.220   1.990
 1800BOLB   C2A43182  21.240  15.360   2.350
 1800BOLB   C3A43183  21.200  15.400   2.840
 1800BOLB   C4A43184  21.580  15.710   3.120
 1800BOLB   C1B43185  21.290  14.530   1.860
 1800BOLB   C2B43186  21.240  14.810   2.190
 1800BOLB   C3B43187  21.060  14.950   2.570
 1800BOLB   C4B43188  20.710  15.070   2.940
 1800BOLB   NC243189  22.480  16.090   1.540
 1800BOLB   PO243190  22.750  16.390   1.360
 1800BOLB   GL343191  22.650  16.550   1.790
 1800BOLB   GL443192  22.690  16.910   1.840
 1800BOLB   C1C43193  22.360  16.510   2.130
 1800BOLB   C2C43194  22.100  16.460   2.480
 1800BOLB   C3C43195  21.830  16.260   2.810
 1800BOLB   C4C43196  21.640  16.060   3.060
 1800BOLB   C1D43197  22.270  16.940   1.970
 1800BOLB   C2D43198  21.920  16.830   2.220
 1800BOLB   C3D43199  21.570  16.920   2.450
 1800BOLB   C4D43200  21.260  16.950   2.690
 1801BOLB   NC143201  13.890  21.050   6.940
 1801BOLB   PO143202  14.250  21.350   6.900
 1801BOLB   GL143203  14.100  21.910   6.820
 1801BOLB   GL243204  14.310  22.160   6.900
 1801BOLB   C1A43205  14.020  22.140   6.430
 1801BOLB   C2A43206  13.870  22.290   5.970
 1801BOLB   C3A43207  13.820  22.500   5.690
 1801BOLB   C4A43208  13.870  22.610   5.240
 1801BOLB   C1B43209  14.380  22.440   6.620
 1801BOLB   C2B43210  14.500  22.890   6.470
 1801BOLB   C3B43211  14.230  23.070   6.120
 1801BOLB   C4B43212  13.940  23.390   5.920
 1801BOLB   NC243213  13.510  24.240   3.770
 1801BOLB   PO243214  13.540  23.960   3.470
 1801BOLB   GL343215  13.590  23.670   3.720
 1801BOLB   GL443216  13.540  23.360   3.490
 1801BOLB   C1C43217  13.490  23.410   4.080
 1801BOLB   C2C43218  13.550  23.110   4.290
 1801BOLB   C3C43219  13.770  22.900   4.570
 1801BOLB   C4C43220  14.000  22.840   4.930
 1801BOLB   C1D43221  13.430  23.090   3.620
 1801BOLB   C2D43222  13.620  22.800   3.930
 1801BOLB   C3D43223  13.900  22.490   3.990
 1801BOLB   C4D43224  14.040  22.120   4.110
 1802BOLB   NC143225  23.870  18.060  11.000
 1802BOLB   PO143226  24.120  18.140  11.440
 1802BOLB   GL143227  24.640  18.140  11.410
 1802BOLB   GL243228  24.710  18.140  11.790
 1802BOLB   C1A43229  24.960  18.500  11.380
 1802BOLB   C2A43230  25.310  18.770  11.190
 1802BOLB   C3A43231  25.630  18.820  10.910
 1802BOLB   C4A43232  26.080  19.060  10.920
 1802BOLB   C1B43233  25.210  18.170  11.740
 1802BOLB   C2B43234  25.510  18.370  11.420
 1802BOLB   C3B43235  25.880  18.610  11.260
 1802BOLB   C4B43236  26.230  18.790  11.380
 1802BOLB   NC243237  28.590  18.020   9.720
 1802BOLB   PO243238  28.170  18.110   9.670
 1802BOLB   GL343239  27.890  18.340   9.910
 1802BOLB   GL443240  27.840  18.660   9.930
 1802BOLB   C1C43241  27.510  18.420  10.240
 1802BOLB   C2C43242  27.160  18.670  10.410
 1802BOLB   C3C43243  26.760  18.810  10.480
 1802BOLB   C4C43244  26.400  19.070  10.730
 1802BOLB   C1D43245  27.940  18.680  10.360
 1802BOLB   C2D43246  27.630  18.660  10.660
 1802BOLB   C3D43247  27.240  18.730  10.880
 1802BOLB   C4D43248  26.920  19.050  10.900
 1803BOLB   NC143249  23.750  18.960  14.410
 1803BOLB   PO143250  23.850  18.830  14.040
 1803BOLB   GL143251  24.290  18.900  14.230
 1803BOLB   GL243252  24.240  19.140  14.480
 1803BOLB   C1A43253  24.770  18.830  14.110
 1803BOLB   C2A43254  25.090  18.810  14.090
 1803BOLB   C3A43255  25.430  19.050  14.100
 1803BOLB   C4A43256  25.710  19.370  14.050
 1803BOLB   C1B43257  24.550  19.380  14.650
 1803BOLB   C2B43258  24.950  19.600  14.600
 1803BOLB   C3B43259  25.330  19.680  14.750
 1803BOLB   C4B43260  25.620  19.420  14.990
 1803BOLB   NC243261  27.560  19.300  14.360
 1803BOLB   PO243262  27.810  18.940  14.390
 1803BOLB   GL343263  27.450  18.860  14.670
 1803BOLB   GL443264  27.240  19.140  14.800
 1803BOLB   C1C43265  27.020  18.710  14.850
 1803BOLB   C2C43266  26.650  18.970  14.830
 1803BOLB   C3C43267  26.410  19.260  14.460
 1803BOLB   C4C43268  26.210  19.430  14.200
 1803BOLB   C1D43269  26.950  19.370  14.620
 1803BOLB   C2D43270  26.590  19.700  14.420
 1803BOLB   C3D43271  26.210  19.820  14.510
 1803BOLB   C4D43272  25.720  19.970  14.620
 1804BOLB   NC143273  20.730  17.800   5.120
 1804BOLB   PO143274  20.730  18.290   5.070
 1804BOLB   GL143275  20.760  18.600   4.620
 1804BOLB   GL243276  20.930  18.330   4.570
 1804BOLB   C1A43277  20.980  18.910   4.400
 1804BOLB   C2A43278  21.220  19.080   4.060
 1804BOLB   C3A43279  21.480  19.390   4.040
 1804BOLB   C4A43280  21.780  19.640   3.730
 1804BOLB   C1B43281  21.300  18.500   4.490
 1804BOLB   C2B43282  21.680  18.540   4.460
 1804BOLB   C3B43283  22.100  18.570   4.560
 1804BOLB   C4B43284  22.360  18.850   4.780
 1804BOLB   NC243285  23.790  20.580   2.990
 1804BOLB   PO243286  23.560  20.500   2.630
 1804BOLB   GL343287  23.270  20.360   2.920
 1804BOLB   GL443288  23.350  20.480   3.270
 1804BOLB   C1C43289  23.000  20.190   2.990
 1804BOLB   C2C43290  22.580  20.140   2.990
 1804BOLB   C3C43291  22.240  20.030   3.280
 1804BOLB   C4C43292  21.900  19.760   3.400
 1804BOLB   C1D43293  22.950  20.450   3.410
 1804BOLB   C2D43294  22.620  20.310   3.600
 1804BOLB   C3D43295  22.710  20.190   3.970
 1804BOLB   C4D43296  22.470  19.890   4.200
 1805BOLB   NC143297  20.180  12.210   6.300
 1805BOLB   PO143298  19.920  11.840   6.390
 1805BOLB   GL143299  20.110  11.680   6.190
 1805BOLB   GL243300  20.120  11.870   5.880
 1805BOLB   C1A43301  20.350  11.450   5.890
 1805BOLB   C2A43302  20.550  11.100   5.710
 1805BOLB   C3A43303  20.920  10.980   5.530
 1805BOLB   C4A43304  21.000  10.630   5.260
 1805BOLB   C1B43305  19.970  11.640   5.570
 1805BOLB   C2B43306  20.010  11.180   5.450
 1805BOLB   C3B43307  19.930  11.030   5.060
 1805BOLB   C4B43308  19.860  11.020   4.590
 1805BOLB   NC243309  22.180  10.700   3.070
 1805BOLB   PO243310  21.730  10.690   3.350
 1805BOLB   GL343311  21.530  10.720   3.690
 1805BOLB   GL443312  21.760  10.670   3.900
 1805BOLB   C1C43313  21.240  10.470   3.990
 1805BOLB   C2C43314  21.180  10.090   4.180
 1805BOLB   C3C43315  21.240  10.220   4.700
 1805BOLB   C4C43316  21.260  10.350   5.110
 1805BOLB   C1D43317  21.470  11.010   4.110
 1805BOLB   C2D43318  21.410  11.240   4.490
 1805BOLB   C3D43319  21.230  11.330   4.720
 1805BOLB   C4D43320  20.960  11.120   5.030
 1806BOLB   NC143321  21.500  23.830  13.130
 1806BOLB   PO143322  21.470  23.410  13.420
 1806BOLB   GL143323  21.670  23.800  13.620
 1806BOLB   GL243324  21.870  24.080  13.410
 1806BOLB   C1A43325  22.140  23.950  13.910
 1806BOLB   C2A43326  22.490  23.890  14.070
 1806BOLB   C3A43327  22.790  24.180  14.150
 1806BOLB   C4A43328  23.200  24.360  14.130
 1806BOLB   C1B43329  22.020  24.380  13.640
 1806BOLB   C2B43330  22.250  24.540  13.880
 1806BOLB   C3B43331  22.700  24.600  13.940
 1806BOLB   C4B43332  23.080  24.840  14.100
 1806BOLB   NC243333  24.520  26.300  15.240
 1806BOLB   PO243334  24.750  26.330  14.790
 1806BOLB   GL343335  24.390  25.950  14.890
 1806BOLB   GL443336  24.200  26.110  14.590
 1806BOLB   C1C43337  24.090  25.590  14.860
 1806BOLB   C2C43338  23.920  25.180  14.810
 1806BOLB   C3C43339  23.570  24.850  14.720
 1806BOLB   C4C43340  23.470  24.540  14.450
 1806BOLB   C1D43341  24.180  25.760  14.390
 1806BOLB   C2D43342  24.170  25.300  14.340
 1806BOLB   C3D43343  23.930  25.080  14.170
 1806BOLB   C4D43344  23.680  24.700  14.020
 1807BOLB   NC143345  15.760  14.180   4.370
 1807BOLB   PO143346  15.310  14.120   4.430
 1807BOLB   GL143347  15.440  13.990   4.060
 1807BOLB   GL243348  15.720  13.830   4.050
 1807BOLB   C1A43349  15.230  13.720   3.740
 1807BOLB   C2A43350  14.960  13.500   3.460
 1807BOLB   C3A43351  14.830  13.300   3.080
 1807BOLB   C4A43352  14.910  12.990   2.630
 1807BOLB   C1B43353  16.120  13.750   3.760
 1807BOLB   C2B43354  16.450  13.520   3.910
 1807BOLB   C3B43355  16.680  13.080   3.990
 1807BOLB   C4B43356  16.970  12.800   3.940
 1807BOLB   NC243357  14.640  12.960   0.760
 1807BOLB   PO243358  14.650  13.290   0.770
 1807BOLB   GL343359  14.990  13.170   1.100
 1807BOLB   GL443360  15.310  13.260   0.930
 1807BOLB   C1C43361  15.080  13.340   1.530
 1807BOLB   C2C43362  15.220  13.480   1.840
 1807BOLB   C3C43363  15.370  13.380   2.120
 1807BOLB   C4C43364  15.220  12.950   2.370
 1807BOLB   C1D43365  15.280  13.610   1.080
 1807BOLB   C2D43366  15.240  13.860   1.450
 1807BOLB   C3D43367  15.130  14.150   1.860
 1807BOLB   C4D43368  14.780  14.230   2.200
 1808BOLB   NC143369  22.140  14.400  16.200
 1808BOLB   PO143370  22.140  14.800  16.060
 1808BOLB   GL143371  22.430  14.770  16.320
 1808BOLB   GL243372  22.310  14.820  16.560
 1808BOLB   C1A43373  22.730  14.620  16.560
 1808BOLB   C2A43374  23.190  14.540  16.670
 1808BOLB   C3A43375  23.630  14.360  16.730
 1808BOLB   C4A43376  23.920  14.100  17.010
 1808BOLB   C1B43377  22.440  14.880  16.920
 1808BOLB   C2B43378  22.780  14.560  17.070
 1808BOLB   C3B43379  23.160  14.340  17.230
 1808BOLB   C4B43380  23.620  14.280  17.350
 1808BOLB   NC243381  25.320  12.910  18.700
 1808BOLB   PO243382  24.910  12.790  18.730
 1808BOLB   GL343383  24.640  13.090  18.610
 1808BOLB   GL443384  24.580  13.330  18.730
 1808BOLB   C1C43385  24.760  13.370  18.280
 1808BOLB   C2C43386  24.660  13.440  17.860
 1808BOLB   C3C43387  24.310  13.720  17.630
 1808BOLB   C4C43388  24.010  14.000  17.520
 1808BOLB   C1D43389  24.330  13.610  18.680
 1808BOLB   C2D43390  24.090  13.900  18.480
 1808BOLB   C3D43391  23.840  14.150  18.330
 1808BOLB   C4D43392  23.750  14.560  18.540
 1809BOLB   NC143393  10.120  20.100   9.370
 1809BOLB   PO143394  10.070  20.050   8.910
 1809BOLB   GL143395   9.940  20.450   8.660
 1809BOLB   GL243396   9.920  20.350   8.490
 1809BOLB   C1A43397   9.870  20.900   8.500
 1809BOLB   C2A43398   9.550  21.160   8.380
 1809BOLB   C3A43399   9.220  21.240   8.060
 1809BOLB   C4A43400   8.970  21.490   7.890
 1809BOLB   C1B43401   9.720  20.480   8.150
 1809BOLB   C2B43402   9.370  20.760   8.160
 1809BOLB   C3B43403   8.900  20.800   7.970
 1809BOLB   C4B43404   8.550  21.020   8.050
 1809BOLB   NC243405   7.550  23.300   6.850
 1809BOLB   PO243406   7.210  23.030   7.100
 1809BOLB   GL343407   7.320  22.650   7.460
 1809BOLB   GL443408   7.100  22.330   7.500
 1809BOLB   C1C43409   7.710  22.460   7.460
 1809BOLB   C2C43410   8.070  22.320   7.640
 1809BOLB   C3C43411   8.320  22.000   7.810
 1809BOLB   C4C43412   8.640  21.720   7.950
 1809BOLB   C1D43413   7.310  22.070   7.640
 1809BOLB   C2D43414   7.690  22.000   7.940
 1809BOLB   C3D43415   8.120  21.870   8.230
 1809BOLB   C4D43416   8.420  21.800   8.440
 1810BOLB   NC143417  19.970  19.390  18.490
 1810BOLB   PO143418  20.390  19.420  18.540
 1810BOLB   GL143419  20.670  19.670  18.920
 1810BOLB   GL243420  21.040  19.580  18.890
 1810BOLB   C1A43421  20.840  19.480  19.300
 1810BOLB   C2A43422  20.900  19.660  19.760
 1810BOLB   C3A43423  21.180  19.760  20.120
 1810BOLB   C4A43424  21.450  19.370  20.300
 1810BOLB   C1B43425  21.360  19.520  19.290
 1810BOLB   C2B43426  21.740  19.690  19.490
 1810BOLB   C3B43427  22.090  19.600  19.720
 1810BOLB   C4B43428  22.340  19.570  20.130
 1810BOLB   NC243429  23.420  20.170  21.180
 1810BOLB   PO243430  23.230  20.390  21.610
 1810BOLB   GL343431  22.930  20.280  21.330
 1810BOLB   GL443432  22.780  20.510  21.380
 1810BOLB   C1C43433  22.630  20.110  21.050
 1810BOLB   C2C43434  22.370  19.950  20.670
 1810BOLB   C3C43435  21.990  19.760  20.850
 1810BOLB   C4C43436  21.710  19.460  20.640
 1810BOLB   C1D43437  22.350  20.330  21.330
 1810BOLB   C2D43438  21.920  20.170  21.170
 1810BOLB   C3D43439  21.490  20.390  21.000
 1810BOLB   C4D43440  21.040  20.520  20.900
 1811BOLB   NC143441  17.600  24.920  16.210
 1811BOLB   PO143442  17.660  24.940  15.780
 1811BOLB   GL143443  17.850  25.220  15.820
 1811BOLB   GL243444  17.960  25.340  15.590
 1811BOLB   C1A43445  18.050  25.560  16.100
 1811BOLB   C2A43446  17.960  25.710  16.510
 1811BOLB   C3A43447  17.870  25.860  16.920
 1811BOLB   C4A43448  17.880  26.180  17.240
 1811BOLB   C1B43449  17.920  25.760  15.640
 1811BOLB   C2B43450  18.250  25.920  15.810
 1811BOLB   C3B43451  18.350  25.920  16.190
 1811BOLB   C4B43452  18.260  26.150  16.630
 1811BOLB   NC243453  18.600  28.750  18.590
 1811BOLB   PO243454  18.390  28.340  18.440
 1811BOLB   GL343455  18.330  27.830  18.470
 1811BOLB   GL443456  18.720  27.720  18.420
 1811BOLB   C1C43457  18.310  27.460  18.320
 1811BOLB   C2C43458  18.260  27.130  18.100
 1811BOLB   C3C43459  18.180  26.740  17.810
 1811BOLB   C4C43460  18.050  26.400  17.500
 1811BOLB   C1D43461  18.740  27.230  18.340
 1811BOLB   C2D43462  18.630  26.860  18.410
 1811BOLB   C3D43463  18.220  26.650  18.320
 1811BOLB   C4D43464  18.210  26.270  17.950
 1812BOLB   NC143465  23.840  14.360  11.760
 1812BOLB   PO143466  24.000  14.300  12.200
 1812BOLB   GL143467  24.290  14.470  12.500
 1812BOLB   GL243468  24.250  14.220  12.710
 1812BOLB   C1A43469  24.560  14.760  12.720
 1812BOLB   C2A43470  24.860  14.590  12.910
 1812BOLB   C3A43471  25.250  14.470  13.030
 1812BOLB   C4A43472  25.640  14.360  13.040
 1812BOLB   C1B43473  24.650  14.150  12.870
 1812BOLB   C2B43474  25.020  14.000  12.950
 1812BOLB   C3B43475  25.400  13.760  13.130
 1812BOLB   C4B43476  25.490  13.400  13.420
 1812BOLB   NC243477  27.200  13.140  12.650
 1812BOLB   PO243478  27.430  13.400  12.380
 1812BOLB   GL343479  27.060  13.380  12.210
 1812BOLB   GL443480  26.790  13.100  12.330
 1812BOLB   C1C43481  26.830  13.670  12.010
 1812BOLB   C2C43482  26.650  14.010  12.270
 1812BOLB   C3C43483  26.230  14.240  12.330
 1812BOLB   C4C43484  25.960  14.380  12.730
 1812BOLB   C1D43485  26.670  13.500  12.530
 1812BOLB   C2D43486  26.280  13.600  12.420
 1812BOLB   C3D43487  25.910  13.820  12.320
 1812BOLB   C4D43488  25.690  14.220  12.220
 1813BOLB   NC143489  19.090  22.830   7.800
 1813BOLB   PO143490  18.810  22.980   8.040
 1813BOLB   GL143491  18.750  23.370   7.730
 1813BOLB   GL243492  18.790  23.150   7.420
 1813BOLB   C1A43493  18.910  23.760   7.750
 1813BOLB   C2A43494  19.000  24.270   7.580
 1813BOLB   C3A43495  18.770  24.590   7.410
 1813BOLB   C4A43496  18.830  24.910   7.480
 1813BOLB   C1B43497  18.730  23.370   7.080
 1813BOLB   C2B43498  18.670  23.630   6.800
 1813BOLB   C3B43499  18.850  23.880   6.600
 1813BOLB   C4B43500  19.170  24.070   6.790
 1813BOLB   NC243501  19.660  26.980   5.540
 1813BOLB   PO243502  19.450  26.820   5.980
 1813BOLB   GL343503  19.280  26.710   6.400
 1813BOLB   GL443504  19.190  26.900   6.740
 1813BOLB   C1C43505  19.360  26.390   6.770
 1813BOLB   C2C43506  19.290  25.950   7.010
 1813BOLB   C3C43507  19.190  25.560   7.210
 1813BOLB   C4C43508  19.120  25.250   7.320
 1813BOLB   C1D43509  19.080  26.810   7.210
 1813BOLB   C2D43510  19.210  26.710   7.570
 1813BOLB   C3D43511  19.690  26.630   7.600
 1813BOLB   C4D43512  20.010  26.510   7.480
 1814BOLB   NC143513  21.620  14.010  15.980
 1814BOLB   PO143514  22.120  14.040  15.770
 1814BOLB   GL143515  22.540  14.160  16.000
 1814BOLB   GL243516  22.550  14.010  16.320
 1814BOLB   C1A43517  22.900  14.380  16.080
 1814BOLB   C2A43518  23.330  14.240  16.170
 1814BOLB   C3A43519  23.780  14.230  16.230
 1814BOLB   C4A43520  24.210  14.140  16.460
 1814BOLB   C1B43521  22.930  13.720  16.400
 1814BOLB   C2B43522  23.320  13.450  16.560
 1814BOLB   C3B43523  23.630  13.170  16.670
 1814BOLB   C4B43524  24.070  13.230  16.770
 1814BOLB   NC243525  25.680  12.030  16.960
 1814BOLB   PO243526  25.670  12.370  17.260
 1814BOLB   GL343527  25.400  12.550  17.050
 1814BOLB   GL443528  25.600  12.680  16.760
 1814BOLB   C1C43529  25.110  12.830  16.810
 1814BOLB   C2C43530  24.970  13.210  16.900
 1814BOLB   C3C43531  24.790  13.620  16.870
 1814BOLB   C4C43532  24.530  13.940  16.800
 1814BOLB   C1D43533  25.230  12.370  16.560
 1814BOLB   C2D43534  24.850  12.580  16.450
 1814BOLB   C3D43535  24.610  12.670  16.800
 1814BOLB   C4D43536  24.540  13.050  17.060
 1815BOLB   NC143537  26.530  19.210  17.740
 1815BOLB   PO143538  26.640  18.760  17.690
 1815BOLB   GL143539  26.330  18.620  17.390
 1815BOLB   GL243540  26.100  18.820  17.530
 1815BOLB   C1A43541  25.930  18.650  17.080
 1815BOLB   C2A43542  25.590  18.880  16.910
 1815BOLB   C3A43543  25.300  18.900  16.610
 1815BOLB   C4A43544  24.980  18.910  16.370
 1815BOLB   C1B43545  25.610  18.970  17.490
 1815BOLB   C2B43546  25.350  19.180  17.260
 1815BOLB   C3B43547  25.190  19.260  16.920
 1815BOLB   C4B43548  24.820  19.420  16.920
 1815BOLB   NC243549  26.540  19.830  16.880
 1815BOLB   PO243550  26.780  19.760  16.450
 1815BOLB   GL343551  26.380  19.810  16.260
 1815BOLB   GL443552  26.190  20.010  16.470
 1815BOLB   C1C43553  26.050  19.570  16.170
 1815BOLB   C2C43554  25.700  19.530  15.830
 1815BOLB   C3C43555  25.370  19.300  15.880
 1815BOLB   C4C43556  24.900  19.210  15.990
 1815BOLB   C1D43557  25.950  19.670  16.620
 1815BOLB   C2D43558  25.660  19.570  16.880
 1815BOLB   C3D43559  25.500  19.640  17.280
 1815BOLB   C4D43560  25.060  19.630  17.340
 1816BOLB   NC143561  15.960  24.680  16.590
 1816BOLB   PO143562  16.200  24.660  16.910
 1816BOLB   GL143563  16.080  25.120  16.910
 1816BOLB   GL243564  16.030  25.160  17.220
 1816BOLB   C1A43565  15.960  25.630  16.990
 1816BOLB   C2A43566  15.960  26.050  17.150
 1816BOLB   C3A43567  15.960  26.490  17.030
 1816BOLB   C4A43568  16.130  26.850  17.080
 1816BOLB   C1B43569  16.010  25.420  17.550
 1816BOLB   C2B43570  15.940  25.870  17.640
 1816BOLB   C3B43571  15.780  26.010  18.010
 1816BOLB   C4B43572  15.570  26.040  18.420
 1816BOLB   NC243573  16.300  28.560  18.560
 1816BOLB   PO243574  16.610  28.710  18.170
 1816BOLB   GL343575  16.430  28.430  18.040
 1816BOLB   GL443576  16.590  28.310  17.760
 1816BOLB   C1C43577  16.280  28.040  18.080
 1816BOLB   C2C43578  16.260  27.670  18.020
 1816BOLB   C3C43579  16.090  27.370  17.750
 1816BOLB   C4C43580  16.130  27.170  17.300
 1816BOLB   C1D43581  16.570  28.120  17.390
 1816BOLB   C2D43582  16.570  27.940  16.990
 1816BOLB   C3D43583  16.320  27.780  16.600
 1816BOLB   C4D43584  16.140  27.520  16.320
 1817BOLB   NC143585  20.810  12.440   8.100
 1817BOLB   PO143586  21.030  11.980   7.770
 1817BOLB   GL143587  21.340  11.650   7.670
 1817BOLB   GL243588  21.190  11.340   7.710
 1817BOLB   C1A43589  21.690  11.540   7.610
 1817BOLB   C2A43590  21.910  11.250   7.390
 1817BOLB   C3A43591  22.160  10.780   7.330
 1817BOLB   C4A43592  22.590  10.660   7.320
 1817BOLB   C1B43593  21.320  11.090   7.550
 1817BOLB   C2B43594  21.660  10.780   7.500
 1817BOLB   C3B43595  21.890  10.400   7.270
 1817BOLB   C4B43596  21.920  10.060   6.920
 1817BOLB   NC243597  24.860   9.740   6.740
 1817BOLB   PO243598  24.530   9.480   6.650
 1817BOLB   GL343599  24.060   9.480   6.790
 1817BOLB   GL443600  23.960   9.220   6.960
 1817BOLB   C1C43601  24.010   9.700   7.180
 1817BOLB   C2C43602  23.770  10.080   7.450
 1817BOLB   C3C43603  23.350  10.310   7.580
 1817BOLB   C4C43604  22.970  10.370   7.390
 1817BOLB   C1D43605  23.610   9.460   7.030
 1817BOLB   C2D43606  23.420   9.850   7.140
 1817BOLB   C3D43607  23.480  10.320   7.110
 1817BOLB   C4D43608  23.350  10.700   7.000
 1818BOLB   NC143609  23.250  21.200  12.500
 1818BOLB   PO143610  23.120  21.580  12.350
 1818BOLB   GL143611  23.560  21.760  12.200
 1818BOLB   GL243612  23.740  22.050  12.240
 1818BOLB   C1A43613  23.990  21.660  12.020
 1818BOLB   C2A43614  24.350  21.780  12.050
 1818BOLB   C3A43615  24.670  22.050  12.140
 1818BOLB   C4A43616  24.870  22.440  12.370
 1818BOLB   C1B43617  24.070  22.290  12.300
 1818BOLB   C2B43618  24.220  22.580  12.480
 1818BOLB   C3B43619  24.330  22.920  12.580
 1818BOLB   C4B43620  24.690  23.110  12.530
 1818BOLB   NC243621  26.680  23.970  11.570
 1818BOLB   PO243622  26.860  23.680  11.940
 1818BOLB   GL343623  26.430  23.750  12.010
 1818BOLB   GL443624  26.290  23.640  11.750
 1818BOLB   C1C43625  26.090  23.450  12.240
 1818BOLB   C2C43626  25.700  23.230  12.450
 1818BOLB   C3C43627  25.490  22.860  12.420
 1818BOLB   C4C43628  25.240  22.760  12.550
 1818BOLB   C1D43629  26.000  23.410  11.550
 1818BOLB   C2D43630  25.740  23.090  11.350
 1818BOLB   C3D43631  25.400  22.890  11.360
 1818BOLB   C4D43632  25.120  22.700  11.580
 1819BOLB   NC143633  17.950  19.110  19.750
 1819BOLB   PO143634  18.220  19.140  20.180
 1819BOLB   GL143635  18.440  19.060  20.520
 1819BOLB   GL243636  18.620  19.350  20.570
 1819BOLB   C1A43637  18.440  19.100  21.010
 1819BOLB   C2A43638  18.310  19.420  21.140
 1819BOLB   C3A43639  18.280  19.540  21.510
 1819BOLB   C4A43640  18.300  19.690  21.940
 1819BOLB   C1B43641  18.820  19.430  20.930
 1819BOLB   C2B43642  18.740  19.590  21.300
 1819BOLB   C3B43643  18.810  19.610  21.760
 1819BOLB   C4B43644  18.730  19.520  22.140
 1819BOLB   NC243645  19.390  19.930  24.150
 1819BOLB   PO243646  19.540  20.140  23.680
 1819BOLB   GL343647  19.310  20.360  23.370
 1819BOLB   GL443648  19.640  20.570  23.250
 1819BOLB   C1C43649  18.940  20.360  23.120
 1819BOLB   C2C43650  18.690  20.250  22.890
 1819BOLB   C3C43651  18.400  20.150  22.680
 1819BOLB   C4C43652  18.230  19.810  22.340
 1819BOLB   C1D43653  19.410  20.860  23.010
 1819BOLB   C2D43654  18.990  20.780  22.770
 1819BOLB   C3D43655  18.500  20.710  22.750
 1819BOLB   C4D43656  18.230  20.920  23.020
 1820BOLB   NC143657  16.710  15.590  20.740
 1820BOLB   PO143658  17.060  15.690  20.620
 1820BOLB   GL143659  17.150  15.590  21.090
 1820BOLB   GL243660  16.840  15.580  21.220
 1820BOLB   C1A43661  17.270  15.460  21.470
 1820BOLB   C2A43662  17.340  15.360  21.940
 1820BOLB   C3A43663  17.580  15.380  22.350
 1820BOLB   C4A43664  17.860  15.200  22.700
 1820BOLB   C1B43665  16.990  15.820  21.650
 1820BOLB   C2B43666  16.940  15.660  22.100
 1820BOLB   C3B43667  17.130  15.560  22.430
 1820BOLB   C4B43668  17.340  15.620  22.910
 1820BOLB   NC243669  19.330  15.090  24.950
 1820BOLB   PO243670  19.100  15.460  24.700
 1820BOLB   GL343671  18.900  15.110  24.390
 1820BOLB   GL443672  19.130  14.800  24.280
 1820BOLB   C1C43673  18.840  15.300  23.970
 1820BOLB   C2C43674  18.610  15.180  23.760
 1820BOLB   C3C43675  18.560  14.960  23.400
 1820BOLB   C4C43676  18.180  14.970  23.010
 1820BOLB   C1D43677  18.860  14.690  23.970
 1820BOLB   C2D43678  18.660  14.380  23.900
 1820BOLB   C3D43679  18.320  14.240  23.860
 1820BOLB   C4D43680  18.010  14.190  23.450
 1821BOLB   NC143681  12.480  10.510   8.750
 1821BOLB   PO143682  11.970  10.470   8.540
 1821BOLB   GL143683  11.680  10.230   8.320
 1821BOLB   GL243684  11.980  10.000   8.230
 1821BOLB   C1A43685  11.260  10.090   8.420
 1821BOLB   C2A43686  10.800   9.890   8.150
 1821BOLB   C3A43687  10.330   9.630   8.210
 1821BOLB   C4A43688  10.220   9.270   8.420
 1821BOLB   C1B43689  11.760   9.690   8.090
 1821BOLB   C2B43690  11.700   9.400   7.770
 1821BOLB   C3B43691  11.330   9.220   7.540
 1821BOLB   C4B43692  11.100   8.950   7.470
 1821BOLB   NC243693   8.880   6.960   8.600
 1821BOLB   PO243694   8.570   7.330   8.630
 1821BOLB   GL343695   8.930   7.570   8.680
 1821BOLB   GL443696   9.240   7.400   8.780
 1821BOLB   C1C43697   9.190   7.970   8.800
 1821BOLB   C2C43698   9.640   8.170   8.830
 1821BOLB   C3C43699   9.930   8.490   8.770
 1821BOLB   C4C43700  10.140   8.860   8.670
 1821BOLB   C1D43701   9.420   7.630   9.090
 1821BOLB   C2D43702   9.810   7.890   9.280
 1821BOLB   C3D43703   9.930   8.260   9.520
 1821BOLB   C4D43704  10.030   8.660   9.690
 1822BOLB   NC143705  20.300  14.820   5.190
 1822BOLB   PO143706  20.660  14.560   5.250
 1822BOLB   GL143707  21.040  14.620   5.350
 1822BOLB   GL243708  21.190  14.860   5.120
 1822BOLB   C1A43709  21.400  14.420   5.270
 1822BOLB   C2A43710  21.700  14.560   5.040
 1822BOLB   C3A43711  22.080  14.700   4.830
 1822BOLB   C4A43712  22.350  14.840   4.480
 1822BOLB   C1B43713  21.410  14.850   4.630
 1822BOLB   C2B43714  21.740  14.610   4.430
 1822BOLB   C3B43715  22.000  14.270   4.300
 1822BOLB   C4B43716  22.150  14.110   3.980
 1822BOLB   NC243717  24.140  14.340   3.260
 1822BOLB   PO243718  23.940  14.230   2.770
 1822BOLB   GL343719  23.650  14.210   3.190
 1822BOLB   GL443720  23.490  14.050   3.170
 1822BOLB   C1C43721  23.540  14.290   3.670
 1822BOLB   C2C43722  23.220  14.600   3.820
 1822BOLB   C3C43723  22.990  14.990   4.020
 1822BOLB   C4C43724  22.610  14.990   4.210
 1822BOLB   C1D43725  23.110  13.990   3.260
 1822BOLB   C2D43726  22.980  14.070   3.690
 1822BOLB   C3D43727  22.560  14.040   3.700
 1822BOLB   C4D43728  22.250  13.940   3.370
 1823DPPE   NH343729  22.600  25.970   7.110
 1823DPPE   PO443730  23.040  25.820   6.960
 1823DPPE   GL143731  23.000  25.450   7.080
 1823DPPE   GL243732  22.560  25.390   7.130
 1823DPPE   C1A43733  23.150  25.010   6.970
 1823DPPE   C2A43734  23.460  24.580   6.930
 1823DPPE   C3A43735  23.840  24.490   6.980
 1823DPPE   C4A43736  24.120  24.100   6.860
 1823DPPE   C1B43737  22.370  25.140   7.430
 1823DPPE   C2B43738  21.890  25.030   7.490
 1823DPPE   C3B43739  21.680  24.640   7.770
 1823DPPE   C4B43740  21.460  24.240   7.630
 1824DPPE   NH343741  24.990  22.520   5.400
 1824DPPE   PO443742  25.170  22.600   5.760
 1824DPPE   GL143743  24.760  22.710   5.990
 1824DPPE   GL243744  24.580  22.590   5.730
 1824DPPE   C1A43745  24.380  22.590   6.170
 1824DPPE   C2A43746  24.200  22.710   6.510
 1824DPPE   C3A43747  23.830  22.710   6.690
 1824DPPE   C4A43748  23.590  22.700   7.070
 1824DPPE   C1B43749  24.220  22.910   5.830
 1824DPPE   C2B43750  24.200  23.110   6.240
 1824DPPE   C3B43751  24.130  23.250   6.610
 1824DPPE   C4B43752  23.980  23.080   7.000
 1825DPPE   NH343753  16.210  19.080   0.300
 1825DPPE   PO443754  16.590  19.320   0.450
 1825DPPE   GL143755  16.850  19.280   0.850
 1825DPPE   GL243756  16.730  18.900   0.920
 1825DPPE   C1A43757  16.810  19.140   1.360
 1825DPPE   C2A43758  16.710  19.080   1.800
 1825DPPE   C3A43759  16.460  18.860   2.030
 1825DPPE   C4A43760  16.460  18.420   2.240
 1825DPPE   C1B43761  16.390  18.900   1.190
 1825DPPE   C2B43762  16.260  18.670   1.550
 1825DPPE   C3B43763  16.490  18.400   1.740
 1825DPPE   C4B43764  16.730  18.150   1.950
 1826DPPE   NH343765  14.820  20.960  20.060
 1826DPPE   PO443766  15.300  20.930  20.210
 1826DPPE   GL143767  15.250  20.910  20.610
 1826DPPE   GL243768  14.850  20.990  20.670
 1826DPPE   C1A43769  15.290  20.990  21.000
 1826DPPE   C2A43770  15.190  21.340  21.300
 1826DPPE   C3A43771  14.870  21.530  21.480
 1826DPPE   C4A43772  14.640  21.890  21.600
 1826DPPE   C1B43773  14.920  21.400  20.850
 1826DPPE   C2B43774  14.730  21.820  21.050
 1826DPPE   C3B43775  14.620  22.200  21.190
 1826DPPE   C4B43776  14.620  22.490  21.530
 1827DPPE   NH343777   8.770  26.820  19.150
 1827DPPE   PO443778   8.810  26.700  18.740
 1827DPPE   GL143779   8.790  26.200  18.620
 1827DPPE   GL243780   8.650  26.110  18.270
 1827DPPE   C1A43781   8.900  25.690  18.660
 1827DPPE   C2A43782   8.790  25.340  18.340
 1827DPPE   C3A43783   8.490  25.150  18.370
 1827DPPE   C4A43784   8.130  25.110  18.120
 1827DPPE   C1B43785   8.870  25.790  18.190
 1827DPPE   C2B43786   9.260  25.520  18.100
 1827DPPE   C3B43787   9.680  25.340  17.900
 1827DPPE   C4B43788  10.010  25.070  17.960
 1828DPPE   NH343789   4.160  14.450  22.780
 1828DPPE   PO443790   4.380  14.610  22.450
 1828DPPE   GL143791   4.720  14.690  22.170
 1828DPPE   GL243792   4.810  14.400  22.130
 1828DPPE   C1A43793   4.950  15.000  21.940
 1828DPPE   C2A43794   5.340  15.310  21.980
 1828DPPE   C3A43795   5.740  15.530  22.050
 1828DPPE   C4A43796   5.880  15.980  22.220
 1828DPPE   C1B43797   4.910  14.360  21.760
 1828DPPE   C2B43798   5.190  14.640  21.660
 1828DPPE   C3B43799   5.420  14.950  21.520
 1828DPPE   C4B43800   5.710  15.230  21.600
 1829DPPE   NH343801  11.240   6.480  22.720
 1829DPPE   PO443802  10.990   6.450  22.430
 1829DPPE   GL143803  10.990   6.650  22.050
 1829DPPE   GL243804  10.980   6.340  21.780
 1829DPPE   C1A43805  11.170   7.070  21.960
 1829DPPE   C2A43806  10.870   7.260  21.680
 1829DPPE   C3A43807  10.670   7.280  21.300
 1829DPPE   C4A43808  10.790   7.280  20.910
 1829DPPE   C1B43809  10.980   6.780  21.570
 1829DPPE   C2B43810  11.070   6.990  21.270
 1829DPPE   C3B43811  11.310   7.180  21.030
 1829DPPE   C4B43812  11.750   7.170  21.200
 1830DPPE   NH343813  26.330  23.570   8.660
 1830DPPE   PO443814  26.550  23.540   9.030
 1830DPPE   GL143815  26.100  23.320   9.130
 1830DPPE   GL243816  25.900  23.640   9.040
 1830DPPE   C1A43817  25.820  22.960   9.060
 1830DPPE   C2A43818  25.620  22.520   9.080
 1830DPPE   C3A43819  25.520  22.140   8.760
 1830DPPE   C4A43820  25.150  22.070   8.480
 1830DPPE   C1B43821  25.740  23.600   8.650
 1830DPPE   C2B43822  25.450  23.700   8.400
 1830DPPE   C3B43823  25.190  23.560   7.990
 1830DPPE   C4B43824  25.120  23.300   7.600
 1831DPPE   NH343825  13.380   5.560   7.350
 1831DPPE   PO443826  13.670   5.450   7.640
 1831DPPE   GL143827  13.740   5.780   7.890
 1831DPPE   GL243828  14.040   5.870   7.910
 1831DPPE   C1A43829  13.540   6.150   7.900
 1831DPPE   C2A43830  13.440   6.640   7.820
 1831DPPE   C3A43831  13.460   7.010   7.990
 1831DPPE   C4A43832  13.270   7.260   8.220
 1831DPPE   C1B43833  14.080   6.160   8.100
 1831DPPE   C2B43834  13.880   6.630   8.310
 1831DPPE   C3B43835  13.560   6.860   8.500
 1831DPPE   C4B43836  13.390   7.270   8.710
 1832DPPE   NH343837  10.550  27.890  14.500
 1832DPPE   PO443838  10.150  27.690  14.510
 1832DPPE   GL143839  10.420  27.280  14.660
 1832DPPE   GL243840  10.800  27.370  14.740
 1832DPPE   C1A43841  10.550  26.910  14.630
 1832DPPE   C2A43842  10.650  26.480  14.610
 1832DPPE   C3A43843  10.890  26.060  14.500
 1832DPPE   C4A43844  11.010  25.720  14.220
 1832DPPE   C1B43845  11.050  26.880  14.770
 1832DPPE   C2B43846  11.250  26.490  14.690
 1832DPPE   C3B43847  11.680  26.360  14.390
 1832DPPE   C4B43848  12.010  26.000  14.410
 1833DPPE   NH343849   9.030   5.220  14.550
 1833DPPE   PO443850   9.360   5.460  14.570
 1833DPPE   GL143851   9.220   5.850  14.590
 1833DPPE   GL243852   9.350   5.920  14.900
 1833DPPE   C1A43853   9.230   6.290  14.330
 1833DPPE   C2A43854   9.210   6.700  14.330
 1833DPPE   C3A43855   8.920   7.120  14.510
 1833DPPE   C4A43856   8.810   7.450  14.920
 1833DPPE   C1B43857   9.240   6.370  14.840
 1833DPPE   C2B43858   9.200   6.540  15.230
 1833DPPE   C3B43859   9.210   6.990  15.380
 1833DPPE   C4B43860   8.940   7.240  15.600
 1834DPPE   NH343861  17.280  22.610   1.450
 1834DPPE   PO443862  17.200  22.670   1.900
 1834DPPE   GL143863  17.390  22.210   2.120
 1834DPPE   GL243864  17.630  22.290   2.290
 1834DPPE   C1A43865  17.330  21.860   2.320
 1834DPPE   C2A43866  17.280  21.530   2.110
 1834DPPE   C3A43867  17.320  21.170   2.030
 1834DPPE   C4A43868  17.650  20.960   1.890
 1834DPPE   C1B43869  17.380  22.270   2.640
 1834DPPE   C2B43870  17.200  22.220   3.050
 1834DPPE   C3B43871  16.880  22.090   3.420
 1834DPPE   C4B43872  16.790  21.750   3.600
 1835DPPE   NH343873  11.200  19.600  27.480
 1835DPPE   PO443874  10.980  19.220  27.230
 1835DPPE   GL143875  10.800  19.090  26.840
 1835DPPE   GL243876  10.430  19.070  26.620
 1835DPPE   C1A43877  10.860  19.120  26.320
 1835DPPE   C2A43878  10.670  18.980  25.970
 1835DPPE   C3A43879  10.720  18.580  25.770
 1835DPPE   C4A43880  10.640  18.090  25.900
 1835DPPE   C1B43881  10.370  19.350  26.350
 1835DPPE   C2B43882  10.470  19.630  26.050
 1835DPPE   C3B43883  10.550  19.660  25.590
 1835DPPE   C4B43884  10.360  19.990  25.310
 1836DPPE   NH343885   6.570  20.060  24.740
 1836DPPE   PO443886   6.200  20.010  24.490
 1836DPPE   GL143887   6.350  20.100  24.090
 1836DPPE   GL243888   6.410  20.370  24.190
 1836DPPE   C1A43889   6.450  20.080  23.680
 1836DPPE   C2A43890   6.740  20.280  23.320
 1836DPPE   C3A43891   7.170  20.340  23.230
 1836DPPE   C4A43892   7.410  20.400  22.900
 1836DPPE   C1B43893   6.740  20.600  24.300
 1836DPPE   C2B43894   7.070  20.890  24.380
 1836DPPE   C3B43895   7.450  20.800  24.410
 1836DPPE   C4B43896   7.830  20.440  24.180
 1837DPPE   NH343897   2.070  19.820  20.290
 1837DPPE   PO443898   2.270  19.950  19.890
 1837DPPE   GL143899   2.640  19.870  19.630
 1837DPPE   GL243900   2.990  20.090  19.550
 1837DPPE   C1A43901   2.760  19.670  19.340
 1837DPPE   C2A43902   2.820  19.780  19.000
 1837DPPE   C3A43903   3.130  19.920  18.770
 1837DPPE   C4A43904   3.300  20.090  18.390
 1837DPPE   C1B43905   3.290  20.290  19.610
 1837DPPE   C2B43906   3.630  20.450  19.330
 1837DPPE   C3B43907   3.800  20.840  19.150
 1837DPPE   C4B43908   3.680  21.300  19.260
 1838DPPE   NH343909  25.010  23.970  18.320
 1838DPPE   PO443910  24.940  23.940  17.880
 1838DPPE   GL143911  24.610  23.540  17.830
 1838DPPE   GL243912  24.330  23.660  17.950
 1838DPPE   C1A43913  24.450  23.220  17.710
 1838DPPE   C2A43914  24.300  22.870  17.530
 1838DPPE   C3A43915  24.030  22.580  17.320
 1838DPPE   C4A43916  23.700  22.170  17.200
 1838DPPE   C1B43917  24.070  23.370  18.010
 1838DPPE   C2B43918  23.890  23.110  17.720
 1838DPPE   C3B43919  23.570  23.220  17.460
 1838DPPE   C4B43920  23.590  22.760  17.170
 1839DPPE   NH343921  14.500  23.900  18.120
 1839DPPE   PO443922  14.740  24.190  17.860
 1839DPPE   GL143923  14.820  24.330  18.310
 1839DPPE   GL243924  15.050  24.330  18.550
 1839DPPE   C1A43925  14.680  24.670  18.540
 1839DPPE   C2A43926  14.780  24.980  18.800
 1839DPPE   C3A43927  14.810  25.110  19.220
 1839DPPE   C4A43928  14.530  25.420  19.600
 1839DPPE   C1B43929  15.220  24.800  18.640
 1839DPPE   C2B43930  15.230  25.190  18.940
 1839DPPE   C3B43931  15.120  25.550  19.120
 1839DPPE   C4B43932  14.990  25.620  19.560
 1840DPPE   NH343933   6.070  23.740  11.000
 1840DPPE   PO443934   6.380  23.790  11.270
 1840DPPE   GL143935   6.760  23.430  11.200
 1840DPPE   GL243936   6.580  23.190  11.310
 1840DPPE   C1A43937   7.100  23.120  11.240
 1840DPPE   C2A43938   7.470  22.800  11.290
 1840DPPE   C3A43939   7.800  22.420  11.200
 1840DPPE   C4A43940   8.200  22.270  11.360
 1840DPPE   C1B43941   6.570  22.760  11.220
 1840DPPE   C2B43942   6.960  22.560  11.320
 1840DPPE   C3B43943   7.350  22.320  11.370
 1840DPPE   C4B43944   7.600  22.090  11.640
 1841DPPE   NH343945   9.670  12.470  25.970
 1841DPPE   PO443946   9.170  12.390  26.090
 1841DPPE   GL143947   9.080  12.590  25.680
 1841DPPE   GL243948   9.070  12.970  25.590
 1841DPPE   C1A43949   9.050  12.620  25.210
 1841DPPE   C2A43950   9.060  12.690  24.710
 1841DPPE   C3A43951   9.050  12.610  24.190
 1841DPPE   C4A43952   8.870  12.540  23.690
 1841DPPE   C1B43953   9.370  13.330  25.570
 1841DPPE   C2B43954   9.670  13.670  25.570
 1841DPPE   C3B43955  10.020  13.850  25.330
 1841DPPE   C4B43956  10.340  14.110  25.240
 1842DPPE   NH343957   9.340  13.370  20.710
 1842DPPE   PO443958   9.280  13.830  20.820
 1842DPPE   GL143959   8.960  13.570  21.020
 1842DPPE   GL243960   8.960  13.580  21.410
 1842DPPE   C1A43961   8.580  13.220  21.180
 1842DPPE   C2A43962   8.470  12.890  21.510
 1842DPPE   C3A43963   8.310  12.610  21.750
 1842DPPE   C4A43964   8.220  12.170  21.980
 1842DPPE   C1B43965   8.500  13.720  21.440
 1842DPPE   C2B43966   8.230  13.890  21.690
 1842DPPE   C3B43967   8.080  13.770  22.060
 1842DPPE   C4B43968   7.970  13.370  22.130
 1843DPPE   NH343969   4.670  18.130  13.930
 1843DPPE   PO443970   4.490  17.750  13.680
 1843DPPE   GL143971   4.530  18.050  13.420
 1843DPPE   GL243972   4.530  18.410  13.530
 1843DPPE   C1A43973   4.400  18.230  12.890
 1843DPPE   C2A43974   4.620  18.260  12.510
 1843DPPE   C3A43975   4.830  18.780  12.490
 1843DPPE   C4A43976   4.700  19.060  12.500
 1843DPPE   C1B43977   4.210  18.440  13.310
 1843DPPE   C2B43978   3.940  18.360  12.930
 1843DPPE   C3B43979   3.820  18.520  12.500
 1843DPPE   C4B43980   3.810  18.540  12.050
 1844DPPE   NH343981  13.920  16.750  23.150
 1844DPPE   PO443982  14.130  16.480  23.050
 1844DPPE   GL143983  14.260  16.350  22.650
 1844DPPE   GL243984  14.400  16.570  22.650
 1844DPPE   C1A43985  14.340  16.140  22.190
 1844DPPE   C2A43986  14.210  16.340  21.810
 1844DPPE   C3A43987  14.030  16.430  21.470
 1844DPPE   C4A43988  13.640  16.580  21.540
 1844DPPE   C1B43989  14.410  16.680  22.260
 1844DPPE   C2B43990  14.710  16.540  21.870
 1844DPPE   C3B43991  14.850  16.230  21.520
 1844DPPE   C4B43992  14.880  16.330  21.040
 1845DPPE   NH343993   7.140  19.650  20.150
 1845DPPE   PO443994   6.970  19.850  19.750
 1845DPPE   GL143995   6.720  20.080  19.970
 1845DPPE   GL243996   6.350  19.970  20.070
 1845DPPE   C1A43997   6.830  20.260  20.490
 1845DPPE   C2A43998   6.640  20.370  20.810
 1845DPPE   C3A43999   6.790  20.600  21.180
 1845DPPE   C4A44000   7.180  20.820  21.240
 1845DPPE   C1B44001   6.060  19.900  20.340
 1845DPPE   C2B44002   5.800  19.700  20.640
 1845DPPE   C3B44003   5.410  19.640  20.890
 1845DPPE   C4B44004   5.500  19.500  21.230
 1846DPPE   NH344005  14.810  13.170  22.040
 1846DPPE   PO444006  14.590  12.810  21.900
 1846DPPE   GL144007  14.940  12.790  21.640
 1846DPPE   GL244008  15.320  12.690  21.790
 1846DPPE   C1A44009  15.180  12.740  21.350
 1846DPPE   C2A44010  15.380  12.600  21.090
 1846DPPE   C3A44011  15.850  12.700  20.940
 1846DPPE   C4A44012  16.210  12.760  20.690
 1846DPPE   C1B44013  15.340  13.150  21.600
 1846DPPE   C2B44014  15.340  13.360  21.100
 1846DPPE   C3B44015  15.250  13.400  20.680
 1846DPPE   C4B44016  15.470  13.530  20.390
 1847DPPE   NH344017  10.690  11.160  20.030
 1847DPPE   PO444018  10.770  10.930  20.480
 1847DPPE   GL144019  10.870  10.600  20.780
 1847DPPE   GL244020  11.010  10.490  21.030
 1847DPPE   C1A44021  10.510  10.440  21.060
 1847DPPE   C2A44022  10.240  10.290  21.450
 1847DPPE   C3A44023  10.120   9.930  21.600
 1847DPPE   C4A44024   9.900   9.650  21.840
 1847DPPE   C1B44025  10.900  10.080  21.150
 1847DPPE   C2B44026  10.610   9.760  21.430
 1847DPPE   C3B44027  10.370   9.440  21.520
 1847DPPE   C4B44028  10.530   9.060  21.530
 1848DPPE   NH344029  12.980  11.360  20.710
 1848DPPE   PO444030  13.010  11.030  20.430
 1848DPPE   GL144031  13.110  11.250  20.020
 1848DPPE   GL244032  13.430  11.170  19.910
 1848DPPE   C1A44033  13.350  11.690  19.890
 1848DPPE   C2A44034  13.500  12.110  19.540
 1848DPPE   C3A44035  13.430  12.480  19.220
 1848DPPE   C4A44036  13.690  12.680  18.880
 1848DPPE   C1B44037  13.450  11.120  19.560
 1848DPPE   C2B44038  13.750  11.310  19.160
 1848DPPE   C3B44039  13.930  11.660  18.820
 1848DPPE   C4B44040  13.820  12.040  18.560
 1849DPPE   NH344041   7.000  15.520  18.280
 1849DPPE   PO444042   6.590  15.410  18.170
 1849DPPE   GL144043   6.150  15.300  18.420
 1849DPPE   GL244044   6.030  15.050  18.620
 1849DPPE   C1A44045   5.710  15.380  18.550
 1849DPPE   C2A44046   5.390  15.230  18.690
 1849DPPE   C3A44047   5.280  15.030  19.170
 1849DPPE   C4A44048   5.300  14.930  19.630
 1849DPPE   C1B44049   5.840  14.910  18.970
 1849DPPE   C2B44050   5.730  14.460  18.950
 1849DPPE   C3B44051   5.220  14.160  18.950
 1849DPPE   C4B44052   4.820  14.020  19.250
 1850DPPE   NH344053  14.190  19.590  23.650
 1850DPPE   PO444054  13.980  19.540  23.930
 1850DPPE   GL144055  14.250  19.690  24.310
 1850DPPE   GL244056  14.530  19.540  24.340
 1850DPPE   C1A44057  14.350  19.920  24.660
 1850DPPE   C2A44058  14.380  20.130  25.100
 1850DPPE   C3A44059  14.380  19.920  25.500
 1850DPPE   C4A44060  14.700  19.670  25.710
 1850DPPE   C1B44061  14.750  19.670  24.650
 1850DPPE   C2B44062  14.840  20.180  24.800
 1850DPPE   C3B44063  15.070  20.590  24.550
 1850DPPE   C4B44064  15.300  20.910  24.490
 1851DPPE   NH344065  11.510  23.060  21.950
 1851DPPE   PO444066  11.730  23.410  21.970
 1851DPPE   GL144067  11.990  23.510  21.720
 1851DPPE   GL244068  11.810  23.700  21.390
 1851DPPE   C1A44069  12.440  23.700  21.800
 1851DPPE   C2A44070  12.860  23.990  21.740
 1851DPPE   C3A44071  13.220  24.300  21.740
 1851DPPE   C4A44072  13.310  24.740  21.880
 1851DPPE   C1B44073  11.640  24.120  21.320
 1851DPPE   C2B44074  11.670  24.500  21.070
 1851DPPE   C3B44075  11.620  24.700  20.610
 1851DPPE   C4B44076  11.920  24.830  20.370
 1852DPPE   NH344077   9.360  11.600  18.230
 1852DPPE   PO444078   9.530  11.590  18.610
 1852DPPE   GL144079   9.820  11.850  18.740
 1852DPPE   GL244080   9.930  11.840  18.990
 1852DPPE   C1A44081  10.050  12.360  18.690
 1852DPPE   C2A44082  10.490  12.560  18.860
 1852DPPE   C3A44083  10.700  12.940  18.720
 1852DPPE   C4A44084  11.110  13.130  18.790
 1852DPPE   C1B44085  10.270  12.100  18.980
 1852DPPE   C2B44086  10.580  12.280  19.250
 1852DPPE   C3B44087  10.880  12.460  19.150
 1852DPPE   C4B44088  11.090  12.550  18.750
 1853DPPE   NH344089   7.020  11.720  16.770
 1853DPPE   PO444090   6.760  11.570  16.400
 1853DPPE   GL144091   6.600  11.340  16.720
 1853DPPE   GL244092   6.720  11.270  16.900
 1853DPPE   C1A44093   6.310  11.050  16.680
 1853DPPE   C2A44094   5.940  10.930  16.890
 1853DPPE   C3A44095   5.540  10.830  16.810
 1853DPPE   C4A44096   5.370  10.810  17.190
 1853DPPE   C1B44097   6.530  11.000  17.150
 1853DPPE   C2B44098   6.400  10.600  17.190
 1853DPPE   C3B44099   6.120  10.140  17.210
 1853DPPE   C4B44100   5.810   9.920  17.110
 1854DPPE   NH344101   7.430  13.790  18.540
 1854DPPE   PO444102   7.530  13.940  18.840
 1854DPPE   GL144103   7.260  13.830  19.100
 1854DPPE   GL244104   7.210  14.010  19.390
 1854DPPE   C1A44105   6.810  13.760  19.290
 1854DPPE   C2A44106   6.470  13.500  19.360
 1854DPPE   C3A44107   6.330  13.470  19.730
 1854DPPE   C4A44108   6.020  13.370  20.030
 1854DPPE   C1B44109   6.990  13.830  19.730
 1854DPPE   C2B44110   6.690  13.710  19.940
 1854DPPE   C3B44111   6.400  13.850  20.140
 1854DPPE   C4B44112   6.220  13.860  20.540
 1855DPPE   NH344113   8.150   8.740  14.250
 1855DPPE   PO444114   8.680   8.710  14.090
 1855DPPE   GL144115   8.970   8.430  14.040
 1855DPPE   GL244116   9.280   8.460  14.240
 1855DPPE   C1A44117   9.160   8.070  13.910
 1855DPPE   C2A44118   9.600   7.860  13.660
 1855DPPE   C3A44119   9.950   7.650  13.510
 1855DPPE   C4A44120  10.480   7.790  13.630
 1855DPPE   C1B44121   9.500   8.420  13.840
 1855DPPE   C2B44122   9.430   8.310  13.400
 1855DPPE   C3B44123   9.530   8.370  13.060
 1855DPPE   C4B44124   9.900   8.300  12.880
 1856DPPE   NH344125  12.980  17.890  24.010
 1856DPPE   PO444126  13.280  17.680  24.230
 1856DPPE   GL144127  13.160  17.710  24.560
 1856DPPE   GL244128  13.300  17.430  24.700
 1856DPPE   C1A44129  13.160  17.950  24.980
 1856DPPE   C2A44130  12.960  18.070  25.390
 1856DPPE   C3A44131  13.060  18.020  25.790
 1856DPPE   C4A44132  12.740  18.030  25.990
 1856DPPE   C1B44133  13.220  17.490  25.190
 1856DPPE   C2B44134  13.190  17.480  25.610
 1856DPPE   C3B44135  13.200  17.290  25.980
 1856DPPE   C4B44136  13.310  16.930  26.250
 1857DPPE   NH344137  12.660  19.400  23.710
 1857DPPE   PO444138  12.420  19.680  23.450
 1857DPPE   GL144139  12.350  19.780  23.910
 1857DPPE   GL244140  12.610  19.890  23.980
 1857DPPE   C1A44141  12.100  19.720  24.290
 1857DPPE   C2A44142  12.200  19.810  24.680
 1857DPPE   C3A44143  12.100  19.720  25.040
 1857DPPE   C4A44144  11.950  19.580  25.520
 1857DPPE   C1B44145  12.460  20.120  24.280
 1857DPPE   C2B44146  12.430  20.310  24.740
 1857DPPE   C3B44147  12.210  20.210  25.110
 1857DPPE   C4B44148  12.190  20.360  25.580
 1858DPPE   NH344149   5.480  19.290  15.130
 1858DPPE   PO444150   5.710  19.190  14.820
 1858DPPE   GL144151   5.990  19.460  14.590
 1858DPPE   GL244152   6.290  19.590  14.690
 1858DPPE   C1A44153   6.340  19.420  14.190
 1858DPPE   C2A44154   6.460  19.580  13.750
 1858DPPE   C3A44155   6.490  19.990  13.500
 1858DPPE   C4A44156   6.570  20.360  13.200
 1858DPPE   C1B44157   6.260  19.850  14.390
 1858DPPE   C2B44158   6.300  20.080  13.970
 1858DPPE   C3B44159   6.260  20.440  13.590
 1858DPPE   C4B44160   6.120  20.230  13.160
 1859DPPE   NH344161   7.550  23.120  18.200
 1859DPPE   PO444162   7.420  23.450  18.170
 1859DPPE   GL144163   7.400  23.760  17.820
 1859DPPE   GL244164   7.200  23.740  17.610
 1859DPPE   C1A44165   7.240  24.120  17.930
 1859DPPE   C2A44166   6.980  24.580  17.750
 1859DPPE   C3A44167   6.590  24.580  17.590
 1859DPPE   C4A44168   6.220  24.880  17.690
 1859DPPE   C1B44169   6.880  24.090  17.630
 1859DPPE   C2B44170   6.550  24.140  17.680
 1859DPPE   C3B44171   6.240  24.430  17.950
 1859DPPE   C4B44172   5.880  24.540  18.330
 1860DPPE   NH344173   6.620  16.220  19.200
 1860DPPE   PO444174   6.860  16.630  19.410
 1860DPPE   GL144175   6.510  16.580  19.690
 1860DPPE   GL244176   6.310  16.550  19.440
 1860DPPE   C1A44177   6.310  16.430  19.980
 1860DPPE   C2A44178   5.890  16.250  20.080
 1860DPPE   C3A44179   5.540  16.100  19.890
 1860DPPE   C4A44180   5.150  15.930  19.970
 1860DPPE   C1B44181   5.920  16.390  19.570
 1860DPPE   C2B44182   5.450  16.410  19.500
 1860DPPE   C3B44183   5.050  16.320  19.670
 1860DPPE   C4B44184   4.700  16.170  19.870
 1861DPPE   NH344185   8.150  14.670  19.200
 1861DPPE   PO444186   7.630  14.800  19.180
 1861DPPE   GL144187   7.470  14.470  19.630
 1861DPPE   GL244188   7.170  14.470  19.570
 1861DPPE   C1A44189   7.240  14.190  20.020
 1861DPPE   C2A44190   6.930  14.020  20.330
 1861DPPE   C3A44191   6.850  14.000  20.660
 1861DPPE   C4A44192   6.650  13.730  20.760
 1861DPPE   C1B44193   6.910  14.360  19.660
 1861DPPE   C2B44194   6.680  14.240  19.920
 1861DPPE   C3B44195   6.530  14.310  20.310
 1861DPPE   C4B44196   6.090  14.380  20.570
 1862DPPE   NH344197  14.120  18.900  18.830
 1862DPPE   PO444198  14.440  18.970  19.130
 1862DPPE   GL144199  14.260  19.060  19.510
 1862DPPE   GL244200  13.980  19.040  19.490
 1862DPPE   C1A44201  14.290  19.200  19.950
 1862DPPE   C2A44202  14.030  19.370  20.320
 1862DPPE   C3A44203  14.010  19.630  20.690
 1862DPPE   C4A44204  14.300  20.100  20.650
 1862DPPE   C1B44205  13.840  18.930  19.930
 1862DPPE   C2B44206  13.700  18.840  20.310
 1862DPPE   C3B44207  13.350  18.750  20.470
 1862DPPE   C4B44208  13.400  18.590  20.850
 1863DPPE   NH344209  21.890   6.290  11.930
 1863DPPE   PO444210  21.770   6.460  12.340
 1863DPPE   GL144211  21.570   6.690  11.990
 1863DPPE   GL244212  21.680   6.670  11.630
 1863DPPE   C1A44213  21.470   7.130  11.930
 1863DPPE   C2A44214  21.330   7.510  11.980
 1863DPPE   C3A44215  20.870   7.670  11.900
 1863DPPE   C4A44216  20.520   7.890  12.020
 1863DPPE   C1B44217  21.570   6.890  11.300
 1863DPPE   C2B44218  21.350   7.220  11.080
 1863DPPE   C3B44219  21.570   7.610  10.960
 1863DPPE   C4B44220  21.420   8.130  10.910
 1864DPPE   NH344221   9.980  13.480  11.830
 1864DPPE   PO444222   9.900  13.270  12.170
 1864DPPE   GL144223   9.680  13.260  12.570
 1864DPPE   GL244224   9.650  13.450  12.780
 1864DPPE   C1A44225   9.610  13.000  12.960
 1864DPPE   C2A44226   9.360  12.640  13.150
 1864DPPE   C3A44227   8.940  12.420  13.000
 1864DPPE   C4A44228   8.560  12.080  13.020
 1864DPPE   C1B44229   9.200  13.460  12.880
 1864DPPE   C2B44230   8.860  13.260  13.020
 1864DPPE   C3B44231   8.760  12.820  13.240
 1864DPPE   C4B44232   8.700  12.560  13.390
 1865DPPE   NH344233   5.910  12.070   6.940
 1865DPPE   PO444234   6.080  11.740   6.990
 1865DPPE   GL144235   6.440  12.100   7.130
 1865DPPE   GL244236   6.360  12.010   7.480
 1865DPPE   C1A44237   6.840  12.110   6.910
 1865DPPE   C2A44238   7.220  12.280   6.850
 1865DPPE   C3A44239   7.600  12.290   6.570
 1865DPPE   C4A44240   7.730  11.940   6.510
 1865DPPE   C1B44241   6.790  12.060   7.650
 1865DPPE   C2B44242   7.050  12.070   8.010
 1865DPPE   C3B44243   7.360  12.300   8.170
 1865DPPE   C4B44244   7.580  12.350   8.590
 1866DPPE   NH344245   5.230   9.330  20.290
 1866DPPE   PO444246   4.950   9.610  20.100
 1866DPPE   GL144247   5.320   9.810  20.200
 1866DPPE   GL244248   5.200   9.980  19.810
 1866DPPE   C1A44249   5.730  10.020  19.770
 1866DPPE   C2A44250   5.940  10.100  19.340
 1866DPPE   C3A44251   6.280  10.070  19.050
 1866DPPE   C4A44252   6.710   9.990  18.880
 1866DPPE   C1B44253   4.950  10.150  19.380
 1866DPPE   C2B44254   5.040  10.330  18.900
 1866DPPE   C3B44255   5.260  10.280  18.550
 1866DPPE   C4B44256   5.420   9.970  18.310
 1867DPPE   NH344257  13.060   9.500  13.130
 1867DPPE   PO444258  13.210   9.060  13.230
 1867DPPE   GL144259  12.870   8.810  13.230
 1867DPPE   GL244260  12.940   8.650  13.520
 1867DPPE   C1A44261  12.500   8.560  13.190
 1867DPPE   C2A44262  12.220   8.250  12.970
 1867DPPE   C3A44263  12.220   7.920  12.800
 1867DPPE   C4A44264  12.100   7.880  12.360
 1867DPPE   C1B44265  12.790   8.310  13.660
 1867DPPE   C2B44266  12.380   8.240  13.540
 1867DPPE   C3B44267  12.040   8.020  13.790
 1867DPPE   C4B44268  11.680   8.000  14.200
 1868DPPE   NH344269  13.360  22.080  18.090
 1868DPPE   PO444270  13.650  22.440  18.310
 1868DPPE   GL144271  13.240  22.380  18.630
 1868DPPE   GL244272  13.330  22.090  18.660
 1868DPPE   C1A44273  13.030  22.250  18.990
 1868DPPE   C2A44274  12.870  22.360  19.440
 1868DPPE   C3A44275  12.560  22.340  19.780
 1868DPPE   C4A44276  12.350  22.300  20.220
 1868DPPE   C1B44277  13.080  21.770  18.820
 1868DPPE   C2B44278  12.750  21.520  19.080
 1868DPPE   C3B44279  12.310  21.580  19.130
 1868DPPE   C4B44280  12.060  21.870  19.410
 1869DPPE   NH344281  12.390  13.160  15.210
 1869DPPE   PO444282  12.010  13.310  15.200
 1869DPPE   GL144283  12.000  12.830  15.140
 1869DPPE   GL244284  11.990  12.860  14.860
 1869DPPE   C1A44285  11.900  12.470  15.330
 1869DPPE   C2A44286  11.700  12.230  15.680
 1869DPPE   C3A44287  11.400  12.050  15.700
 1869DPPE   C4A44288  11.050  11.810  15.750
 1869DPPE   C1B44289  11.540  12.770  15.060
 1869DPPE   C2B44290  11.290  12.390  15.200
 1869DPPE   C3B44291  11.090  12.110  15.220
 1869DPPE   C4B44292  10.800  11.780  15.220
 1870DPPE   NH344293  25.100   9.800   7.650
 1870DPPE   PO444294  25.460   9.850   7.950
 1870DPPE   GL144295  25.110  10.090   8.050
 1870DPPE   GL244296  25.300  10.380   8.250
 1870DPPE   C1A44297  24.800  10.470   8.170
 1870DPPE   C2A44298  24.720  10.900   8.280
 1870DPPE   C3A44299  24.300  11.170   8.050
 1870DPPE   C4A44300  24.050  11.480   8.320
 1870DPPE   C1B44301  25.000  10.410   8.600
 1870DPPE   C2B44302  24.600  10.420   8.670
 1870DPPE   C3B44303  24.240  10.580   8.940
 1870DPPE   C4B44304  23.950  10.850   9.140
 1871DPPE   NH344305  24.520  21.000  20.000
 1871DPPE   PO444306  24.190  20.900  20.260
 1871DPPE   GL144307  23.820  20.950  20.150
 1871DPPE   GL244308  23.670  20.870  20.450
 1871DPPE   C1A44309  23.320  20.990  20.060
 1871DPPE   C2A44310  22.910  20.940  19.950
 1871DPPE   C3A44311  22.420  21.050  19.960
 1871DPPE   C4A44312  22.210  21.340  20.110
 1871DPPE   C1B44313  23.420  20.400  20.270
 1871DPPE   C2B44314  23.080  20.430  20.140
 1871DPPE   C3B44315  22.710  20.490  19.940
 1871DPPE   C4B44316  22.270  20.540  19.910
 1872DPPE   NH344317  27.670  20.220  10.470
 1872DPPE   PO444318  27.550  20.430  10.830
 1872DPPE   GL144319  27.140  20.320  10.920
 1872DPPE   GL244320  27.070  20.100  10.950
 1872DPPE   C1A44321  26.840  20.440  10.580
 1872DPPE   C2A44322  26.420  20.440  10.660
 1872DPPE   C3A44323  26.200  20.610  10.310
 1872DPPE   C4A44324  25.930  20.910   9.960
 1872DPPE   C1B44325  26.680  20.250  11.090
 1872DPPE   C2B44326  26.360  19.970  10.940
 1872DPPE   C3B44327  25.940  19.860  11.020
 1872DPPE   C4B44328  25.680  20.210  11.450
 1873DPPE   NH344329  16.590   6.750   4.690
 1873DPPE   PO444330  16.840   6.550   5.030
 1873DPPE   GL144331  17.130   6.750   5.310
 1873DPPE   GL244332  16.910   6.870   5.520
 1873DPPE   C1A44333  17.360   7.230   5.330
 1873DPPE   C2A44334  17.710   7.470   5.460
 1873DPPE   C3A44335  18.160   7.600   5.360
 1873DPPE   C4A44336  18.660   7.660   5.430
 1873DPPE   C1B44337  16.920   7.380   5.550
 1873DPPE   C2B44338  16.930   7.800   5.680
 1873DPPE   C3B44339  16.860   8.250   5.800
 1873DPPE   C4B44340  17.010   8.690   5.750
 1874DPPE   NH344341   2.990   9.480  15.910
 1874DPPE   PO444342   2.720   9.840  15.740
 1874DPPE   GL144343   3.140   9.850  15.610
 1874DPPE   GL244344   3.080   9.900  15.220
 1874DPPE   C1A44345   3.530   9.820  15.550
 1874DPPE   C2A44346   3.990   9.730  15.530
 1874DPPE   C3A44347   4.330   9.760  15.370
 1874DPPE   C4A44348   4.500   9.770  15.000
 1874DPPE   C1B44349   3.420  10.190  15.250
 1874DPPE   C2B44350   3.890  10.260  15.430
 1874DPPE   C3B44351   4.130  10.200  15.680
 1874DPPE   C4B44352   4.530  10.390  15.830
 1875DPPE   NH344353  16.380  16.530  20.590
 1875DPPE   PO444354  16.480  16.900  20.420
 1875DPPE   GL144355  16.520  16.870  20.910
 1875DPPE   GL244356  16.170  16.730  21.020
 1875DPPE   C1A44357  16.610  16.920  21.410
 1875DPPE   C2A44358  16.540  16.840  21.770
 1875DPPE   C3A44359  16.740  16.770  22.160
 1875DPPE   C4A44360  16.900  16.780  22.640
 1875DPPE   C1B44361  16.030  16.840  21.520
 1875DPPE   C2B44362  15.950  17.010  21.880
 1875DPPE   C3B44363  15.930  17.460  21.820
 1875DPPE   C4B44364  15.570  17.640  21.920
 1876DPPE   NH344365   7.000   9.030  21.590
 1876DPPE   PO444366   6.710   9.270  21.440
 1876DPPE   GL144367   6.820   9.380  21.160
 1876DPPE   GL244368   6.800   9.050  20.930
 1876DPPE   C1A44369   7.220   9.480  20.950
 1876DPPE   C2A44370   7.430   9.700  20.560
 1876DPPE   C3A44371   7.780   9.910  20.370
 1876DPPE   C4A44372   8.090  10.220  20.460
 1876DPPE   C1B44373   7.120   9.120  20.650
 1876DPPE   C2B44374   7.280   8.750  20.410
 1876DPPE   C3B44375   7.400   8.570  20.010
 1876DPPE   C4B44376   7.660   8.690  19.730
 1877DPPE   NH344377  17.990  18.790  20.520
 1877DPPE   PO444378  18.260  18.580  20.340
 1877DPPE   GL144379  18.380  18.650  20.800
 1877DPPE   GL244380  18.190  18.530  20.880
 1877DPPE   C1A44381  18.590  18.600  21.210
 1877DPPE   C2A44382  18.710  18.330  21.560
 1877DPPE   C3A44383  18.870  17.920  21.640
 1877DPPE   C4A44384  18.590  17.640  21.900
 1877DPPE   C1B44385  18.110  18.560  21.320
 1877DPPE   C2B44386  18.250  18.510  21.620
 1877DPPE   C3B44387  18.350  18.150  21.920
 1877DPPE   C4B44388  18.240  18.200  22.350
 1878DPPE   NH344389  13.680  16.860  18.940
 1878DPPE   PO444390  13.930  17.170  18.860
 1878DPPE   GL144391  13.590  17.310  19.120
 1878DPPE   GL244392  13.530  17.550  19.320
 1878DPPE   C1A44393  13.210  17.260  19.490
 1878DPPE   C2A44394  12.950  17.320  19.780
 1878DPPE   C3A44395  12.700  17.340  20.010
 1878DPPE   C4A44396  12.520  17.490  20.440
 1878DPPE   C1B44397  13.580  17.530  19.760
 1878DPPE   C2B44398  13.700  17.320  20.160
 1878DPPE   C3B44399  13.870  17.250  20.620
 1878DPPE   C4B44400  13.900  17.220  21.070
 1879DPPE   NH344401  10.450  26.950  20.400
 1879DPPE   PO444402  10.110  26.730  20.630
 1879DPPE   GL144403  10.120  26.320  20.490
 1879DPPE   GL244404   9.820  26.270  20.670
 1879DPPE   C1A44405  10.240  25.900  20.280
 1879DPPE   C2A44406  10.310  25.790  19.880
 1879DPPE   C3A44407  10.360  25.790  19.400
 1879DPPE   C4A44408  10.280  25.990  19.040
 1879DPPE   C1B44409   9.780  26.050  20.310
 1879DPPE   C2B44410   9.870  25.640  20.100
 1879DPPE   C3B44411   9.720  25.300  19.970
 1879DPPE   C4B44412   9.760  24.930  19.740
 1880DPPE   NH344413  10.780  14.400  13.880
 1880DPPE   PO444414  10.350  14.510  13.910
 1880DPPE   GL144415  10.030  14.340  14.020
 1880DPPE   GL244416   9.850  14.500  14.270
 1880DPPE   C1A44417   9.560  14.180  14.100
 1880DPPE   C2A44418   9.230  14.060  14.170
 1880DPPE   C3A44419   8.810  14.000  14.430
 1880DPPE   C4A44420   8.400  14.040  14.520
 1880DPPE   C1B44421   9.620  14.530  14.670
 1880DPPE   C2B44422   9.410  14.650  14.970
 1880DPPE   C3B44423   9.090  14.380  15.180
 1880DPPE   C4B44424   8.700  14.560  15.180
 1881DPPE   NH344425  11.800  26.370  21.550
 1881DPPE   PO444426  12.110  26.510  21.190
 1881DPPE   GL144427  12.100  26.050  21.160
 1881DPPE   GL244428  11.860  25.940  21.090
 1881DPPE   C1A44429  12.270  25.700  20.950
 1881DPPE   C2A44430  12.530  25.530  20.550
 1881DPPE   C3A44431  12.500  25.200  20.360
 1881DPPE   C4A44432  12.620  24.900  20.100
 1881DPPE   C1B44433  11.830  25.840  20.690
 1881DPPE   C2B44434  11.470  25.910  20.380
 1881DPPE   C3B44435  11.200  25.660  20.230
 1881DPPE   C4B44436  11.080  25.260  20.050
 1882DPPE   NH344437  12.810  28.920  15.630
 1882DPPE   PO444438  12.640  28.960  15.260
 1882DPPE   GL144439  12.360  28.540  15.160
 1882DPPE   GL244440  12.530  28.460  15.370
 1882DPPE   C1A44441  12.380  28.160  14.780
 1882DPPE   C2A44442  12.490  27.810  14.740
 1882DPPE   C3A44443  12.780  27.410  14.810
 1882DPPE   C4A44444  12.760  27.130  15.130
 1882DPPE   C1B44445  12.430  28.020  15.290
 1882DPPE   C2B44446  12.310  27.660  15.200
 1882DPPE   C3B44447  12.290  27.270  15.030
 1882DPPE   C4B44448  12.380  26.900  14.730
 1883DPPE   NH344449   9.030  14.460  11.880
 1883DPPE   PO444450   8.950  14.090  11.480
 1883DPPE   GL144451   8.530  14.060  11.770
 1883DPPE   GL244452   8.400  14.340  11.800
 1883DPPE   C1A44453   8.040  14.070  11.960
 1883DPPE   C2A44454   7.620  14.030  11.820
 1883DPPE   C3A44455   7.370  13.810  11.600
 1883DPPE   C4A44456   7.040  13.990  11.530
 1883DPPE   C1B44457   8.220  14.470  12.090
 1883DPPE   C2B44458   7.800  14.540  11.930
 1883DPPE   C3B44459   7.380  14.720  11.990
 1883DPPE   C4B44460   7.390  15.010  12.130
 1884DPPE   NH344461  17.500  24.860  10.450
 1884DPPE   PO444462  17.420  24.610  10.130
 1884DPPE   GL144463  17.380  24.980   9.770
 1884DPPE   GL244464  17.470  24.730   9.530
 1884DPPE   C1A44465  17.460  25.370   9.530
 1884DPPE   C2A44466  17.480  25.790   9.490
 1884DPPE   C3A44467  17.400  26.260   9.480
 1884DPPE   C4A44468  17.190  26.650   9.240
 1884DPPE   C1B44469  17.570  24.940   9.210
 1884DPPE   C2B44470  17.800  25.150   8.910
 1884DPPE   C3B44471  17.930  25.450   8.650
 1884DPPE   C4B44472  18.050  25.820   8.330
 1885DPPE   NH344473  10.600  11.470  12.840
 1885DPPE   PO444474  10.800  11.080  12.730
 1885DPPE   GL144475  10.500  10.810  12.930
 1885DPPE   GL244476  10.780  10.900  13.230
 1885DPPE   C1A44477  10.210  10.500  13.040
 1885DPPE   C2A44478  10.140  10.230  13.300
 1885DPPE   C3A44479  10.010   9.710  13.290
 1885DPPE   C4A44480   9.780   9.410  13.290
 1885DPPE   C1B44481  10.670  10.870  13.530
 1885DPPE   C2B44482  10.440  10.530  13.770
 1885DPPE   C3B44483  10.090  10.330  13.810
 1885DPPE   C4B44484   9.960   9.800  13.820
 1886DPPE   NH344485  14.540  13.540  17.380
 1886DPPE   PO444486  14.290  13.050  17.330
 1886DPPE   GL144487  13.980  12.870  17.520
 1886DPPE   GL244488  13.640  13.100  17.460
 1886DPPE   C1A44489  13.730  12.810  17.830
 1886DPPE   C2A44490  13.740  12.530  18.180
 1886DPPE   C3A44491  14.010  12.670  18.560
 1886DPPE   C4A44492  14.210  12.610  18.890
 1886DPPE   C1B44493  13.300  13.020  17.810
 1886DPPE   C2B44494  13.010  12.830  18.030
 1886DPPE   C3B44495  12.620  12.640  18.100
 1886DPPE   C4B44496  12.320  12.360  18.050
 1887DPPE   NH344497  28.230  19.560  10.060
 1887DPPE   PO444498  28.000  19.890  10.090
 1887DPPE   GL144499  27.520  20.020   9.970
 1887DPPE   GL244500  27.550  20.070   9.710
 1887DPPE   C1A44501  27.140  20.050  10.020
 1887DPPE   C2A44502  26.700  19.760   9.930
 1887DPPE   C3A44503  26.540  19.410   9.780
 1887DPPE   C4A44504  26.280  19.220   9.410
 1887DPPE   C1B44505  27.200  19.750   9.640
 1887DPPE   C2B44506  27.020  19.400   9.670
 1887DPPE   C3B44507  26.710  18.990   9.550
 1887DPPE   C4B44508  26.440  18.730   9.490
 1888DPPE   NH344509  17.360  25.520  11.080
 1888DPPE   PO444510  17.520  25.250  10.820
 1888DPPE   GL144511  17.520  25.630  10.570
 1888DPPE   GL244512  17.360  25.830  10.680
 1888DPPE   C1A44513  17.720  26.130  10.380
 1888DPPE   C2A44514  17.820  26.550  10.360
 1888DPPE   C3A44515  17.990  26.650   9.970
 1888DPPE   C4A44516  18.110  27.070   9.720
 1888DPPE   C1B44517  17.240  26.310  10.720
 1888DPPE   C2B44518  17.450  26.670  10.750
 1888DPPE   C3B44519  17.580  26.970  10.390
 1888DPPE   C4B44520  17.620  27.050  10.000
 1889DPPE   NH344521  11.050  10.960  26.130
 1889DPPE   PO444522  11.310  10.620  26.020
 1889DPPE   GL144523  11.500  10.990  25.910
 1889DPPE   GL244524  11.220  11.220  25.790
 1889DPPE   C1A44525  11.670  11.400  25.750
 1889DPPE   C2A44526  11.590  11.530  25.310
 1889DPPE   C3A44527  11.710  11.820  24.920
 1889DPPE   C4A44528  11.700  11.680  24.500
 1889DPPE   C1B44529  11.480  11.090  25.400
 1889DPPE   C2B44530  11.890  11.090  25.410
 1889DPPE   C3B44531  12.320  11.150  25.200
 1889DPPE   C4B44532  12.760  11.060  25.200
 1890DPPE   NH344533  12.370  11.730   7.030
 1890DPPE   PO444534  12.250  11.950   6.610
 1890DPPE   GL144535  12.070  12.080   6.070
 1890DPPE   GL244536  12.020  11.730   5.920
 1890DPPE   C1A44537  11.670  12.180   5.890
 1890DPPE   C2A44538  11.340  11.990   5.660
 1890DPPE   C3A44539  11.040  11.740   5.310
 1890DPPE   C4A44540  10.910  11.440   5.040
 1890DPPE   C1B44541  11.730  11.680   5.500
 1890DPPE   C2B44542  11.500  11.540   5.210
 1890DPPE   C3B44543  11.480  11.480   4.830
 1890DPPE   C4B44544  11.260  11.160   4.750
 1891DPPE   NH344545  25.880  10.260  14.570
 1891DPPE   PO444546  25.960  10.430  15.020
 1891DPPE   GL144547  25.640  10.760  14.910
 1891DPPE   GL244548  25.330  10.530  14.850
 1891DPPE   C1A44549  25.340  11.050  14.750
 1891DPPE   C2A44550  25.350  11.390  14.430
 1891DPPE   C3A44551  25.060  11.500  14.140
 1891DPPE   C4A44552  24.780  11.400  13.800
 1891DPPE   C1B44553  24.980  10.690  14.530
 1891DPPE   C2B44554  24.630  10.840  14.570
 1891DPPE   C3B44555  24.430  11.160  14.470
 1891DPPE   C4B44556  24.430  11.440  14.110
 1892DPPE   NH344557  15.810  10.670  16.590
 1892DPPE   PO444558  15.390  10.730  16.300
 1892DPPE   GL144559  15.250  10.500  16.610
 1892DPPE   GL244560  15.470  10.580  16.990
 1892DPPE   C1A44561  14.950  10.480  16.970
 1892DPPE   C2A44562  14.800  10.280  17.400
 1892DPPE   C3A44563  14.370  10.400  17.550
 1892DPPE   C4A44564  14.080  10.060  17.490
 1892DPPE   C1B44565  15.330  10.350  17.290
 1892DPPE   C2B44566  15.530   9.970  17.480
 1892DPPE   C3B44567  15.780   9.740  17.820
 1892DPPE   C4B44568  15.970   9.410  17.890
 1893DPPE   NH344569   5.980  20.880   7.460
 1893DPPE   PO444570   6.150  21.270   7.600
 1893DPPE   GL144571   6.380  20.990   7.710
 1893DPPE   GL244572   6.680  20.980   7.530
 1893DPPE   C1A44573   6.730  20.970   8.040
 1893DPPE   C2A44574   7.160  20.850   8.080
 1893DPPE   C3A44575   7.550  20.830   7.940
 1893DPPE   C4A44576   8.030  20.900   8.200
 1893DPPE   C1B44577   6.940  21.270   7.760
 1893DPPE   C2B44578   7.400  21.330   7.800
 1893DPPE   C3B44579   7.840  21.460   7.940
 1893DPPE   C4B44580   8.230  21.390   8.120
 1894DPPE   NH344581  10.540  13.960  13.190
 1894DPPE   PO444582  10.540  14.430  13.460
 1894DPPE   GL144583  10.370  14.120  13.660
 1894DPPE   GL244584  10.720  13.900  13.890
 1894DPPE   C1A44585  10.200  13.850  14.000
 1894DPPE   C2A44586  10.160  13.580  14.380
 1894DPPE   C3A44587   9.720  13.370  14.470
 1894DPPE   C4A44588   9.350  13.160  14.650
 1894DPPE   C1B44589  10.520  13.950  14.370
 1894DPPE   C2B44590  10.220  13.850  14.820
 1894DPPE   C3B44591  10.010  13.720  15.100
 1894DPPE   C4B44592  10.100  13.300  15.340
 1895DPPE   NH344593  12.200  15.400  17.190
 1895DPPE   PO444594  12.210  14.930  17.160
 1895DPPE   GL144595  11.860  14.990  17.450
 1895DPPE   GL244596  11.750  15.280  17.330
 1895DPPE   C1A44597  11.710  14.960  17.870
 1895DPPE   C2A44598  11.260  15.010  18.110
 1895DPPE   C3A44599  11.090  15.000  18.410
 1895DPPE   C4A44600  10.720  15.020  18.740
 1895DPPE   C1B44601  11.350  15.070  17.580
 1895DPPE   C2B44602  11.000  14.810  17.660
 1895DPPE   C3B44603  10.790  14.490  17.830
 1895DPPE   C4B44604  10.970  14.180  18.090
 1896DPPE   NH344605   7.750  15.200  25.900
 1896DPPE   PO444606   7.760  14.920  25.600
 1896DPPE   GL144607   7.870  14.950  25.170
 1896DPPE   GL244608   7.530  14.960  25.060
 1896DPPE   C1A44609   8.180  14.890  24.900
 1896DPPE   C2A44610   8.430  15.000  24.620
 1896DPPE   C3A44611   8.620  14.840  24.200
 1896DPPE   C4A44612   9.040  14.770  24.160
 1896DPPE   C1B44613   7.700  15.050  24.630
 1896DPPE   C2B44614   7.820  15.430  24.350
 1896DPPE   C3B44615   7.680  15.730  24.100
 1896DPPE   C4B44616   7.350  15.880  24.440
 1897DPPE   NH344617  12.920  17.900  18.140
 1897DPPE   PO444618  12.820  17.440  17.860
 1897DPPE   GL144619  12.740  17.440  18.360
 1897DPPE   GL244620  12.920  17.230  18.530
 1897DPPE   C1A44621  12.580  17.430  18.800
 1897DPPE   C2A44622  12.290  17.400  19.180
 1897DPPE   C3A44623  11.980  17.280  19.530
 1897DPPE   C4A44624  11.810  17.120  19.850
 1897DPPE   C1B44625  12.790  16.900  18.850
 1897DPPE   C2B44626  12.570  16.840  19.210
 1897DPPE   C3B44627  12.430  16.560  19.540
 1897DPPE   C4B44628  12.390  16.430  19.930
 1898DPPE   NH344629  12.660  11.560  27.250
 1898DPPE   PO444630  13.110  11.470  27.220
 1898DPPE   GL144631  13.150  11.630  26.830
 1898DPPE   GL244632  13.390  11.620  26.780
 1898DPPE   C1A44633  13.010  11.390  26.490
 1898DPPE   C2A44634  13.130  11.520  26.140
 1898DPPE   C3A44635  12.990  11.920  26.010
 1898DPPE   C4A44636  12.950  11.950  25.670
 1898DPPE   C1B44637  13.400  11.820  26.420
 1898DPPE   C2B44638  13.450  11.960  26.010
 1898DPPE   C3B44639  13.710  12.130  25.720
 1898DPPE   C4B44640  13.940  12.120  25.310
 1899DPPE   NH344641  22.070  13.180   8.700
 1899DPPE   PO444642  22.100  12.730   8.940
 1899DPPE   GL144643  22.380  12.460   8.880
 1899DPPE   GL244644  22.540  12.580   9.160
 1899DPPE   C1A44645  22.720  12.130   8.820
 1899DPPE   C2A44646  22.850  11.730   8.810
 1899DPPE   C3A44647  23.280  11.630   8.780
 1899DPPE   C4A44648  23.580  11.470   8.590
 1899DPPE   C1B44649  22.940  12.420   9.220
 1899DPPE   C2B44650  23.290  12.110   9.010
 1899DPPE   C3B44651  23.670  12.000   8.730
 1899DPPE   C4B44652  24.060  11.750   8.690
 1900DPPE   NH344653  18.290   7.350  19.690
 1900DPPE   PO444654  18.650   7.530  19.340
 1900DPPE   GL144655  18.400   7.630  18.880
 1900DPPE   GL244656  18.200   7.870  18.850
 1900DPPE   C1A44657  18.470   7.660  18.440
 1900DPPE   C2A44658  18.460   7.570  18.030
 1900DPPE   C3A44659  18.410   7.390  17.600
 1900DPPE   C4A44660  18.410   7.600  17.240
 1900DPPE   C1B44661  17.870   8.110  18.660
 1900DPPE   C2B44662  17.640   8.260  18.190
 1900DPPE   C3B44663  17.350   8.520  17.850
 1900DPPE   C4B44664  16.950   8.680  17.720
 1901DPPE   NH344665  18.330  26.800   5.730
 1901DPPE   PO444666  18.640  26.560   5.950
 1901DPPE   GL144667  18.790  26.250   6.160
 1901DPPE   GL244668  18.890  26.380   6.430
 1901DPPE   C1A44669  18.720  25.810   6.200
 1901DPPE   C2A44670  18.850  25.490   6.360
 1901DPPE   C3A44671  18.980  25.110   6.660
 1901DPPE   C4A44672  18.980  24.890   7.010
 1901DPPE   C1B44673  18.840  26.130   6.750
 1901DPPE   C2B44674  18.810  26.000   7.130
 1901DPPE   C3B44675  18.930  25.860   7.570
 1901DPPE   C4B44676  18.900  25.520   7.670
 1902DPPE   NH344677  14.620   9.790  15.810
 1902DPPE   PO444678  15.080   9.910  15.860
 1902DPPE   GL144679  15.260   9.590  16.090
 1902DPPE   GL244680  14.980   9.450  16.010
 1902DPPE   C1A44681  15.350   9.190  16.340
 1902DPPE   C2A44682  15.480   8.820  16.570
 1902DPPE   C3A44683  15.280   8.730  17.010
 1902DPPE   C4A44684  14.900   9.000  17.260
 1902DPPE   C1B44685  14.990   9.030  16.020
 1902DPPE   C2B44686  14.960   8.700  16.270
 1902DPPE   C3B44687  15.170   8.440  16.520
 1902DPPE   C4B44688  15.480   8.270  16.880
 1903DPPE   NH344689  11.700  20.860  16.220
 1903DPPE   PO444690  11.670  21.180  16.510
 1903DPPE   GL144691  11.560  21.030  16.950
 1903DPPE   GL244692  11.260  21.140  16.940
 1903DPPE   C1A44693  11.380  20.740  17.250
 1903DPPE   C2A44694  11.200  20.440  17.470
 1903DPPE   C3A44695  10.770  20.370  17.620
 1903DPPE   C4A44696  10.340  20.360  17.730
 1903DPPE   C1B44697  10.850  21.350  16.730
 1903DPPE   C2B44698  10.470  21.560  16.850
 1903DPPE   C3B44699  10.110  21.680  16.930
 1903DPPE   C4B44700   9.700  21.840  16.820
 1904DPPE   NH344701  14.100  26.380   5.200
 1904DPPE   PO444702  14.520  26.070   5.430
 1904DPPE   GL144703  14.510  25.830   5.800
 1904DPPE   GL244704  14.250  25.980   5.980
 1904DPPE   C1A44705  14.370  25.430   5.790
 1904DPPE   C2A44706  14.510  25.010   5.930
 1904DPPE   C3A44707  14.380  24.480   6.020
 1904DPPE   C4A44708  14.440  24.080   6.160
 1904DPPE   C1B44709  14.400  25.570   6.270
 1904DPPE   C2B44710  14.610  25.340   6.510
 1904DPPE   C3B44711  14.720  25.020   6.750
 1904DPPE   C4B44712  14.960  24.680   6.810
 1905DPPE   NH344713  10.870  15.140  14.970
 1905DPPE   PO444714  10.420  15.260  15.120
 1905DPPE   GL144715  10.010  15.190  15.140
 1905DPPE   GL244716   9.820  15.470  15.210
 1905DPPE   C1A44717   9.530  15.150  14.950
 1905DPPE   C2A44718   9.120  15.130  15.070
 1905DPPE   C3A44719   8.890  14.870  14.750
 1905DPPE   C4A44720   8.730  14.450  14.680
 1905DPPE   C1B44721   9.410  15.520  15.410
 1905DPPE   C2B44722   9.140  15.600  15.710
 1905DPPE   C3B44723   9.030  15.760  16.090
 1905DPPE   C4B44724   9.000  16.150  16.300
 1906DPPE   NH344725  13.820  20.620  18.640
 1906DPPE   PO444726  13.830  21.050  18.590
 1906DPPE   GL144727  13.530  21.090  18.860
 1906DPPE   GL244728  13.430  20.780  19.040
 1906DPPE   C1A44729  13.310  21.400  19.160
 1906DPPE   C2A44730  13.100  21.890  19.360
 1906DPPE   C3A44731  12.640  21.920  19.300
 1906DPPE   C4A44732  12.380  22.090  19.100
 1906DPPE   C1B44733  13.140  20.590  19.230
 1906DPPE   C2B44734  12.760  20.340  19.300
 1906DPPE   C3B44735  12.470  20.070  19.580
 1906DPPE   C4B44736  12.360  20.120  19.970
 1907DPPE   NH344737   2.000  13.140  17.990
 1907DPPE   PO444738   2.240  13.220  18.280
 1907DPPE   GL144739   2.700  13.320  18.230
 1907DPPE   GL244740   2.840  13.370  18.440
 1907DPPE   C1A44741   3.100  13.450  18.020
 1907DPPE   C2A44742   3.500  13.570  17.810
 1907DPPE   C3A44743   3.810  13.680  17.820
 1907DPPE   C4A44744   4.000  13.880  17.480
 1907DPPE   C1B44745   3.310  13.580  18.570
 1907DPPE   C2B44746   3.830  13.730  18.600
 1907DPPE   C3B44747   4.030  14.010  18.250
 1907DPPE   C4B44748   4.210  14.090  17.920
 1908DPPE   NH344749  25.120  18.150   4.160
 1908DPPE   PO444750  24.980  18.050   3.770
 1908DPPE   GL144751  24.670  17.990   4.030
 1908DPPE   GL244752  24.500  17.980   3.860
 1908DPPE   C1A44753  24.310  17.800   4.310
 1908DPPE   C2A44754  24.050  17.510   4.670
 1908DPPE   C3A44755  23.670  17.420   4.920
 1908DPPE   C4A44756  23.240  17.460   5.030
 1908DPPE   C1B44757  24.220  18.170   4.000
 1908DPPE   C2B44758  23.990  18.260   4.280
 1908DPPE   C3B44759  23.820  18.000   4.560
 1908DPPE   C4B44760  23.460  17.800   4.640
 1909DPPE   NH344761  18.470  13.540   5.100
 1909DPPE   PO444762  18.950  13.450   5.190
 1909DPPE   GL144763  19.320  13.360   4.920
 1909DPPE   GL244764  19.560  13.390   5.020
 1909DPPE   C1A44765  19.370  13.410   4.420
 1909DPPE   C2A44766  19.610  13.250   4.150
 1909DPPE   C3A44767  19.850  12.910   3.860
 1909DPPE   C4A44768  20.110  12.650   3.970
 1909DPPE   C1B44769  19.770  13.240   4.670
 1909DPPE   C2B44770  19.970  13.010   4.370
 1909DPPE   C3B44771  20.240  12.630   4.490
 1909DPPE   C4B44772  20.670  12.680   4.340
 1910DPPE   NH344773   9.790  26.280  22.850
 1910DPPE   PO444774   9.770  26.120  23.240
 1910DPPE   GL144775   9.800  25.700  23.070
 1910DPPE   GL244776   9.860  25.620  23.330
 1910DPPE   C1A44777   9.960  25.260  22.860
 1910DPPE   C2A44778  10.020  24.910  22.460
 1910DPPE   C3A44779  10.210  24.560  22.330
 1910DPPE   C4A44780  10.630  24.370  22.300
 1910DPPE   C1B44781  10.040  25.240  23.410
 1910DPPE   C2B44782  10.300  24.810  23.370
 1910DPPE   C3B44783  10.590  24.580  23.200
 1910DPPE   C4B44784  11.000  24.510  23.050
 1911DPPE   NH344785   8.230  17.500  12.220
 1911DPPE   PO444786   7.900  17.610  12.150
 1911DPPE   GL144787   7.600  17.390  12.140
 1911DPPE   GL244788   7.480  17.190  11.930
 1911DPPE   C1A44789   7.240  17.460  12.370
 1911DPPE   C2A44790   6.880  17.410  12.540
 1911DPPE   C3A44791   6.490  17.290  12.680
 1911DPPE   C4A44792   6.430  16.940  12.950
 1911DPPE   C1B44793   7.080  17.340  11.900
 1911DPPE   C2B44794   6.650  17.380  12.040
 1911DPPE   C3B44795   6.300  17.140  12.150
 1911DPPE   C4B44796   5.920  17.030  12.420
 1912DPPE   NH344797  23.120   7.340   9.750
 1912DPPE   PO444798  22.800   7.400   9.890
 1912DPPE   GL144799  22.680   7.770   9.670
 1912DPPE   GL244800  22.930   7.800   9.500
 1912DPPE   C1A44801  22.570   8.170   9.590
 1912DPPE   C2A44802  22.550   8.540   9.600
 1912DPPE   C3A44803  22.610   8.920   9.560
 1912DPPE   C4A44804  22.930   9.020   9.260
 1912DPPE   C1B44805  23.010   8.220   9.260
 1912DPPE   C2B44806  23.160   8.630   9.370
 1912DPPE   C3B44807  23.230   8.880   9.760
 1912DPPE   C4B44808  23.090   9.300   9.730
 1913DPPE   NH344809  23.320  19.810   7.920
 1913DPPE   PO444810  23.630  19.960   8.270
 1913DPPE   GL144811  23.980  20.020   8.000
 1913DPPE   GL244812  23.810  19.930   7.750
 1913DPPE   C1A44813  24.290  20.320   7.820
 1913DPPE   C2A44814  24.470  20.380   7.470
 1913DPPE   C3A44815  24.410  20.380   7.110
 1913DPPE   C4A44816  24.560  20.170   6.680
 1913DPPE   C1B44817  24.200  19.980   7.370
 1913DPPE   C2B44818  24.500  19.740   7.090
 1913DPPE   C3B44819  24.760  19.680   6.710
 1913DPPE   C4B44820  24.640  19.750   6.330
 1914DPPE   NH344821   8.950  13.690  11.080
 1914DPPE   PO444822   9.100  13.320  11.190
 1914DPPE   GL144823   8.930  13.280  11.510
 1914DPPE   GL244824   9.170  13.000  11.760
 1914DPPE   C1A44825   8.710  13.310  11.870
 1914DPPE   C2A44826   8.460  13.530  12.170
 1914DPPE   C3A44827   8.170  13.720  12.450
 1914DPPE   C4A44828   7.930  14.100  12.480
 1914DPPE   C1B44829   8.780  12.850  11.670
 1914DPPE   C2B44830   8.440  12.660  11.580
 1914DPPE   C3B44831   8.110  12.580  11.820
 1914DPPE   C4B44832   7.790  12.410  12.000
 1915DPPE   NH344833  24.510   8.990  14.940
 1915DPPE   PO444834  24.850   9.090  14.890
 1915DPPE   GL144835  24.630   9.270  14.510
 1915DPPE   GL244836  24.690   9.550  14.530
 1915DPPE   C1A44837  24.290   9.580  14.260
 1915DPPE   C2A44838  24.160   9.830  13.930
 1915DPPE   C3A44839  24.200  10.230  13.860
 1915DPPE   C4A44840  24.230  10.580  13.650
 1915DPPE   C1B44841  24.430   9.910  14.590
 1915DPPE   C2B44842  24.080  10.080  14.340
 1915DPPE   C3B44843  23.930  10.410  14.200
 1915DPPE   C4B44844  23.660  10.600  14.230
 1916DPPE   NH344845   4.810  10.350  10.920
 1916DPPE   PO444846   4.980  10.040  10.920
 1916DPPE   GL144847   5.360   9.870  11.220
 1916DPPE   GL244848   5.370   9.610  11.370
 1916DPPE   C1A44849   5.430   9.970  11.710
 1916DPPE   C2A44850   5.600  10.130  12.070
 1916DPPE   C3A44851   5.540  10.390  12.420
 1916DPPE   C4A44852   5.430  10.510  12.890
 1916DPPE   C1B44853   5.500   9.470  11.810
 1916DPPE   C2B44854   5.810   9.510  12.050
 1916DPPE   C3B44855   6.070   9.810  12.300
 1916DPPE   C4B44856   6.530   9.960  12.520
 1917DPPE   NH344857   8.020  16.370   9.730
 1917DPPE   PO444858   8.150  16.500  10.080
 1917DPPE   GL144859   7.690  16.710   9.880
 1917DPPE   GL244860   7.650  17.060  10.040
 1917DPPE   C1A44861   7.290  16.480   9.830
 1917DPPE   C2A44862   6.830  16.340   9.800
 1917DPPE   C3A44863   6.500  16.120   9.770
 1917DPPE   C4A44864   6.440  15.790   9.490
 1917DPPE   C1B44865   7.280  17.130   9.850
 1917DPPE   C2B44866   6.900  17.280   9.870
 1917DPPE   C3B44867   6.670  17.180  10.320
 1917DPPE   C4B44868   6.720  17.150  10.640
 1918DPPE   NH344869  17.260   6.020  17.080
 1918DPPE   PO444870  16.900   6.010  16.710
 1918DPPE   GL144871  17.000   6.410  16.840
 1918DPPE   GL244872  17.360   6.470  16.920
 1918DPPE   C1A44873  17.090   6.900  16.780
 1918DPPE   C2A44874  16.960   7.380  16.660
 1918DPPE   C3A44875  16.810   7.720  16.830
 1918DPPE   C4A44876  17.050   8.120  16.840
 1918DPPE   C1B44877  17.590   6.850  16.890
 1918DPPE   C2B44878  17.800   7.180  16.920
 1918DPPE   C3B44879  17.920   7.540  16.960
 1918DPPE   C4B44880  18.130   7.890  16.850
 1919DPPE   NH344881   0.610  14.950  14.070
 1919DPPE   PO444882   0.880  15.410  13.880
 1919DPPE   GL144883   1.360  15.350  13.690
 1919DPPE   GL244884   1.550  15.630  13.640
 1919DPPE   C1A44885   1.720  15.100  13.660
 1919DPPE   C2A44886   1.780  14.840  13.270
 1919DPPE   C3A44887   2.010  14.710  12.850
 1919DPPE   C4A44888   2.140  14.280  12.780
 1919DPPE   C1B44889   1.350  15.830  13.950
 1919DPPE   C2B44890   1.280  16.120  14.260
 1919DPPE   C3B44891   1.440  16.030  14.720
 1919DPPE   C4B44892   1.690  15.690  14.840
 1920DPPE   NH344893  11.660   9.490  12.730
 1920DPPE   PO444894  11.530   9.760  12.370
 1920DPPE   GL144895  11.300   9.360  12.330
 1920DPPE   GL244896  10.960   9.430  12.370
 1920DPPE   C1A44897  11.110   8.930  12.450
 1920DPPE   C2A44898  10.760   8.690  12.440
 1920DPPE   C3A44899  10.800   8.200  12.320
 1920DPPE   C4A44900  10.800   7.840  11.900
 1920DPPE   C1B44901  10.670   9.190  12.310
 1920DPPE   C2B44902  10.390   8.990  12.100
 1920DPPE   C3B44903  10.250   8.670  11.940
 1920DPPE   C4B44904  10.340   8.410  11.530
 1921DPPE   NH344905  13.660  15.960  27.930
 1921DPPE   PO444906  13.650  16.390  28.030
 1921DPPE   GL144907  13.270  16.330  27.770
 1921DPPE   GL244908  13.080  16.710  27.830
 1921DPPE   C1A44909  12.860  16.160  27.570
 1921DPPE   C2A44910  12.600  16.250  27.200
 1921DPPE   C3A44911  12.690  16.350  26.730
 1921DPPE   C4A44912  12.800  16.030  26.360
 1921DPPE   C1B44913  13.440  16.840  27.570
 1921DPPE   C2B44914  13.350  16.960  27.130
 1921DPPE   C3B44915  13.420  17.240  26.840
 1921DPPE   C4B44916  13.480  17.600  26.630
 1922DPPE   NH344917  13.140  21.380  17.760
 1922DPPE   PO444918  13.080  21.760  17.760
 1922DPPE   GL144919  12.800  21.900  18.010
 1922DPPE   GL244920  12.910  22.030  18.290
 1922DPPE   C1A44921  12.400  21.940  18.180
 1922DPPE   C2A44922  12.190  22.270  18.260
 1922DPPE   C3A44923  11.850  22.440  18.590
 1922DPPE   C4A44924  11.610  22.610  18.870
 1922DPPE   C1B44925  12.750  22.350  18.550
 1922DPPE   C2B44926  12.330  22.430  18.730
 1922DPPE   C3B44927  12.100  22.760  19.020
 1922DPPE   C4B44928  11.770  22.790  19.310
 1923DPPE   NH344929  11.010  21.370  16.060
 1923DPPE   PO444930  10.680  21.380  15.680
 1923DPPE   GL144931  10.480  21.320  15.990
 1923DPPE   GL244932  10.270  21.540  16.080
 1923DPPE   C1A44933  10.440  21.230  16.450
 1923DPPE   C2A44934  10.110  21.140  16.740
 1923DPPE   C3A44935   9.810  21.330  17.070
 1923DPPE   C4A44936   9.620  21.550  17.340
 1923DPPE   C1B44937   9.970  21.520  16.430
 1923DPPE   C2B44938   9.660  21.160  16.460
 1923DPPE   C3B44939   9.670  20.850  16.760
 1923DPPE   C4B44940   9.940  20.800  17.140
 1924DPPE   NH344941  15.790  29.500  13.130
 1924DPPE   PO444942  15.310  29.380  13.150
 1924DPPE   GL144943  15.240  29.190  12.760
 1924DPPE   GL244944  15.540  28.990  12.770
 1924DPPE   C1A44945  15.070  28.730  12.710
 1924DPPE   C2A44946  15.090  28.370  12.640
 1924DPPE   C3A44947  15.140  27.910  12.720
 1924DPPE   C4A44948  15.430  27.680  12.990
 1924DPPE   C1B44949  15.890  28.660  12.800
 1924DPPE   C2B44950  15.900  28.330  13.110
 1924DPPE   C3B44951  15.880  28.370  13.510
 1924DPPE   C4B44952  15.940  28.500  13.990
 1925DPPE   NH344953  26.230  21.510  17.530
 1925DPPE   PO444954  25.940  21.420  17.300
 1925DPPE   GL144955  25.760  21.300  16.780
 1925DPPE   GL244956  25.920  21.380  16.510
 1925DPPE   C1A44957  25.730  20.970  16.460
 1925DPPE   C2A44958  25.910  20.810  16.230
 1925DPPE   C3A44959  25.940  20.580  15.840
 1925DPPE   C4A44960  26.250  20.730  15.530
 1925DPPE   C1B44961  25.370  21.330  16.490
 1925DPPE   C2B44962  24.930  21.200  16.460
 1925DPPE   C3B44963  24.930  21.630  16.220
 1925DPPE   C4B44964  24.480  21.830  16.140
 1926DPPE   NH344965  11.910  18.690  16.890
 1926DPPE   PO444966  11.770  18.840  16.440
 1926DPPE   GL144967  11.470  18.870  16.810
 1926DPPE   GL244968  11.350  19.150  16.860
 1926DPPE   C1A44969  11.290  18.970  17.340
 1926DPPE   C2A44970  10.970  18.810  17.750
 1926DPPE   C3A44971  10.540  18.780  17.760
 1926DPPE   C4A44972  10.330  18.660  18.080
 1926DPPE   C1B44973  11.040  19.290  17.030
 1926DPPE   C2B44974  10.800  19.430  17.290
 1926DPPE   C3B44975  10.450  19.680  17.190
 1926DPPE   C4B44976  10.110  19.710  16.880
 1927DPPE   NH344977  11.080  20.580  15.750
 1927DPPE   PO444978  11.140  20.890  16.150
 1927DPPE   GL144979  10.730  20.850  16.070
 1927DPPE   GL244980  10.540  20.510  15.920
 1927DPPE   C1A44981  10.420  20.710  16.450
 1927DPPE   C2A44982  10.170  20.600  16.770
 1927DPPE   C3A44983   9.960  20.320  17.020
 1927DPPE   C4A44984   9.800  20.050  17.290
 1927DPPE   C1B44985  10.100  20.390  15.730
 1927DPPE   C2B44986   9.910  20.000  15.560
 1927DPPE   C3B44987   9.660  19.630  15.670
 1927DPPE   C4B44988   9.420  19.590  16.060
 1928DPPE   NH344989   1.620  20.440  17.720
 1928DPPE   PO444990   1.630  20.700  18.030
 1928DPPE   GL144991   2.000  20.490  18.030
 1928DPPE   GL244992   2.110  20.650  17.780
 1928DPPE   C1A44993   2.400  20.260  17.980
 1928DPPE   C2A44994   2.680  19.930  18.040
 1928DPPE   C3A44995   2.900  19.690  18.180
 1928DPPE   C4A44996   3.320  19.610  18.220
 1928DPPE   C1B44997   2.350  21.030  17.750
 1928DPPE   C2B44998   2.520  21.280  18.070
 1928DPPE   C3B44999   2.830  21.530  18.190
 1928DPPE   C4B45000   3.220  21.540  18.400
 1929DPPE   NH345001  15.490  21.980  19.920
 1929DPPE   PO445002  15.180  22.090  19.630
 1929DPPE   GL145003  15.100  22.280  20.060
 1929DPPE   GL245004  15.250  22.590  19.960
 1929DPPE   C1A45005  14.860  22.460  20.300
 1929DPPE   C2A45006  14.620  22.870  20.460
 1929DPPE   C3A45007  14.480  23.250  20.550
 1929DPPE   C4A45008  14.180  23.540  20.580
 1929DPPE   C1B45009  15.120  22.940  20.200
 1929DPPE   C2B45010  15.110  23.320  20.410
 1929DPPE   C3B45011  15.350  23.670  20.470
 1929DPPE   C4B45012  15.380  24.060  20.690
 1930DPPE   NH345013  15.470  19.160  20.390
 1930DPPE   PO445014  15.570  19.610  20.460
 1930DPPE   GL145015  15.450  19.570  20.730
 1930DPPE   GL245016  15.610  19.330  20.880
 1930DPPE   C1A45017  15.170  19.790  21.040
 1930DPPE   C2A45018  15.160  20.060  21.320
 1930DPPE   C3A45019  15.210  20.370  21.650
 1930DPPE   C4A45020  15.310  20.660  21.980
 1930DPPE   C1B45021  15.260  19.300  21.120
 1930DPPE   C2B45022  15.090  19.530  21.520
 1930DPPE   C3B45023  15.020  19.900  21.780
 1930DPPE   C4B45024  15.000  20.220  22.180
 1931DPPE   NH345025  13.370  12.370  15.540
 1931DPPE   PO445026  13.560  12.440  15.920
 1931DPPE   GL145027  13.440  12.230  16.320
 1931DPPE   GL245028  13.400  12.250  16.620
 1931DPPE   C1A45029  13.300  11.820  16.340
 1931DPPE   C2A45030  13.430  11.410  16.280
 1931DPPE   C3A45031  13.100  11.100  16.190
 1931DPPE   C4A45032  12.870  10.690  15.940
 1931DPPE   C1B45033  13.040  11.920  16.710
 1931DPPE   C2B45034  12.820  11.690  16.980
 1931DPPE   C3B45035  13.110  11.640  17.340
 1931DPPE   C4B45036  13.550  11.680  17.330
 1932DPPE   NH345037  23.420  27.220  14.030
 1932DPPE   PO445038  23.790  26.890  14.040
 1932DPPE   GL145039  23.760  26.470  14.030
 1932DPPE   GL245040  24.040  26.340  14.120
 1932DPPE   C1A45041  23.440  26.100  13.940
 1932DPPE   C2A45042  23.350  25.710  13.990
 1932DPPE   C3A45043  23.270  25.350  14.090
 1932DPPE   C4A45044  23.550  25.080  13.770
 1932DPPE   C1B45045  23.730  26.030  14.410
 1932DPPE   C2B45046  23.460  25.780  14.540
 1932DPPE   C3B45047  23.200  25.620  14.500
 1932DPPE   C4B45048  22.830  25.460  14.410
 1933DPPE   NH345049   2.970  16.920  21.020
 1933DPPE   PO445050   3.140  17.230  21.320
 1933DPPE   GL145051   3.510  17.020  21.070
 1933DPPE   GL245052   3.840  17.160  21.210
 1933DPPE   C1A45053   3.560  16.670  20.800
 1933DPPE   C2A45054   3.510  16.240  20.550
 1933DPPE   C3A45055   3.390  15.890  20.350
 1933DPPE   C4A45056   3.590  15.850  20.070
 1933DPPE   C1B45057   4.060  16.900  20.900
 1933DPPE   C2B45058   4.000  16.460  20.660
 1933DPPE   C3B45059   3.940  16.200  20.320
 1933DPPE   C4B45060   4.000  16.140  19.900
 1934DPPE   NH345061  26.160  16.160  18.080
 1934DPPE   PO445062  26.210  16.600  17.780
 1934DPPE   GL145063  25.850  16.790  17.610
 1934DPPE   GL245064  25.790  16.740  17.270
 1934DPPE   C1A45065  25.490  17.030  17.660
 1934DPPE   C2A45066  25.110  17.060  17.560
 1934DPPE   C3A45067  24.920  17.180  17.190
 1934DPPE   C4A45068  24.680  17.230  16.860
 1934DPPE   C1B45069  25.430  17.060  17.160
 1934DPPE   C2B45070  25.380  17.440  17.220
 1934DPPE   C3B45071  25.640  17.830  17.500
 1934DPPE   C4B45072  25.560  18.100  17.850
 1935DPPE   NH345073   7.840  18.260  11.390
 1935DPPE   PO445074   7.780  18.060  11.820
 1935DPPE   GL145075   7.510  18.010  12.100
 1935DPPE   GL245076   7.260  17.860  11.980
 1935DPPE   C1A45077   7.400  18.050  12.520
 1935DPPE   C2A45078   7.000  17.910  12.670
 1935DPPE   C3A45079   6.560  17.900  12.530
 1935DPPE   C4A45080   6.110  18.100  12.500
 1935DPPE   C1B45081   6.920  17.870  12.090
 1935DPPE   C2B45082   6.460  18.080  12.060
 1935DPPE   C3B45083   6.100  18.220  11.970
 1935DPPE   C4B45084   5.790  18.480  11.790
 1936DPPE   NH345085  12.370  26.260  21.580
 1936DPPE   PO445086  12.810  26.200  21.650
 1936DPPE   GL145087  13.060  25.970  21.390
 1936DPPE   GL245088  13.040  26.090  20.980
 1936DPPE   C1A45089  13.270  25.640  21.200
 1936DPPE   C2A45090  13.210  25.150  21.080
 1936DPPE   C3A45091  13.030  24.800  21.020
 1936DPPE   C4A45092  12.900  24.370  21.310
 1936DPPE   C1B45093  12.940  25.630  20.820
 1936DPPE   C2B45094  12.840  25.180  20.750
 1936DPPE   C3B45095  13.180  24.930  20.580
 1936DPPE   C4B45096  13.270  24.520  20.540
 1937DPPE   NH345097  10.630  24.430  24.870
 1937DPPE   PO445098  10.350  24.670  24.540
 1937DPPE   GL145099  10.560  24.400  24.350
 1937DPPE   GL245100  10.620  24.030  24.610
 1937DPPE   C1A45101  10.600  24.050  24.100
 1937DPPE   C2A45102  10.750  23.690  23.740
 1937DPPE   C3A45103  10.910  23.430  23.430
 1937DPPE   C4A45104  11.190  23.450  23.250
 1937DPPE   C1B45105  10.770  23.660  24.540
 1937DPPE   C2B45106  10.840  23.470  24.210
 1937DPPE   C3B45107  10.830  23.120  23.970
 1937DPPE   C4B45108  11.020  22.670  23.990
 1938DPPE   NH345109   3.680  23.350  20.550
 1938DPPE   PO445110   4.060  23.460  20.690
 1938DPPE   GL145111   4.220  23.380  20.310
 1938DPPE   GL245112   4.060  23.410  20.100
 1938DPPE   C1A45113   4.520  23.200  20.070
 1938DPPE   C2A45114   4.750  22.990  19.780
 1938DPPE   C3A45115   5.120  23.010  19.420
 1938DPPE   C4A45116   5.520  22.820  19.190
 1938DPPE   C1B45117   4.180  23.750  19.910
 1938DPPE   C2B45118   4.390  23.870  19.590
 1938DPPE   C3B45119   4.640  24.110  19.260
 1938DPPE   C4B45120   4.660  24.400  19.050
 1939DPPE   NH345121  23.740   7.900   9.890
 1939DPPE   PO445122  23.970   8.080   9.770
 1939DPPE   GL145123  23.860   8.340  10.150
 1939DPPE   GL245124  23.560   8.200  10.310
 1939DPPE   C1A45125  23.740   8.620  10.550
 1939DPPE   C2A45126  23.460   8.830  10.670
 1939DPPE   C3A45127  23.330   9.120  11.030
 1939DPPE   C4A45128  22.890   9.170  11.190
 1939DPPE   C1B45129  23.210   8.480  10.380
 1939DPPE   C2B45130  23.000   8.780  10.540
 1939DPPE   C3B45131  22.990   9.150  10.670
 1939DPPE   C4B45132  23.070   9.570  10.790
 1940DPPE   NH345133  11.380  13.340  14.180
 1940DPPE   PO445134  11.440  13.200  13.770
 1940DPPE   GL145135  11.320  12.810  14.040
 1940DPPE   GL245136  11.340  12.840  14.470
 1940DPPE   C1A45137  11.000  12.580  14.160
 1940DPPE   C2A45138  10.700  12.470  14.470
 1940DPPE   C3A45139  10.340  12.450  14.730
 1940DPPE   C4A45140   9.890  12.300  14.820
 1940DPPE   C1B45141  10.950  12.890  14.700
 1940DPPE   C2B45142  10.590  12.860  14.820
 1940DPPE   C3B45143  10.180  12.800  15.090
 1940DPPE   C4B45144   9.810  12.870  15.310
 1941DPPE   NH345145  15.320  16.530   0.100
 1941DPPE   PO445146  15.330  16.870   0.320
 1941DPPE   GL145147  15.530  16.880   0.680
 1941DPPE   GL245148  15.420  16.680   0.820
 1941DPPE   C1A45149  15.860  16.880   1.010
 1941DPPE   C2A45150  15.820  16.640   1.420
 1941DPPE   C3A45151  15.600  16.410   1.720
 1941DPPE   C4A45152  15.770  16.080   1.970
 1941DPPE   C1B45153  15.030  16.400   0.950
 1941DPPE   C2B45154  14.980  16.250   1.250
 1941DPPE   C3B45155  15.110  16.330   1.590
 1941DPPE   C4B45156  15.180  16.220   2.000
 1942DPPE   NH345157   6.460  11.570  23.600
 1942DPPE   PO445158   6.070  11.480  23.390
 1942DPPE   GL145159   6.220  11.330  22.910
 1942DPPE   GL245160   6.000  11.480  22.670
 1942DPPE   C1A45161   6.630  11.510  22.760
 1942DPPE   C2A45162   6.890  11.550  22.500
 1942DPPE   C3A45163   7.240  11.710  22.230
 1942DPPE   C4A45164   7.330  11.950  21.880
 1942DPPE   C1B45165   6.300  11.830  22.600
 1942DPPE   C2B45166   6.440  12.160  22.540
 1942DPPE   C3B45167   6.430  12.280  22.120
 1942DPPE   C4B45168   6.060  12.210  21.920
 1943DPPE   NH345169   5.700  21.920  23.210
 1943DPPE   PO445170   5.570  21.520  23.210
 1943DPPE   GL145171   5.790  21.330  22.830
 1943DPPE   GL245172   5.650  21.020  22.730
 1943DPPE   C1A45173   5.950  21.630  22.640
 1943DPPE   C2A45174   6.370  21.900  22.530
 1943DPPE   C3A45175   6.780  21.910  22.520
 1943DPPE   C4A45176   7.100  22.000  22.550
 1943DPPE   C1B45177   6.080  20.920  22.650
 1943DPPE   C2B45178   6.180  20.730  22.330
 1943DPPE   C3B45179   6.540  20.580  22.110
 1943DPPE   C4B45180   6.840  20.200  22.010
 1944DPPE   NH345181  14.320  11.760  16.220
 1944DPPE   PO445182  14.810  11.460  16.310
 1944DPPE   GL145183  14.490  11.360  16.590
 1944DPPE   GL245184  14.750  11.250  16.850
 1944DPPE   C1A45185  14.220  11.080  16.870
 1944DPPE   C2A45186  14.050  10.660  16.730
 1944DPPE   C3A45187  13.870  10.180  16.740
 1944DPPE   C4A45188  13.520  10.040  16.790
 1944DPPE   C1B45189  14.690  10.900  16.890
 1944DPPE   C2B45190  14.440  10.650  17.130
 1944DPPE   C3B45191  14.020  10.460  17.210
 1944DPPE   C4B45192  13.540  10.300  17.400
 1945DPPE   NH345193  14.130   6.580   5.350
 1945DPPE   PO445194  14.320   6.180   5.680
 1945DPPE   GL145195  14.290   6.590   5.830
 1945DPPE   GL245196  14.070   6.910   5.820
 1945DPPE   C1A45197  14.600   6.950   5.830
 1945DPPE   C2A45198  14.770   7.340   6.010
 1945DPPE   C3A45199  15.120   7.440   6.280
 1945DPPE   C4A45200  15.440   7.640   6.500
 1945DPPE   C1B45201  14.180   7.320   5.970
 1945DPPE   C2B45202  14.440   7.520   6.290
 1945DPPE   C3B45203  14.330   7.850   6.490
 1945DPPE   C4B45204  14.560   8.180   6.580
 1946DPPE   NH345205  24.760  19.130   3.580
 1946DPPE   PO445206  25.070  18.870   3.790
 1946DPPE   GL145207  24.690  18.980   4.020
 1946DPPE   GL245208  24.630  19.170   4.340
 1946DPPE   C1A45209  24.340  18.750   4.250
 1946DPPE   C2A45210  24.090  18.610   4.610
 1946DPPE   C3A45211  23.980  18.460   4.880
 1946DPPE   C4A45212  23.940  18.580   5.330
 1946DPPE   C1B45213  24.390  19.460   4.380
 1946DPPE   C2B45214  24.280  19.790   4.680
 1946DPPE   C3B45215  23.970  19.820   5.080
 1946DPPE   C4B45216  23.830  19.940   5.410
 1947DPPE   NH345217   9.760  19.220  14.050
 1947DPPE   PO445218  10.130  19.170  14.320
 1947DPPE   GL145219   9.820  18.990  14.500
 1947DPPE   GL245220   9.890  18.750  14.760
 1947DPPE   C1A45221   9.370  18.930  14.650
 1947DPPE   C2A45222   9.120  19.040  14.960
 1947DPPE   C3A45223   8.910  19.100  15.360
 1947DPPE   C4A45224   8.550  19.420  15.480
 1947DPPE   C1B45225   9.760  18.980  15.080
 1947DPPE   C2B45226   9.390  18.900  15.350
 1947DPPE   C3B45227   9.070  18.880  15.720
 1947DPPE   C4B45228   8.960  18.840  16.140
 1948DPPE   NH345229  20.100  10.270  13.960
 1948DPPE   PO445230  20.340  10.280  13.530
 1948DPPE   GL145231  20.650  10.020  13.740
 1948DPPE   GL245232  20.610  10.280  13.960
 1948DPPE   C1A45233  20.820   9.800  14.000
 1948DPPE   C2A45234  20.950   9.530  14.370
 1948DPPE   C3A45235  21.120   9.270  14.780
 1948DPPE   C4A45236  20.900   9.060  15.180
 1948DPPE   C1B45237  20.990  10.360  13.960
 1948DPPE   C2B45238  21.380  10.240  14.140
 1948DPPE   C3B45239  21.630   9.890  14.200
 1948DPPE   C4B45240  21.970   9.750  14.520
 1949DPPE   NH345241  18.110  13.710  19.420
 1949DPPE   PO445242  17.860  13.450  19.660
 1949DPPE   GL145243  17.800  13.260  20.070
 1949DPPE   GL245244  18.070  13.160  20.180
 1949DPPE   C1A45245  17.700  12.780  20.250
 1949DPPE   C2A45246  17.840  12.570  20.680
 1949DPPE   C3A45247  18.050  12.200  20.960
 1949DPPE   C4A45248  18.250  11.900  21.220
 1949DPPE   C1B45249  18.270  12.760  20.350
 1949DPPE   C2B45250  18.390  12.480  20.690
 1949DPPE   C3B45251  18.430  12.550  21.040
 1949DPPE   C4B45252  18.520  12.960  21.150
 1950DPPE   NH345253   3.230  23.320  15.170
 1950DPPE   PO445254   2.840  23.220  15.380
 1950DPPE   GL145255   3.130  23.010  15.610
 1950DPPE   GL245256   3.400  23.200  15.630
 1950DPPE   C1A45257   3.400  22.780  15.820
 1950DPPE   C2A45258   3.390  22.370  16.030
 1950DPPE   C3A45259   3.700  22.030  16.060
 1950DPPE   C4A45260   4.070  21.700  16.060
 1950DPPE   C1B45261   3.780  23.070  15.940
 1950DPPE   C2B45262   4.220  22.990  16.050
 1950DPPE   C3B45263   4.500  22.930  15.910
 1950DPPE   C4B45264   4.740  22.740  15.590
 1951DPPE   NH345265  12.500  10.230  14.020
 1951DPPE   PO445266  12.740  10.110  14.370
 1951DPPE   GL145267  12.290  10.210  14.500
 1951DPPE   GL245268  12.090  10.330  14.270
 1951DPPE   C1A45269  12.040  10.470  14.770
 1951DPPE   C2A45270  11.850  10.740  15.030
 1951DPPE   C3A45271  12.090  11.010  15.130
 1951DPPE   C4A45272  11.970  11.030  15.490
 1951DPPE   C1B45273  11.580  10.270  14.370
 1951DPPE   C2B45274  11.400  10.250  14.750
 1951DPPE   C3B45275  11.670  10.330  15.030
 1951DPPE   C4B45276  12.000  10.100  15.190
 1952DPPE   NH345277  12.960  13.500  15.660
 1952DPPE   PO445278  12.510  13.400  15.640
 1952DPPE   GL145279  12.170  13.080  15.680
 1952DPPE   GL245280  12.410  12.840  15.810
 1952DPPE   C1A45281  11.940  12.700  15.860
 1952DPPE   C2A45282  11.560  12.480  16.090
 1952DPPE   C3A45283  11.190  12.250  16.110
 1952DPPE   C4A45284  10.860  12.300  16.310
 1952DPPE   C1B45285  12.510  12.480  16.120
 1952DPPE   C2B45286  12.340  12.420  16.550
 1952DPPE   C3B45287  12.060  12.140  16.690
 1952DPPE   C4B45288  11.810  11.750  16.780
 1953DPPE   NH345289  12.900  13.100  15.960
 1953DPPE   PO445290  12.750  13.410  16.130
 1953DPPE   GL145291  12.650  13.140  16.450
 1953DPPE   GL245292  12.650  12.900  16.350
 1953DPPE   C1A45293  12.370  12.950  16.770
 1953DPPE   C2A45294  11.930  12.910  16.920
 1953DPPE   C3A45295  11.520  12.880  16.840
 1953DPPE   C4A45296  11.150  12.850  16.940
 1953DPPE   C1B45297  12.210  12.820  16.270
 1953DPPE   C2B45298  11.820  12.560  16.520
 1953DPPE   C3B45299  11.620  12.160  16.460
 1953DPPE   C4B45300  11.650  11.930  16.100
 1954DPPE   NH345301  11.640  10.160  13.520
 1954DPPE   PO445302  11.420  10.360  13.210
 1954DPPE   GL145303  11.150  10.000  13.330
 1954DPPE   GL245304  11.210   9.950  13.650
 1954DPPE   C1A45305  10.900   9.620  13.410
 1954DPPE   C2A45306  10.650   9.320  13.250
 1954DPPE   C3A45307  10.430   9.050  13.270
 1954DPPE   C4A45308  10.120   9.080  13.470
 1954DPPE   C1B45309  10.920   9.830  13.950
 1954DPPE   C2B45310  10.740   9.580  14.330
 1954DPPE   C3B45311  10.830   9.160  14.340
 1954DPPE   C4B45312  10.790   8.880  14.020
 1955DPPE   NH345313  16.620  14.480  19.720
 1955DPPE   PO445314  16.390  14.110  19.420
 1955DPPE   GL145315  16.090  13.850  19.610
 1955DPPE   GL245316  16.300  13.600  19.720
 1955DPPE   C1A45317  15.990  13.720  20.060
 1955DPPE   C2A45318  16.110  13.620  20.480
 1955DPPE   C3A45319  16.020  13.210  20.800
 1955DPPE   C4A45320  16.230  13.030  21.130
 1955DPPE   C1B45321  16.310  13.320  20.060
 1955DPPE   C2B45322  16.180  13.150  20.350
 1955DPPE   C3B45323  15.740  12.980  20.440
 1955DPPE   C4B45324  15.510  13.020  20.830
 1956DPPE   NH345325   1.410  14.870  16.140
 1956DPPE   PO445326   1.280  15.340  16.190
 1956DPPE   GL145327   1.600  15.570  16.170
 1956DPPE   GL245328   1.680  15.610  16.470
 1956DPPE   C1A45329   2.050  15.710  16.120
 1956DPPE   C2A45330   2.180  15.960  16.510
 1956DPPE   C3A45331   2.110  16.210  16.790
 1956DPPE   C4A45332   2.030  16.450  17.070
 1956DPPE   C1B45333   1.870  15.700  16.900
 1956DPPE   C2B45334   2.250  15.740  17.110
 1956DPPE   C3B45335   2.710  15.800  17.130
 1956DPPE   C4B45336   3.120  16.160  17.010
 1957DPPE   NH345337  14.900  15.630  19.140
 1957DPPE   PO445338  14.930  16.090  19.010
 1957DPPE   GL145339  14.810  15.940  19.520
 1957DPPE   GL245340  14.950  16.100  19.750
 1957DPPE   C1A45341  14.480  15.830  19.800
 1957DPPE   C2A45342  14.360  15.590  19.960
 1957DPPE   C3A45343  14.080  15.680  20.240
 1957DPPE   C4A45344  14.010  15.730  20.720
 1957DPPE   C1B45345  14.720  16.230  20.200
 1957DPPE   C2B45346  14.430  16.070  20.490
 1957DPPE   C3B45347  14.550  16.060  20.890
 1957DPPE   C4B45348  14.890  15.870  21.200
 1958DPPE   NH345349  10.980  18.480  16.220
 1958DPPE   PO445350  10.990  18.020  16.170
 1958DPPE   GL145351  10.830  18.080  16.580
 1958DPPE   GL245352  10.580  18.190  16.430
 1958DPPE   C1A45353  10.760  18.360  17.040
 1958DPPE   C2A45354  10.590  18.410  17.360
 1958DPPE   C3A45355  10.240  18.380  17.610
 1958DPPE   C4A45356   9.850  18.460  17.890
 1958DPPE   C1B45357  10.410  18.140  16.790
 1958DPPE   C2B45358  10.120  18.040  17.160
 1958DPPE   C3B45359   9.960  17.940  17.550
 1958DPPE   C4B45360   9.680  17.980  17.860
 1959DPPE   NH345361  11.860  23.840  15.790
 1959DPPE   PO445362  12.180  24.110  15.890
 1959DPPE   GL145363  11.900  24.360  16.140
 1959DPPE   GL245364  11.640  24.270  16.050
 1959DPPE   C1A45365  11.740  24.870  16.250
 1959DPPE   C2A45366  11.700  25.220  16.160
 1959DPPE   C3A45367  11.360  25.350  16.020
 1959DPPE   C4A45368  11.130  25.770  16.100
 1959DPPE   C1B45369  11.420  24.430  16.310
 1959DPPE   C2B45370  11.460  24.610  16.580
 1959DPPE   C3B45371  11.270  24.890  16.680
 1959DPPE   C4B45372  11.220  25.330  16.500
 1960DPPE   NH345373  10.330  16.490  14.920
 1960DPPE   PO445374  10.590  16.080  15.140
 1960DPPE   GL145375  10.140  16.180  15.260
 1960DPPE   GL245376   9.820  15.960  15.210
 1960DPPE   C1A45377   9.840  16.460  15.430
 1960DPPE   C2A45378   9.420  16.690  15.520
 1960DPPE   C3A45379   9.350  17.050  15.830
 1960DPPE   C4A45380   9.720  17.300  15.950
 1960DPPE   C1B45381   9.590  16.090  15.640
 1960DPPE   C2B45382   9.460  15.990  16.110
 1960DPPE   C3B45383   9.420  15.940  16.590
 1960DPPE   C4B45384   9.250  16.140  16.920
 1961DPPE   NH345385   9.900  14.150  12.720
 1961DPPE   PO445386   9.750  14.510  12.500
 1961DPPE   GL145387   9.440  14.260  12.880
 1961DPPE   GL245388   9.440  13.910  12.710
 1961DPPE   C1A45389   9.130  14.130  13.310
 1961DPPE   C2A45390   9.140  14.240  13.680
 1961DPPE   C3A45391   9.430  14.560  13.890
 1961DPPE   C4A45392   9.340  15.020  13.740
 1961DPPE   C1B45393   9.010  13.920  12.870
 1961DPPE   C2B45394   8.600  13.760  13.020
 1961DPPE   C3B45395   8.260  13.630  13.280
 1961DPPE   C4B45396   7.930  13.370  13.280
 1962DPPE   NH345397  17.480  20.980  24.480
 1962DPPE   PO445398  17.690  21.230  24.200
 1962DPPE   GL145399  17.690  20.890  23.990
 1962DPPE   GL245400  17.470  20.710  24.000
 1962DPPE   C1A45401  17.440  20.890  23.520
 1962DPPE   C2A45402  17.310  20.830  23.100
 1962DPPE   C3A45403  17.150  20.600  22.840
 1962DPPE   C4A45404  17.210  20.310  22.610
 1962DPPE   C1B45405  17.140  20.710  23.900
 1962DPPE   C2B45406  16.960  20.650  23.420
 1962DPPE   C3B45407  16.710  20.420  23.150
 1962DPPE   C4B45408  16.510  20.200  22.880
 1963DPPE   NH345409   8.530  16.170  11.720
 1963DPPE   PO445410   8.390  15.800  11.560
 1963DPPE   GL145411   7.980  15.800  11.740
 1963DPPE   GL245412   7.620  15.920  11.700
 1963DPPE   C1A45413   7.770  15.970  12.170
 1963DPPE   C2A45414   7.610  15.810  12.700
 1963DPPE   C3A45415   7.750  15.690  13.070
 1963DPPE   C4A45416   7.800  15.880  13.410
 1963DPPE   C1B45417   7.220  15.910  11.650
 1963DPPE   C2B45418   6.760  15.660  11.740
 1963DPPE   C3B45419   6.410  15.800  11.900
 1963DPPE   C4B45420   5.980  15.820  11.820
 1964DPPE   NH345421  16.520  12.480  18.230
 1964DPPE   PO445422  16.990  12.380  18.270
 1964DPPE   GL145423  17.010  11.960  18.520
 1964DPPE   GL245424  16.770  11.740  18.510
 1964DPPE   C1A45425  16.940  11.710  18.970
 1964DPPE   C2A45426  16.920  11.400  19.320
 1964DPPE   C3A45427  17.000  10.990  19.390
 1964DPPE   C4A45428  16.850  10.620  19.470
 1964DPPE   C1B45429  16.550  11.400  18.750
 1964DPPE   C2B45430  16.230  11.170  19.030
 1964DPPE   C3B45431  15.990  10.790  19.310
 1964DPPE   C4B45432  15.810  10.520  19.560
 1965DPPE   NH345433  11.970  25.050   5.180
 1965DPPE   PO445434  11.740  24.990   5.560
 1965DPPE   GL145435  11.830  24.560   5.550
 1965DPPE   GL245436  11.490  24.480   5.480
 1965DPPE   C1A45437  12.000  24.230   5.830
 1965DPPE   C2A45438  12.120  24.130   6.210
 1965DPPE   C3A45439  12.210  23.870   6.570
 1965DPPE   C4A45440  12.270  23.830   7.050
 1965DPPE   C1B45441  11.340  24.310   5.810
 1965DPPE   C2B45442  11.490  24.050   6.090
 1965DPPE   C3B45443  11.810  23.750   6.220
 1965DPPE   C4B45444  12.040  23.410   6.300
 1966DPPE   NH345445  11.840  16.460  27.840
 1966DPPE   PO445446  12.230  16.270  27.940
 1966DPPE   GL145447  12.380  16.450  27.720
 1966DPPE   GL245448  12.190  16.420  27.420
 1966DPPE   C1A45449  12.660  16.730  27.460
 1966DPPE   C2A45450  13.030  16.540  27.160
 1966DPPE   C3A45451  13.150  16.310  26.820
 1966DPPE   C4A45452  13.350  16.150  26.420
 1966DPPE   C1B45453  12.240  16.510  26.960
 1966DPPE   C2B45454  11.890  16.460  26.570
 1966DPPE   C3B45455  12.090  16.460  26.040
 1966DPPE   C4B45456  12.520  16.320  25.950
 1967DPPE   NH345457   9.640  22.100  14.550
 1967DPPE   PO445458   9.850  22.020  14.070
 1967DPPE   GL145459   9.430  22.150  14.100
 1967DPPE   GL245460   9.210  22.210  13.860
 1967DPPE   C1A45461   9.120  22.380  14.340
 1967DPPE   C2A45462   8.770  22.650  14.420
 1967DPPE   C3A45463   8.610  23.060  14.400
 1967DPPE   C4A45464   8.450  23.500  14.390
 1967DPPE   C1B45465   8.810  22.410  13.950
 1967DPPE   C2B45466   8.560  22.730  14.000
 1967DPPE   C3B45467   8.190  22.900  14.020
 1967DPPE   C4B45468   7.950  23.310  14.000
 1968DPPE   NH345469   8.030  16.450  26.300
 1968DPPE   PO445470   8.240  16.100  26.490
 1968DPPE   GL145471   8.510  16.040  26.060
 1968DPPE   GL245472   8.540  15.790  25.820
 1968DPPE   C1A45473   8.960  15.980  25.950
 1968DPPE   C2A45474   9.350  16.030  25.860
 1968DPPE   C3A45475   9.590  16.360  25.810
 1968DPPE   C4A45476   9.480  16.750  25.610
 1968DPPE   C1B45477   8.600  16.120  25.510
 1968DPPE   C2B45478   8.380  16.280  25.230
 1968DPPE   C3B45479   8.010  16.190  25.060
 1968DPPE   C4B45480   7.770  15.880  25.170
 1969DPPE   NH345481   9.570  11.920  10.400
 1969DPPE   PO445482   9.690  12.190  10.600
 1969DPPE   GL145483   9.300  12.040  10.840
 1969DPPE   GL245484   9.110  12.230  11.040
 1969DPPE   C1A45485   8.920  12.010  10.540
 1969DPPE   C2A45486   8.510  11.790  10.450
 1969DPPE   C3A45487   8.150  11.540  10.350
 1969DPPE   C4A45488   7.820  11.410  10.040
 1969DPPE   C1B45489   8.840  11.790  11.000
 1969DPPE   C2B45490   8.470  11.500  10.980
 1969DPPE   C3B45491   8.220  11.150  11.010
 1969DPPE   C4B45492   7.960  11.020  11.270
 1970DPPE   NH345493  19.770  24.920  12.180
 1970DPPE   PO445494  19.980  24.800  12.460
 1970DPPE   GL145495  20.300  24.900  12.420
 1970DPPE   GL245496  20.410  24.910  12.740
 1970DPPE   C1A45497  20.510  25.330  12.230
 1970DPPE   C2A45498  20.320  25.680  12.280
 1970DPPE   C3A45499  20.280  25.880  12.600
 1970DPPE   C4A45500  20.060  26.110  12.960
 1970DPPE   C1B45501  20.770  25.260  12.810
 1970DPPE   C2B45502  20.700  25.730  12.670
 1970DPPE   C3B45503  20.630  26.080  12.410
 1970DPPE   C4B45504  20.450  26.430  12.540
 1971DPPE   NH345505   8.570  13.920  10.740
 1971DPPE   PO445506   8.620  14.100  11.120
 1971DPPE   GL145507   8.400  13.780  11.260
 1971DPPE   GL245508   8.440  13.510  11.460
 1971DPPE   C1A45509   8.080  13.500  11.010
 1971DPPE   C2A45510   7.800  13.120  10.950
 1971DPPE   C3A45511   7.490  12.940  10.830
 1971DPPE   C4A45512   7.010  12.890  10.940
 1971DPPE   C1B45513   8.180  13.630  11.770
 1971DPPE   C2B45514   7.810  13.540  11.910
 1971DPPE   C3B45515   7.740  13.020  11.890
 1971DPPE   C4B45516   7.390  12.690  11.920
 1972DPPE   NH345517   9.430  12.410  10.280
 1972DPPE   PO445518   9.100  12.410   9.890
 1972DPPE   GL145519   8.750  12.120   9.850
 1972DPPE   GL245520   8.530  12.040  10.060
 1972DPPE   C1A45521   8.440  11.930   9.550
 1972DPPE   C2A45522   8.150  11.760   9.140
 1972DPPE   C3A45523   7.820  11.460   9.150
 1972DPPE   C4A45524   7.490  11.120   8.990
 1972DPPE   C1B45525   8.070  11.950  10.010
 1972DPPE   C2B45526   7.960  11.690   9.620
 1972DPPE   C3B45527   7.530  11.480   9.610
 1972DPPE   C4B45528   7.120  11.520   9.730
 1973DPPE   NH345529   8.610  24.870  24.070
 1973DPPE   PO445530   8.710  24.480  24.230
 1973DPPE   GL145531   8.760  24.340  23.870
 1973DPPE   GL245532   9.120  24.320  23.930
 1973DPPE   C1A45533   8.880  24.030  23.580
 1973DPPE   C2A45534   9.200  23.930  23.300
 1973DPPE   C3A45535   9.520  23.740  23.090
 1973DPPE   C4A45536   9.980  23.810  23.050
 1973DPPE   C1B45537   9.280  23.860  23.880
 1973DPPE   C2B45538   9.290  23.520  23.460
 1973DPPE   C3B45539   9.030  23.220  23.290
 1973DPPE   C4B45540   8.820  23.010  23.080
 1974DPPE   NH345541   9.470  15.830  12.640
 1974DPPE   PO445542   9.670  15.910  13.010
 1974DPPE   GL145543   9.410  15.710  13.320
 1974DPPE   GL245544   9.330  15.740  13.590
 1974DPPE   C1A45545   9.050  15.330  13.350
 1974DPPE   C2A45546   8.810  15.010  13.520
 1974DPPE   C3A45547   8.870  14.660  13.830
 1974DPPE   C4A45548   8.800  14.380  14.040
 1974DPPE   C1B45549   9.150  15.630  13.960
 1974DPPE   C2B45550   8.890  15.250  13.990
 1974DPPE   C3B45551   8.470  15.090  13.900
 1974DPPE   C4B45552   8.060  14.920  14.170
 1975DPPE   NH345553   3.830  10.580  11.080
 1975DPPE   PO445554   3.800  11.030  11.030
 1975DPPE   GL145555   4.220  10.980  11.200
 1975DPPE   GL245556   4.550  10.940  11.060
 1975DPPE   C1A45557   4.310  11.340  11.550
 1975DPPE   C2A45558   4.450  11.610  11.770
 1975DPPE   C3A45559   4.260  11.770  12.220
 1975DPPE   C4A45560   4.290  11.940  12.670
 1975DPPE   C1B45561   4.800  11.340  11.310
 1975DPPE   C2B45562   4.920  11.780  11.350
 1975DPPE   C3B45563   4.970  11.950  10.940
 1975DPPE   C4B45564   5.270  12.260  10.740
 1976DPPE   NH345565  10.950  13.020  13.700
 1976DPPE   PO445566  11.260  12.800  13.380
 1976DPPE   GL145567  10.880  12.540  13.530
 1976DPPE   GL245568  10.900  12.230  13.390
 1976DPPE   C1A45569  10.410  12.700  13.420
 1976DPPE   C2A45570  10.110  12.660  13.680
 1976DPPE   C3A45571   9.730  12.540  14.030
 1976DPPE   C4A45572   9.260  12.330  14.070
 1976DPPE   C1B45573  10.520  12.180  13.620
 1976DPPE   C2B45574  10.480  12.340  14.020
 1976DPPE   C3B45575  10.100  12.320  14.230
 1976DPPE   C4B45576   9.670  12.110  14.310
 1977DPPE   NH345577  18.290   9.890  15.010
 1977DPPE   PO445578  17.900   9.860  14.950
 1977DPPE   GL145579  18.090   9.480  15.220
 1977DPPE   GL245580  18.090   9.550  15.580
 1977DPPE   C1A45581  18.160   9.090  15.340
 1977DPPE   C2A45582  18.390   8.910  15.620
 1977DPPE   C3A45583  18.250   8.600  15.840
 1977DPPE   C4A45584  18.380   8.530  16.270
 1977DPPE   C1B45585  18.060   9.120  15.890
 1977DPPE   C2B45586  18.260   8.990  16.120
 1977DPPE   C3B45587  18.320   8.950  16.580
 1977DPPE   C4B45588  18.520   8.870  16.920
 1978DPPE   NH345589   9.600  20.230  14.500
 1978DPPE   PO445590   9.960  20.120  14.700
 1978DPPE   GL145591   9.670  19.770  14.860
 1978DPPE   GL245592   9.640  19.450  14.820
 1978DPPE   C1A45593   9.860  19.510  15.260
 1978DPPE   C2A45594  10.160  19.590  15.580
 1978DPPE   C3A45595  10.270  19.830  15.920
 1978DPPE   C4A45596  10.490  20.070  16.130
 1978DPPE   C1B45597   9.380  19.440  15.220
 1978DPPE   C2B45598   9.130  19.450  15.620
 1978DPPE   C3B45599   8.940  19.320  15.900
 1978DPPE   C4B45600   8.630  19.070  15.870
 1979DPPE   NH345601  22.810  21.520  11.500
 1979DPPE   PO445602  23.200  21.530  11.370
 1979DPPE   GL145603  23.570  21.630  11.240
 1979DPPE   GL245604  23.660  21.740  10.920
 1979DPPE   C1A45605  23.940  21.600  11.410
 1979DPPE   C2A45606  24.370  21.560  11.550
 1979DPPE   C3A45607  24.760  21.690  11.770
 1979DPPE   C4A45608  25.140  21.990  11.980
 1979DPPE   C1B45609  23.930  21.950  11.110
 1979DPPE   C2B45610  24.050  22.310  11.290
 1979DPPE   C3B45611  24.390  22.760  11.360
 1979DPPE   C4B45612  24.670  22.910  11.600
 1980DPPE   NH345613   5.750  10.170  21.080
 1980DPPE   PO445614   5.690   9.710  21.070
 1980DPPE   GL145615   6.040   9.910  20.700
 1980DPPE   GL245616   6.270   9.790  20.670
 1980DPPE   C1A45617   6.150  10.190  20.350
 1980DPPE   C2A45618   6.400  10.260  19.990
 1980DPPE   C3A45619   6.710  10.230  19.760
 1980DPPE   C4A45620   7.120  10.430  19.830
 1980DPPE   C1B45621   6.530   9.840  20.260
 1980DPPE   C2B45622   6.680   9.700  19.900
 1980DPPE   C3B45623   7.010   9.500  19.780
 1980DPPE   C4B45624   7.450   9.150  19.800
 1981DPPE   NH345625  15.520  23.650  24.520
 1981DPPE   PO445626  15.750  23.800  24.150
 1981DPPE   GL145627  15.390  23.570  24.080
 1981DPPE   GL245628  15.230  23.860  23.900
 1981DPPE   C1A45629  15.430  23.410  23.660
 1981DPPE   C2A45630  15.460  23.030  23.430
 1981DPPE   C3A45631  15.170  22.710  23.270
 1981DPPE   C4A45632  14.800  22.810  23.050
 1981DPPE   C1B45633  14.740  23.710  23.900
 1981DPPE   C2B45634  14.380  23.340  23.990
 1981DPPE   C3B45635  14.290  22.860  23.840
 1981DPPE   C4B45636  14.360  22.470  23.610
 1982DPPE   NH345637  19.400  10.160  14.330
 1982DPPE   PO445638  19.870  10.220  14.380
 1982DPPE   GL145639  19.970   9.850  14.560
 1982DPPE   GL245640  19.790   9.730  14.460
 1982DPPE   C1A45641  20.100   9.660  14.920
 1982DPPE   C2A45642  20.210   9.270  15.170
 1982DPPE   C3A45643  20.140   9.070  15.650
 1982DPPE   C4A45644  20.160   8.650  15.990
 1982DPPE   C1B45645  19.960   9.250  14.580
 1982DPPE   C2B45646  19.960   8.880  14.900
 1982DPPE   C3B45647  20.080   8.550  15.260
 1982DPPE   C4B45648  20.360   8.600  15.550
 1983DPPE   NH345649   9.510  11.110  25.500
 1983DPPE   PO445650   9.950  10.910  25.490
 1983DPPE   GL145651  10.360  11.080  25.240
 1983DPPE   GL245652  10.590  11.340  25.370
 1983DPPE   C1A45653  10.780  11.210  24.870
 1983DPPE   C2A45654  10.760  11.600  24.710
 1983DPPE   C3A45655  10.510  12.070  24.690
 1983DPPE   C4A45656  10.270  12.180  25.030
 1983DPPE   C1B45657  10.940  11.400  25.330
 1983DPPE   C2B45658  11.170  11.630  25.070
 1983DPPE   C3B45659  11.250  11.760  24.590
 1983DPPE   C4B45660  10.970  11.680  24.220
 1984DPPE   NH345661  11.800  18.230   6.000
 1984DPPE   PO445662  12.220  18.190   5.880
 1984DPPE   GL145663  11.950  18.180   5.530
 1984DPPE   GL245664  11.860  17.890   5.560
 1984DPPE   C1A45665  11.610  18.330   5.420
 1984DPPE   C2A45666  11.400  18.280   5.110
 1984DPPE   C3A45667  11.100  18.350   4.820
 1984DPPE   C4A45668  10.840  18.190   4.420
 1984DPPE   C1B45669  11.710  17.900   5.140
 1984DPPE   C2B45670  11.440  17.930   4.780
 1984DPPE   C3B45671  11.370  17.820   4.380
 1984DPPE   C4B45672  11.350  17.440   4.110
 1985DPPE   NH345673  21.560  16.280   1.080
 1985DPPE   PO445674  21.450  15.860   0.950
 1985DPPE   GL145675  21.210  15.880   1.240
 1985DPPE   GL245676  21.210  15.500   1.330
 1985DPPE   C1A45677  21.150  15.870   1.720
 1985DPPE   C2A45678  21.220  15.920   2.120
 1985DPPE   C3A45679  20.940  15.760   2.340
 1985DPPE   C4A45680  20.540  15.880   2.430
 1985DPPE   C1B45681  21.080  15.340   1.690
 1985DPPE   C2B45682  20.710  15.500   1.930
 1985DPPE   C3B45683  20.250  15.500   2.070
 1985DPPE   C4B45684  20.050  15.520   1.740
 1986DPPE   NH345685  25.710  24.390   7.140
 1986DPPE   PO445686  25.240  24.420   7.400
 1986DPPE   GL145687  24.810  24.270   7.400
 1986DPPE   GL245688  24.970  23.990   7.540
 1986DPPE   C1A45689  24.430  24.020   7.260
 1986DPPE   C2A45690  24.060  23.920   7.340
 1986DPPE   C3A45691  23.730  24.010   7.180
 1986DPPE   C4A45692  23.330  24.170   7.190
 1986DPPE   C1B45693  24.810  23.900   7.960
 1986DPPE   C2B45694  24.700  23.690   8.360
 1986DPPE   C3B45695  25.010  23.590   8.760
 1986DPPE   C4B45696  24.880  23.340   9.150
 1987DPPE   NH345697  18.690  16.180  20.150
 1987DPPE   PO445698  18.640  16.630  19.920
 1987DPPE   GL145699  18.750  16.640  20.320
 1987DPPE   GL245700  18.630  16.930  20.550
 1987DPPE   C1A45701  19.090  16.510  20.700
 1987DPPE   C2A45702  19.480  16.640  21.070
 1987DPPE   C3A45703  19.760  16.890  21.340
 1987DPPE   C4A45704  19.970  16.770  21.710
 1987DPPE   C1B45705  18.970  16.960  20.880
 1987DPPE   C2B45706  18.810  17.080  21.310
 1987DPPE   C3B45707  18.870  17.310  21.680
 1987DPPE   C4B45708  19.270  17.720  21.870
 1988DPPE   NH345709  11.580  14.280  15.280
 1988DPPE   PO445710  11.650  13.910  15.580
 1988DPPE   GL145711  11.230  13.760  15.730
 1988DPPE   GL245712  11.110  13.500  15.480
 1988DPPE   C1A45713  10.860  13.630  15.940
 1988DPPE   C2A45714  10.530  13.560  16.220
 1988DPPE   C3A45715  10.250  13.770  16.500
 1988DPPE   C4A45716   9.940  13.870  16.680
 1988DPPE   C1B45717  10.920  13.200  15.630
 1988DPPE   C2B45718  10.680  12.840  15.740
 1988DPPE   C3B45719  10.530  12.680  16.170
 1988DPPE   C4B45720  10.210  12.690  16.450
 1989DPPE   NH345721  24.920  14.590   4.350
 1989DPPE   PO445722  25.310  14.510   4.500
 1989DPPE   GL145723  24.990  14.610   4.910
 1989DPPE   GL245724  24.730  14.350   4.970
 1989DPPE   C1A45725  24.630  14.850   5.140
 1989DPPE   C2A45726  24.180  14.700   5.190
 1989DPPE   C3A45727  23.720  14.710   5.280
 1989DPPE   C4A45728  23.290  14.620   5.400
 1989DPPE   C1B45729  24.830  13.960   5.250
 1989DPPE   C2B45730  24.630  13.960   5.600
 1989DPPE   C3B45731  24.400  14.140   5.950
 1989DPPE   C4B45732  24.360  14.420   6.190
 1990DPPE   NH345733  11.320  15.560  16.380
 1990DPPE   PO445734  11.120  15.680  15.900
 1990DPPE   GL145735  10.820  15.490  16.210
 1990DPPE   GL245736  10.650  15.320  15.990
 1990DPPE   C1A45737  10.440  15.380  16.530
 1990DPPE   C2A45738  10.010  15.460  16.820
 1990DPPE   C3A45739   9.510  15.210  16.840
 1990DPPE   C4A45740   9.370  14.770  16.950
 1990DPPE   C1B45741  10.720  14.950  16.290
 1990DPPE   C2B45742  10.570  14.840  16.670
 1990DPPE   C3B45743  10.280  14.730  17.000
 1990DPPE   C4B45744  10.330  14.900  17.460
 1991DPPE   NH345745  12.270  12.550   5.910
 1991DPPE   PO445746  12.230  12.910   5.700
 1991DPPE   GL145747  12.090  12.600   5.430
 1991DPPE   GL245748  11.840  12.500   5.640
 1991DPPE   C1A45749  11.880  12.230   5.170
 1991DPPE   C2A45750  11.490  12.050   5.160
 1991DPPE   C3A45751  11.310  12.030   4.860
 1991DPPE   C4A45752  11.360  12.080   4.390
 1991DPPE   C1B45753  11.390  12.540   5.390
 1991DPPE   C2B45754  11.020  12.290   5.290
 1991DPPE   C3B45755  10.640  12.050   5.490
 1991DPPE   C4B45756  10.600  12.210   5.900
 1992DPPE   NH345757  14.050  12.310  16.150
 1992DPPE   PO445758  14.510  12.320  16.090
 1992DPPE   GL145759  14.430  12.280  16.530
 1992DPPE   GL245760  14.040  12.280  16.630
 1992DPPE   C1A45761  14.410  12.160  17.000
 1992DPPE   C2A45762  14.170  12.410  17.340
 1992DPPE   C3A45763  14.200  12.440  17.750
 1992DPPE   C4A45764  14.240  12.760  18.060
 1992DPPE   C1B45765  13.860  12.150  17.070
 1992DPPE   C2B45766  13.900  12.020  17.500
 1992DPPE   C3B45767  13.810  12.120  17.960
 1992DPPE   C4B45768  14.220  12.300  18.300
 1993DPPE   NH345769  13.060  15.050  17.980
 1993DPPE   PO445770  13.210  15.400  18.160
 1993DPPE   GL145771  12.910  15.380  18.590
 1993DPPE   GL245772  12.580  15.540  18.500
 1993DPPE   C1A45773  12.660  15.260  18.870
 1993DPPE   C2A45774  12.290  15.110  19.030
 1993DPPE   C3A45775  12.200  14.850  19.330
 1993DPPE   C4A45776  11.880  14.590  19.340
 1993DPPE   C1B45777  12.150  15.500  18.720
 1993DPPE   C2B45778  11.660  15.660  18.600
 1993DPPE   C3B45779  11.240  15.830  18.750
 1993DPPE   C4B45780  10.880  15.810  18.490
 1994DPPE   NH345781   6.070  12.750  23.400
 1994DPPE   PO445782   6.310  12.970  23.630
 1994DPPE   GL145783   6.610  13.050  23.360
 1994DPPE   GL245784   6.510  12.790  23.170
 1994DPPE   C1A45785   6.970  13.320  23.220
 1994DPPE   C2A45786   7.180  13.460  22.840
 1994DPPE   C3A45787   7.490  13.630  22.610
 1994DPPE   C4A45788   7.760  13.900  22.460
 1994DPPE   C1B45789   6.930  12.880  22.980
 1994DPPE   C2B45790   7.310  12.930  22.960
 1994DPPE   C3B45791   7.810  12.800  23.000
 1994DPPE   C4B45792   8.010  12.730  23.440
 1995DPPE   NH345793  12.510  26.080  22.060
 1995DPPE   PO445794  12.090  26.240  22.040
 1995DPPE   GL145795  12.140  25.820  21.850
 1995DPPE   GL245796  11.940  25.730  22.150
 1995DPPE   C1A45797  12.050  25.620  21.510
 1995DPPE   C2A45798  11.890  25.430  21.060
 1995DPPE   C3A45799  11.870  24.930  20.990
 1995DPPE   C4A45800  12.190  24.620  21.250
 1995DPPE   C1B45801  11.660  25.620  21.880
 1995DPPE   C2B45802  11.740  25.160  21.590
 1995DPPE   C3B45803  11.630  24.760  21.510
 1995DPPE   C4B45804  11.290  24.460  21.490
 1996DPPE   NH345805   9.170  13.960  11.890
 1996DPPE   PO445806   9.280  13.540  11.810
 1996DPPE   GL145807   9.140  13.430  12.240
 1996DPPE   GL245808   9.090  13.690  12.310
 1996DPPE   C1A45809   9.040  13.160  12.500
 1996DPPE   C2A45810   9.130  12.840  12.730
 1996DPPE   C3A45811   9.320  12.410  12.610
 1996DPPE   C4A45812   9.170  12.040  12.440
 1996DPPE   C1B45813   8.760  13.680  12.520
 1996DPPE   C2B45814   8.470  13.390  12.770
 1996DPPE   C3B45815   8.560  12.920  12.670
 1996DPPE   C4B45816   8.310  12.480  12.860
 1997DPPE   NH345817  21.860  11.710   2.750
 1997DPPE   PO445818  22.030  11.280   2.890
 1997DPPE   GL145819  21.770  11.390   3.250
 1997DPPE   GL245820  21.740  11.690   3.280
 1997DPPE   C1A45821  21.460  11.240   3.700
 1997DPPE   C2A45822  21.060  10.990   3.770
 1997DPPE   C3A45823  20.680  10.930   4.050
 1997DPPE   C4A45824  20.350  10.670   4.130
 1997DPPE   C1B45825  21.880  12.110   3.480
 1997DPPE   C2B45826  22.020  12.460   3.680
 1997DPPE   C3B45827  22.170  12.750   3.930
 1997DPPE   C4B45828  22.340  13.220   3.950
 1998DPPE   NH345829  10.650  23.120  15.580
 1998DPPE   PO445830  10.670  22.730  15.750
 1998DPPE   GL145831  10.380  22.790  16.070
 1998DPPE   GL245832  10.220  23.040  15.840
 1998DPPE   C1A45833  10.080  23.060  16.310
 1998DPPE   C2A45834   9.710  23.190  16.420
 1998DPPE   C3A45835   9.340  23.500  16.450
 1998DPPE   C4A45836   9.060  23.940  16.460
 1998DPPE   C1B45837  10.060  23.360  15.800
 1998DPPE   C2B45838   9.910  23.530  16.130
 1998DPPE   C3B45839   9.730  23.790  16.460
 1998DPPE   C4B45840   9.540  23.940  16.790
 1999DPPE   NH345841  14.070  17.400  19.310
 1999DPPE   PO445842  13.890  17.750  18.950
 1999DPPE   GL145843  13.800  17.940  19.260
 1999DPPE   GL245844  13.920  17.960  19.640
 1999DPPE   C1A45845  13.400  17.970  19.540
 1999DPPE   C2A45846  13.130  17.750  19.810
 1999DPPE   C3A45847  12.950  17.700  20.270
 1999DPPE   C4A45848  12.980  17.910  20.670
 1999DPPE   C1B45849  13.730  17.980  19.960
 1999DPPE   C2B45850  13.480  17.780  20.300
 1999DPPE   C3B45851  13.330  17.490  20.600
 1999DPPE   C4B45852  13.280  17.340  21.000
 2000DPPE   NH345853  14.500  11.040  16.210
 2000DPPE   PO445854  14.520  10.600  16.270
 2000DPPE   GL145855  14.660  10.390  16.560
 2000DPPE   GL245856  14.410  10.270  16.730
 2000DPPE   C1A45857  14.700   9.900  16.770
 2000DPPE   C2A45858  14.430   9.650  16.700
 2000DPPE   C3A45859  14.130   9.570  16.890
 2000DPPE   C4A45860  13.980   9.550  17.320
 2000DPPE   C1B45861  14.400  10.170  17.100
 2000DPPE   C2B45862  14.520   9.800  17.250
 2000DPPE   C3B45863  14.770   9.600  17.520
 2000DPPE   C4B45864  15.170   9.640  17.600
 2001DPPE   NH345865  13.730  18.890  19.100
 2001DPPE   PO445866  13.910  19.330  19.100
 2001DPPE   GL145867  13.820  19.700  19.290
 2001DPPE   GL245868  13.990  19.910  19.250
 2001DPPE   C1A45869  13.460  19.730  19.560
 2001DPPE   C2A45870  13.160  19.460  19.810
 2001DPPE   C3A45871  12.920  19.280  19.730
 2001DPPE   C4A45872  12.510  19.090  19.820
 2001DPPE   C1B45873  13.790  20.080  19.610
 2001DPPE   C2B45874  13.660  20.340  19.940
 2001DPPE   C3B45875  13.260  20.660  19.890
 2001DPPE   C4B45876  13.040  21.010  20.000
 2002DPPE   NH345877  14.800  19.250  19.310
 2002DPPE   PO445878  14.860  18.950  19.570
 2002DPPE   GL145879  14.830  19.230  19.970
 2002DPPE   GL245880  14.610  19.530  19.920
 2002DPPE   C1A45881  14.540  19.280  20.330
 2002DPPE   C2A45882  14.440  19.240  20.820
 2002DPPE   C3A45883  14.270  19.550  21.150
 2002DPPE   C4A45884  14.140  19.580  21.580
 2002DPPE   C1B45885  14.330  19.740  20.160
 2002DPPE   C2B45886  13.950  19.970  20.100
 2002DPPE   C3B45887  13.550  19.860  20.090
 2002DPPE   C4B45888  13.160  19.620  20.250
 2003DPPE   NH345889  13.430   5.050  17.730
 2003DPPE   PO445890  13.150   4.920  17.420
 2003DPPE   GL145891  13.020   5.280  17.560
 2003DPPE   GL245892  13.120   5.620  17.540
 2003DPPE   C1A45893  12.740   5.380  17.830
 2003DPPE   C2A45894  12.760   5.410  18.230
 2003DPPE   C3A45895  12.820   5.420  18.660
 2003DPPE   C4A45896  12.770   5.680  19.020
 2003DPPE   C1B45897  12.920   5.990  17.660
 2003DPPE   C2B45898  13.060   6.410  17.750
 2003DPPE   C3B45899  13.190   6.760  17.860
 2003DPPE   C4B45900  13.510   7.140  18.040
 2004DPPE   NH345901   4.600  13.870   8.870
 2004DPPE   PO445902   4.330  13.750   9.160
 2004DPPE   GL145903   4.630  13.880   9.400
 2004DPPE   GL245904   4.620  14.140   9.620
 2004DPPE   C1A45905   5.010  13.760   9.590
 2004DPPE   C2A45906   5.330  13.730   9.640
 2004DPPE   C3A45907   5.740  13.620   9.690
 2004DPPE   C4A45908   5.980  13.570  10.040
 2004DPPE   C1B45909   5.080  14.240   9.530
 2004DPPE   C2B45910   5.400  14.600   9.200
 2004DPPE   C3B45911   5.840  14.640   9.110
 2004DPPE   C4B45912   6.010  14.960   8.910
 2005DPPE   NH345913  11.790  27.110   8.600
 2005DPPE   PO445914  12.080  27.210   8.330
 2005DPPE   GL145915  12.260  26.920   8.370
 2005DPPE   GL245916  12.260  26.730   8.170
 2005DPPE   C1A45917  12.330  26.590   8.670
 2005DPPE   C2A45918  12.420  26.360   9.080
 2005DPPE   C3A45919  12.670  26.180   9.370
 2005DPPE   C4A45920  12.830  25.710   9.400
 2005DPPE   C1B45921  12.470  26.390   8.270
 2005DPPE   C2B45922  12.960  26.260   8.130
 2005DPPE   C3B45923  13.260  26.540   8.110
 2005DPPE   C4B45924  13.500  26.890   7.860
 2006DPPE   NH345925   8.990  15.520  11.890
 2006DPPE   PO445926   8.770  15.790  11.960
 2006DPPE   GL145927   8.300  15.780  12.110
 2006DPPE   GL245928   8.290  16.110  12.210
 2006DPPE   C1A45929   7.980  15.520  12.260
 2006DPPE   C2A45930   7.640  15.370  12.380
 2006DPPE   C3A45931   7.210  15.400  12.510
 2006DPPE   C4A45932   6.800  15.230  12.610
 2006DPPE   C1B45933   8.150  15.930  12.600
 2006DPPE   C2B45934   7.880  16.130  12.940
 2006DPPE   C3B45935   7.970  16.330  13.280
 2006DPPE   C4B45936   8.190  16.640  13.460
 2007DPPE   NH345937  15.240  14.140  17.950
 2007DPPE   PO445938  15.450  13.950  18.280
 2007DPPE   GL145939  15.020  13.810  18.340
 2007DPPE   GL245940  14.950  14.190  18.470
 2007DPPE   C1A45941  14.630  13.860  18.160
 2007DPPE   C2A45942  14.290  13.920  18.360
 2007DPPE   C3A45943  13.930  13.830  18.630
 2007DPPE   C4A45944  13.720  13.600  18.870
 2007DPPE   C1B45945  14.580  14.290  18.820
 2007DPPE   C2B45946  14.350  13.920  19.010
 2007DPPE   C3B45947  14.010  13.800  19.270
 2007DPPE   C4B45948  13.830  13.490  19.540
 2008DPPE   NH345949  13.880   9.390   9.760
 2008DPPE   PO445950  14.110   9.420   9.350
 2008DPPE   GL145951  14.120   8.960   9.500
 2008DPPE   GL245952  13.920   8.830   9.750
 2008DPPE   C1A45953  14.280   8.520   9.330
 2008DPPE   C2A45954  14.370   8.320   8.970
 2008DPPE   C3A45955  14.120   7.940   8.850
 2008DPPE   C4A45956  13.920   7.560   8.910
 2008DPPE   C1B45957  13.890   8.320   9.530
 2008DPPE   C2B45958  13.680   7.940   9.550
 2008DPPE   C3B45959  13.600   7.600   9.440
 2008DPPE   C4B45960  13.430   7.390   9.140
 2009DPPE   NH345961   2.630  21.270  20.000
 2009DPPE   PO445962   2.460  21.700  19.920
 2009DPPE   GL145963   2.780  21.660  19.630
 2009DPPE   GL245964   2.820  21.530  19.230
 2009DPPE   C1A45965   3.240  21.770  19.490
 2009DPPE   C2A45966   3.670  21.810  19.330
 2009DPPE   C3A45967   4.030  21.620  19.220
 2009DPPE   C4A45968   4.350  21.580  18.920
 2009DPPE   C1B45969   3.310  21.580  19.060
 2009DPPE   C2B45970   3.750  21.550  18.740
 2009DPPE   C3B45971   4.030  21.750  18.540
 2009DPPE   C4B45972   4.050  22.190  18.450
 2010DPPE   NH345973  16.720  13.750  19.490
 2010DPPE   PO445974  16.940  14.070  19.600
 2010DPPE   GL145975  17.050  13.840  19.970
 2010DPPE   GL245976  16.860  13.680  20.100
 2010DPPE   C1A45977  17.370  13.600  20.180
 2010DPPE   C2A45978  17.480  13.340  20.480
 2010DPPE   C3A45979  17.770  13.070  20.630
 2010DPPE   C4A45980  18.170  12.980  20.810
 2010DPPE   C1B45981  17.070  13.680  20.540
 2010DPPE   C2B45982  17.080  13.450  20.870
 2010DPPE   C3B45983  17.430  13.170  21.050
 2010DPPE   C4B45984  17.740  12.920  21.130
 2011DPPE   NH345985  13.180  16.150  17.900
 2011DPPE   PO445986  13.350  15.950  18.260
 2011DPPE   GL145987  13.070  15.820  18.610
 2011DPPE   GL245988  13.450  15.750  18.790
 2011DPPE   C1A45989  12.800  15.750  18.910
 2011DPPE   C2A45990  12.430  15.630  19.130
 2011DPPE   C3A45991  12.110  15.840  19.500
 2011DPPE   C4A45992  11.680  15.940  19.700
 2011DPPE   C1B45993  13.230  15.450  19.060
 2011DPPE   C2B45994  13.150  15.330  19.530
 2011DPPE   C3B45995  13.050  14.950  19.850
 2011DPPE   C4B45996  12.850  14.950  20.240
 2012DPPE   NH345997  25.090  10.290  15.830
 2012DPPE   PO445998  25.380  10.620  15.810
 2012DPPE   GL145999  25.220  10.690  15.370
 2012DPPE   GL246000  25.240  11.000  15.340
 2012DPPE   C1A46001  24.900  10.720  15.050
 2012DPPE   C2A46002  24.740  11.040  14.960
 2012DPPE   C3A46003  24.480  11.380  15.040
 2012DPPE   C4A46004  24.210  11.680  14.940
 2012DPPE   C1B46005  24.860  11.330  15.400
 2012DPPE   C2B46006  24.830  11.750  15.350
 2012DPPE   C3B46007  24.370  11.870  15.350
 2012DPPE   C4B46008  24.010  12.060  15.250
 2013DPPE   NH346009   9.100   8.500   6.900
 2013DPPE   PO446010   9.020   8.520   7.410
 2013DPPE   GL146011   8.910   8.910   7.540
 2013DPPE   GL246012   8.850   9.070   7.320
 2013DPPE   C1A46013   9.010   9.330   7.710
 2013DPPE   C2A46014   9.110   9.650   7.750
 2013DPPE   C3A46015   9.330   9.890   7.910
 2013DPPE   C4A46016   9.360  10.270   8.140
 2013DPPE   C1B46017   9.150   9.390   7.210
 2013DPPE   C2B46018   9.360   9.750   7.310
 2013DPPE   C3B46019   9.710   9.980   7.410
 2013DPPE   C4B46020   9.890  10.300   7.200
 2014DPPE   NH346021  22.790  18.820  15.970
 2014DPPE   PO446022  22.800  19.100  16.290
 2014DPPE   GL146023  23.210  18.780  16.210
 2014DPPE   GL246024  23.400  18.640  15.970
 2014DPPE   C1A46025  23.690  18.640  16.410
 2014DPPE   C2A46026  24.120  18.700  16.440
 2014DPPE   C3A46027  24.520  18.890  16.600
 2014DPPE   C4A46028  24.850  18.920  16.900
 2014DPPE   C1B46029  23.830  18.800  15.930
 2014DPPE   C2B46030  24.220  18.610  15.890
 2014DPPE   C3B46031  24.520  18.180  15.860
 2014DPPE   C4B46032  24.700  18.040  16.190
 2015DPPE   NH346033  18.560   9.410  21.840
 2015DPPE   PO446034  18.280   9.150  21.890
 2015DPPE   GL146035  18.080   9.460  21.640
 2015DPPE   GL246036  18.260   9.590  21.320
 2015DPPE   C1A46037  17.850   9.810  21.620
 2015DPPE   C2A46038  17.630  10.260  21.580
 2015DPPE   C3A46039  17.720  10.730  21.490
 2015DPPE   C4A46040  18.080  11.030  21.350
 2015DPPE   C1B46041  17.890   9.670  20.950
 2015DPPE   C2B46042  17.610   9.910  20.860
 2015DPPE   C3B46043  17.310  10.140  20.700
 2015DPPE   C4B46044  17.060  10.560  20.780
 2016DPPE   NH346045  17.980  20.490  20.350
 2016DPPE   PO446046  18.170  20.560  20.070
 2016DPPE   GL146047  18.470  20.550  20.420
 2016DPPE   GL246048  18.280  20.320  20.670
 2016DPPE   C1A46049  18.720  20.600  20.750
 2016DPPE   C2A46050  18.800  20.700  21.110
 2016DPPE   C3A46051  18.600  20.450  21.510
 2016DPPE   C4A46052  18.580  20.210  21.860
 2016DPPE   C1B46053  18.310  20.520  21.100
 2016DPPE   C2B46054  18.070  20.750  21.310
 2016DPPE   C3B46055  18.210  20.720  21.670
 2016DPPE   C4B46056  18.440  20.700  22.000
 2017DPPE   NH346057   6.270  12.450  23.810
 2017DPPE   PO446058   6.510  12.070  23.660
 2017DPPE   GL146059   6.750  12.020  23.470
 2017DPPE   GL246060   6.630  11.770  23.210
 2017DPPE   C1A46061   7.080  11.900  23.140
 2017DPPE   C2A46062   7.230  11.780  22.810
 2017DPPE   C3A46063   7.570  11.820  22.600
 2017DPPE   C4A46064   8.010  11.890  22.370
 2017DPPE   C1B46065   6.730  11.950  22.830
 2017DPPE   C2B46066   6.990  12.120  22.520
 2017DPPE   C3B46067   7.220  12.270  22.250
 2017DPPE   C4B46068   7.620  12.300  22.200
 2018DPPE   NH346069  19.240  24.960  14.420
 2018DPPE   PO446070  19.630  25.070  14.570
 2018DPPE   GL146071  19.980  25.290  14.510
 2018DPPE   GL246072  19.990  25.440  14.810
 2018DPPE   C1A46073  20.170  25.690  14.390
 2018DPPE   C2A46074  20.070  26.150  14.360
 2018DPPE   C3A46075  20.290  26.560  14.450
 2018DPPE   C4A46076  20.330  26.890  14.730
 2018DPPE   C1B46077  20.080  25.930  14.840
 2018DPPE   C2B46078  20.430  26.210  14.780
 2018DPPE   C3B46079  20.440  26.470  14.990
 2018DPPE   C4B46080  20.310  26.790  15.270
 2019DPPE   NH346081   6.180   7.160  12.090
 2019DPPE   PO446082   6.090   7.530  11.840
 2019DPPE   GL146083   6.490   7.770  11.900
 2019DPPE   GL246084   6.680   7.960  11.720
 2019DPPE   C1A46085   6.640   7.930  12.230
 2019DPPE   C2A46086   6.880   7.860  12.570
 2019DPPE   C3A46087   6.800   7.690  12.850
 2019DPPE   C4A46088   6.720   7.340  13.090
 2019DPPE   C1B46089   6.760   8.350  11.720
 2019DPPE   C2B46090   7.050   8.640  11.840
 2019DPPE   C3B46091   7.480   8.700  11.910
 2019DPPE   C4B46092   7.590   8.920  12.200
 2020DPPE   NH346093   3.390  15.210  10.170
 2020DPPE   PO446094   3.460  15.500  10.460
 2020DPPE   GL146095   3.880  15.500  10.650
 2020DPPE   GL246096   4.090  15.780  10.600
 2020DPPE   C1A46097   4.160  15.180  10.650
 2020DPPE   C2A46098   4.670  15.120  10.510
 2020DPPE   C3A46099   5.020  15.150  10.820
 2020DPPE   C4A46100   5.080  15.180  11.250
 2020DPPE   C1B46101   4.510  15.550  10.680
 2020DPPE   C2B46102   4.560  15.200  10.990
 2020DPPE   C3B46103   4.710  14.880  11.270
 2020DPPE   C4B46104   5.060  14.660  11.410
 2021DPPE   NH346105  11.050  16.700   6.860
 2021DPPE   PO446106  11.220  16.610   6.500
 2021DPPE   GL146107  10.870  16.850   6.310
 2021DPPE   GL246108  10.630  16.790   6.570
 2021DPPE   C1A46109  10.690  16.910   5.830
 2021DPPE   C2A46110  10.440  17.100   5.490
 2021DPPE   C3A46111  10.020  17.030   5.240
 2021DPPE   C4A46112   9.710  17.210   5.120
 2021DPPE   C1B46113  10.390  16.890   6.240
 2021DPPE   C2B46114  10.250  16.630   5.820
 2021DPPE   C3B46115   9.870  16.780   5.630
 2021DPPE   C4B46116   9.550  17.070   5.560
 2022DPPE   NH346117   5.540  17.670  23.860
 2022DPPE   PO446118   5.420  18.100  23.930
 2022DPPE   GL146119   5.850  18.150  23.970
 2022DPPE   GL246120   6.030  17.830  23.840
 2022DPPE   C1A46121   6.120  18.290  23.760
 2022DPPE   C2A46122   6.560  18.320  23.590
 2022DPPE   C3A46123   7.000  18.200  23.560
 2022DPPE   C4A46124   7.320  18.080  23.690
 2022DPPE   C1B46125   6.470  17.860  23.680
 2022DPPE   C2B46126   6.520  18.010  23.230
 2022DPPE   C3B46127   6.380  18.360  23.060
 2022DPPE   C4B46128   6.490  18.760  23.350
 2023DPPE   NH346129  14.200  28.480   9.470
 2023DPPE   PO446130  14.200  28.440   9.000
 2023DPPE   GL146131  14.470  28.190   9.160
 2023DPPE   GL246132  14.750  28.130   9.020
 2023DPPE   C1A46133  14.650  27.890   9.480
 2023DPPE   C2A46134  14.620  27.610   9.800
 2023DPPE   C3A46135  14.780  27.210   9.930
 2023DPPE   C4A46136  15.180  26.950  10.080
 2023DPPE   C1B46137  15.070  27.900   9.170
 2023DPPE   C2B46138  15.190  27.610   9.500
 2023DPPE   C3B46139  15.430  27.310   9.770
 2023DPPE   C4B46140  15.580  27.290  10.160
 2024DPPE   NH346141  24.870  24.460  17.040
 2024DPPE   PO446142  24.840  24.600  16.690
 2024DPPE   GL146143  24.580  24.570  16.360
 2024DPPE   GL246144  24.340  24.370  16.290
 2024DPPE   C1A46145  24.600  24.590  15.960
 2024DPPE   C2A46146  24.240  24.500  15.690
 2024DPPE   C3A46147  24.080  24.490  15.360
 2024DPPE   C4A46148  23.940  24.720  15.060
 2024DPPE   C1B46149  24.130  24.050  16.090
 2024DPPE   C2B46150  23.840  24.110  15.700
 2024DPPE   C3B46151  23.710  24.220  15.280
 2024DPPE   C4B46152  23.850  24.330  14.790
 2025DPPE   NH346153  23.850  15.570  10.210
 2025DPPE   PO446154  23.860  15.950  10.500
 2025DPPE   GL146155  24.240  15.660  10.690
 2025DPPE   GL246156  24.310  15.440  10.590
 2025DPPE   C1A46157  24.710  15.750  10.630
 2025DPPE   C2A46158  25.120  15.800  10.820
 2025DPPE   C3A46159  25.420  15.530  11.020
 2025DPPE   C4A46160  25.630  15.130  11.050
 2025DPPE   C1B46161  24.540  15.100  10.550
 2025DPPE   C2B46162  24.910  14.980  10.370
 2025DPPE   C3B46163  25.190  15.180  10.070
 2025DPPE   C4B46164  25.530  15.280   9.720
 2026DPPE   NH346165  10.540  15.790  15.800
 2026DPPE   PO446166  10.350  15.670  15.450
 2026DPPE   GL146167  10.220  15.380  15.740
 2026DPPE   GL246168  10.180  15.490  16.130
 2026DPPE   C1A46169   9.990  15.130  15.620
 2026DPPE   C2A46170   9.610  15.040  15.430
 2026DPPE   C3A46171   9.140  15.130  15.600
 2026DPPE   C4A46172   8.680  15.330  15.460
 2026DPPE   C1B46173  10.050  15.130  16.420
 2026DPPE   C2B46174   9.860  14.910  16.680
 2026DPPE   C3B46175   9.830  14.660  17.060
 2026DPPE   C4B46176   9.610  14.470  17.410
 2027DPPE   NH346177  22.190  20.740  16.560
 2027DPPE   PO446178  22.040  20.480  16.820
 2027DPPE   GL146179  22.490  20.490  16.870
 2027DPPE   GL246180  22.710  20.260  16.730
 2027DPPE   C1A46181  22.790  20.710  16.970
 2027DPPE   C2A46182  23.000  20.720  17.350
 2027DPPE   C3A46183  23.450  20.860  17.540
 2027DPPE   C4A46184  23.760  20.920  17.730
 2027DPPE   C1B46185  23.140  20.390  16.900
 2027DPPE   C2B46186  23.370  20.460  17.310
 2027DPPE   C3B46187  23.590  20.140  17.430
 2027DPPE   C4B46188  23.770  19.820  17.730
 2028DPPE   NH346189  15.940  10.530  17.100
 2028DPPE   PO446190  15.800  10.930  17.170
 2028DPPE   GL146191  15.650  10.690  17.500
 2028DPPE   GL246192  15.500  10.970  17.650
 2028DPPE   C1A46193  15.610  10.360  17.850
 2028DPPE   C2A46194  15.600  10.040  18.160
 2028DPPE   C3A46195  15.760   9.630  18.310
 2028DPPE   C4A46196  16.070   9.470  18.640
 2028DPPE   C1B46197  15.490  10.770  18.090
 2028DPPE   C2B46198  15.470  10.800  18.540
 2028DPPE   C3B46199  15.300  10.860  18.960
 2028DPPE   C4B46200  15.350  10.630  19.320
 2029DPPE   NH346201  14.100  29.260  12.690
 2029DPPE   PO446202  14.500  29.410  12.820
 2029DPPE   GL146203  14.670  29.040  12.870
 2029DPPE   GL246204  14.870  28.930  13.090
 2029DPPE   C1A46205  14.670  28.500  12.800
 2029DPPE   C2A46206  14.620  28.100  12.800
 2029DPPE   C3A46207  14.760  27.770  12.960
 2029DPPE   C4A46208  14.920  27.440  12.960
 2029DPPE   C1B46209  14.970  28.490  13.190
 2029DPPE   C2B46210  15.060  28.050  13.230
 2029DPPE   C3B46211  15.060  27.680  13.400
 2029DPPE   C4B46212  15.120  27.250  13.680
 2030DPPE   NH346213   9.160   7.200  22.020
 2030DPPE   PO446214   8.770   7.390  22.020
 2030DPPE   GL146215   8.980   7.590  21.700
 2030DPPE   GL246216   9.170   7.750  21.980
 2030DPPE   C1A46217   9.290   7.540  21.380
 2030DPPE   C2A46218   9.570   7.800  21.200
 2030DPPE   C3A46219   9.770   8.210  21.140
 2030DPPE   C4A46220   9.900   8.470  21.370
 2030DPPE   C1B46221   9.450   7.850  21.700
 2030DPPE   C2B46222   9.890   8.050  21.590
 2030DPPE   C3B46223  10.280   8.040  21.270
 2030DPPE   C4B46224  10.590   7.740  20.980
 2031DPPE   NH346225  14.920  10.230   6.960
 2031DPPE   PO446226  14.820  10.720   6.780
 2031DPPE   GL146227  14.840  10.390   6.390
 2031DPPE   GL246228  14.900  10.450   6.020
 2031DPPE   C1A46229  14.610  10.010   6.280
 2031DPPE   C2A46230  14.570   9.710   6.010
 2031DPPE   C3A46231  14.410   9.410   5.680
 2031DPPE   C4A46232  14.210   9.130   5.670
 2031DPPE   C1B46233  14.940  10.020   5.830
 2031DPPE   C2B46234  14.870   9.560   5.650
 2031DPPE   C3B46235  15.050   9.200   5.630
 2031DPPE   C4B46236  15.330   8.910   5.500
 2032DPPE   NH346237  12.680  21.930  17.490
 2032DPPE   PO446238  12.420  21.640  17.320
 2032DPPE   GL146239  12.170  21.660  17.580
 2032DPPE   GL246240  12.090  21.930  17.790
 2032DPPE   C1A46241  11.690  21.580  17.800
 2032DPPE   C2A46242  11.290  21.290  18.020
 2032DPPE   C3A46243  11.370  20.980  18.260
 2032DPPE   C4A46244  11.390  20.620  18.200
 2032DPPE   C1B46245  11.730  22.160  17.940
 2032DPPE   C2B46246  11.380  21.880  18.060
 2032DPPE   C3B46247  11.090  21.670  18.290
 2032DPPE   C4B46248  10.540  21.630  18.330
 2033DPPE   NH346249   4.900  17.260   7.980
 2033DPPE   PO446250   4.450  17.240   8.180
 2033DPPE   GL146251   4.660  17.290   8.560
 2033DPPE   GL246252   4.890  17.090   8.480
 2033DPPE   C1A46253   4.980  17.530   8.670
 2033DPPE   C2A46254   4.990  17.740   9.090
 2033DPPE   C3A46255   5.280  17.870   9.340
 2033DPPE   C4A46256   5.510  18.150   9.730
 2033DPPE   C1B46257   5.210  17.010   8.590
 2033DPPE   C2B46258   5.690  17.010   8.520
 2033DPPE   C3B46259   6.070  17.150   8.500
 2033DPPE   C4B46260   6.340  17.380   8.390
 2034DPPE   NH346261  16.860  25.210  16.650
 2034DPPE   PO446262  16.560  25.040  17.010
 2034DPPE   GL146263  16.430  25.490  17.250
 2034DPPE   GL246264  16.790  25.500  17.320
 2034DPPE   C1A46265  16.440  25.810  17.590
 2034DPPE   C2A46266  16.650  26.250  17.810
 2034DPPE   C3A46267  16.710  26.700  17.900
 2034DPPE   C4A46268  16.940  27.070  17.840
 2034DPPE   C1B46269  17.020  25.800  17.220
 2034DPPE   C2B46270  16.950  26.280  17.340
 2034DPPE   C3B46271  17.210  26.710  17.510
 2034DPPE   C4B46272  17.230  26.670  17.860
 2035DPPE   NH346273  19.940   9.690  13.200
 2035DPPE   PO446274  20.130   9.880  13.600
 2035DPPE   GL146275  20.280   9.620  13.870
 2035DPPE   GL246276  20.210   9.560  14.140
 2035DPPE   C1A46277  20.620   9.330  13.850
 2035DPPE   C2A46278  20.990   9.360  13.720
 2035DPPE   C3A46279  21.320   9.220  13.570
 2035DPPE   C4A46280  21.510   8.940  13.290
 2035DPPE   C1B46281  20.500   9.150  14.270
 2035DPPE   C2B46282  20.700   8.840  13.870
 2035DPPE   C3B46283  20.860   9.030  13.380
 2035DPPE   C4B46284  21.170   9.290  13.070
 2036DPPE   NH346285   2.670  20.590  19.760
 2036DPPE   PO446286   2.810  20.830  20.120
 2036DPPE   GL146287   3.300  20.720  20.040
 2036DPPE   GL246288   3.140  20.740  19.670
 2036DPPE   C1A46289   3.680  20.460  20.090
 2036DPPE   C2A46290   3.870  20.080  20.020
 2036DPPE   C3A46291   4.110  19.720  20.110
 2036DPPE   C4A46292   4.240  19.420  19.890
 2036DPPE   C1B46293   3.610  20.840  19.700
 2036DPPE   C2B46294   3.960  20.550  19.740
 2036DPPE   C3B46295   4.170  20.410  19.420
 2036DPPE   C4B46296   4.530  20.170  19.390
 2037DPPE   NH346297   9.590  13.610  12.200
 2037DPPE   PO446298   9.560  14.020  12.260
 2037DPPE   GL146299   9.160  14.200  12.330
 2037DPPE   GL246300   8.780  14.090  12.140
 2037DPPE   C1A46301   8.970  14.340  12.630
 2037DPPE   C2A46302   8.610  14.270  12.910
 2037DPPE   C3A46303   8.260  14.130  12.920
 2037DPPE   C4A46304   7.980  13.730  12.900
 2037DPPE   C1B46305   8.490  14.230  12.420
 2037DPPE   C2B46306   8.180  14.510  12.560
 2037DPPE   C3B46307   7.830  14.630  12.440
 2037DPPE   C4B46308   7.490  14.820  12.580
 2038DPPE   NH346309  20.360   6.780  16.380
 2038DPPE   PO446310  20.700   7.160  16.270
 2038DPPE   GL146311  20.420   7.360  16.100
 2038DPPE   GL246312  20.140   7.180  16.020
 2038DPPE   C1A46313  20.270   7.620  15.790
 2038DPPE   C2A46314  20.340   7.740  15.410
 2038DPPE   C3A46315  20.410   8.190  15.210
 2038DPPE   C4A46316  20.250   8.340  14.850
 2038DPPE   C1B46317  19.800   7.390  15.750
 2038DPPE   C2B46318  19.760   7.780  15.470
 2038DPPE   C3B46319  19.630   8.160  15.190
 2038DPPE   C4B46320  19.330   8.500  15.180
 2039DPPE   NH346321  16.520  18.280  20.610
 2039DPPE   PO446322  16.540  18.660  20.620
 2039DPPE   GL146323  16.330  18.600  20.980
 2039DPPE   GL246324  16.320  18.270  21.070
 2039DPPE   C1A46325  16.190  18.730  21.380
 2039DPPE   C2A46326  16.160  18.720  21.870
 2039DPPE   C3A46327  16.190  18.800  22.250
 2039DPPE   C4A46328  16.700  18.760  22.210
 2039DPPE   C1B46329  16.380  18.220  21.490
 2039DPPE   C2B46330  16.440  18.250  21.950
 2039DPPE   C3B46331  16.380  18.360  22.420
 2039DPPE   C4B46332  16.000  18.120  22.720
 2040DPPE   NH346333  16.630   5.150  15.030
 2040DPPE   PO446334  16.950   5.030  14.680
 2040DPPE   GL146335  17.110   5.380  14.900
 2040DPPE   GL246336  17.310   5.380  15.170
 2040DPPE   C1A46337  17.100   5.770  14.740
 2040DPPE   C2A46338  17.260   5.900  14.360
 2040DPPE   C3A46339  17.200   6.250  14.160
 2040DPPE   C4A46340  16.850   6.250  13.810
 2040DPPE   C1B46341  17.380   5.820  15.230
 2040DPPE   C2B46342  17.520   6.170  15.490
 2040DPPE   C3B46343  17.790   6.500  15.460
 2040DPPE   C4B46344  18.210   6.680  15.480
 2041DPPE   NH346345  12.760  19.430   5.390
 2041DPPE   PO446346  12.920  19.760   5.510
 2041DPPE   GL146347  12.620  19.950   5.410
 2041DPPE   GL246348  12.630  19.840   5.100
 2041DPPE   C1A46349  12.400  20.300   5.450
 2041DPPE   C2A46350  12.040  20.470   5.180
 2041DPPE   C3A46351  11.620  20.630   5.060
 2041DPPE   C4A46352  11.300  20.850   4.870
 2041DPPE   C1B46353  12.510  19.640   4.690
 2041DPPE   C2B46354  12.380  19.460   4.280
 2041DPPE   C3B46355  12.410  19.630   3.890
 2041DPPE   C4B46356  12.190  19.950   3.570
 2042DPPE   NH346357   8.800  22.520  25.560
 2042DPPE   PO446358   8.520  22.140  25.740
 2042DPPE   GL146359   8.810  22.010  25.520
 2042DPPE   GL246360   8.710  21.630  25.530
 2042DPPE   C1A46361   8.920  21.940  25.170
 2042DPPE   C2A46362   9.000  21.820  24.840
 2042DPPE   C3A46363   9.100  21.700  24.460
 2042DPPE   C4A46364   9.330  21.530  24.110
 2042DPPE   C1B46365   8.940  21.440  25.290
 2042DPPE   C2B46366   9.110  21.020  25.000
 2042DPPE   C3B46367   9.390  20.630  24.920
 2042DPPE   C4B46368   9.500  20.180  24.900
 2043DPPE   NH346369   8.710  14.560  11.450
 2043DPPE   PO446370   8.590  14.900  11.680
 2043DPPE   GL146371   8.180  14.880  11.680
 2043DPPE   GL246372   7.960  15.150  11.870
 2043DPPE   C1A46373   7.670  14.930  11.500
 2043DPPE   C2A46374   7.250  14.780  11.360
 2043DPPE   C3A46375   6.870  14.450  11.390
 2043DPPE   C4A46376   6.580  14.050  11.300
 2043DPPE   C1B46377   7.570  15.420  11.770
 2043DPPE   C2B46378   7.340  15.620  12.010
 2043DPPE   C3B46379   7.270  15.920  12.220
 2043DPPE   C4B46380   6.810  15.880  12.180
 2044DPPE   NH346381  21.940  10.330  20.070
 2044DPPE   PO446382  21.750  10.730  20.300
 2044DPPE   GL146383  21.970  10.860  19.990
 2044DPPE   GL246384  21.730  10.850  19.800
 2044DPPE   C1A46385  22.080  11.130  19.660
 2044DPPE   C2A46386  22.110  11.430  19.310
 2044DPPE   C3A46387  21.880  11.660  18.870
 2044DPPE   C4A46388  22.220  11.690  18.600
 2044DPPE   C1B46389  21.600  11.180  19.530
 2044DPPE   C2B46390  21.290  11.480  19.210
 2044DPPE   C3B46391  20.990  11.770  18.980
 2044DPPE   C4B46392  20.570  11.900  19.200
 2045DPPE   NH346393  15.020  17.280  19.660
 2045DPPE   PO446394  15.210  16.930  19.880
 2045DPPE   GL146395  15.120  17.390  20.150
 2045DPPE   GL246396  15.050  17.250  20.320
 2045DPPE   C1A46397  15.010  17.710  20.310
 2045DPPE   C2A46398  14.940  18.050  20.480
 2045DPPE   C3A46399  14.550  18.430  20.530
 2045DPPE   C4A46400  14.420  18.720  20.940
 2045DPPE   C1B46401  14.770  17.360  20.630
 2045DPPE   C2B46402  14.450  17.320  20.840
 2045DPPE   C3B46403  14.350  17.000  21.140
 2045DPPE   C4B46404  14.370  16.540  21.080
 2046DPPE   NH346405  19.860   9.830  13.990
 2046DPPE   PO446406  19.710   9.510  13.950
 2046DPPE   GL146407  19.790   9.110  14.120
 2046DPPE   GL246408  19.530   9.200  14.290
 2046DPPE   C1A46409  19.860   8.790  14.410
 2046DPPE   C2A46410  19.760   8.430  14.780
 2046DPPE   C3A46411  19.350   8.100  14.730
 2046DPPE   C4A46412  18.980   7.850  14.770
 2046DPPE   C1B46413  19.040   9.030  14.380
 2046DPPE   C2B46414  18.960   8.570  14.300
 2046DPPE   C3B46415  18.880   8.330  14.040
 2046DPPE   C4B46416  19.180   8.170  13.720
 2047DPPE   NH346417   8.120  16.340   3.350
 2047DPPE   PO446418   8.370  16.110   3.110
 2047DPPE   GL146419   8.490  16.090   3.620
 2047DPPE   GL246420   8.290  16.370   3.820
 2047DPPE   C1A46421   8.710  15.980   4.010
 2047DPPE   C2A46422   8.930  15.720   4.230
 2047DPPE   C3A46423   8.860  15.480   4.630
 2047DPPE   C4A46424   8.620  15.570   4.940
 2047DPPE   C1B46425   8.630  16.460   4.150
 2047DPPE   C2B46426   8.980  16.640   4.550
 2047DPPE   C3B46427   9.080  16.680   4.880
 2047DPPE   C4B46428   9.380  16.800   5.190
 2048DPPE   NH346429  17.630   9.700  15.360
 2048DPPE   PO446430  17.700   9.870  15.790
 2048DPPE   GL146431  17.910   9.570  16.060
 2048DPPE   GL246432  17.590   9.290  16.050
 2048DPPE   C1A46433  18.000   9.420  16.530
 2048DPPE   C2A46434  17.920   9.190  16.930
 2048DPPE   C3A46435  18.020   8.730  17.060
 2048DPPE   C4A46436  17.980   8.280  17.160
 2048DPPE   C1B46437  17.790   9.020  16.350
 2048DPPE   C2B46438  17.780   8.710  16.630
 2048DPPE   C3B46439  18.070   8.370  16.680
 2048DPPE   C4B46440  18.510   8.330  16.920
 2049DPPE   NH346441  26.540  22.380  16.140
 2049DPPE   PO446442  26.440  22.520  16.630
 2049DPPE   GL146443  25.950  22.280  16.510
 2049DPPE   GL246444  25.820  22.560  16.590
 2049DPPE   C1A46445  25.800  22.150  16.120
 2049DPPE   C2A46446  25.610  22.100  15.680
 2049DPPE   C3A46447  25.240  21.930  15.400
 2049DPPE   C4A46448  24.880  21.860  15.250
 2049DPPE   C1B46449  25.560  22.620  16.190
 2049DPPE   C2B46450  25.230  22.440  15.840
 2049DPPE   C3B46451  25.010  22.090  15.830
 2049DPPE   C4B46452  24.910  21.710  15.700
 2050DPPE   NH346453  11.630  23.540  11.320
 2050DPPE   PO446454  11.810  23.560  10.800
 2050DPPE   GL146455  11.540  23.940  10.900
 2050DPPE   GL246456  11.380  23.980  11.090
 2050DPPE   C1A46457  11.400  24.370  10.760
 2050DPPE   C2A46458  11.470  24.800  10.610
 2050DPPE   C3A46459  11.280  25.100  10.270
 2050DPPE   C4A46460  11.010  25.320  10.170
 2050DPPE   C1B46461  11.070  24.080  10.890
 2050DPPE   C2B46462  10.850  24.250  10.650
 2050DPPE   C3B46463  10.920  24.150  10.150
 2050DPPE   C4B46464  11.020  24.160   9.770
 2051DPPE   NH346465  16.670  22.460  19.130
 2051DPPE   PO446466  16.510  22.120  19.300
 2051DPPE   GL146467  16.500  22.370  19.690
 2051DPPE   GL246468  16.800  22.440  19.590
 2051DPPE   C1A46469  16.510  22.420  20.140
 2051DPPE   C2A46470  16.430  22.580  20.480
 2051DPPE   C3A46471  16.320  22.670  20.800
 2051DPPE   C4A46472  16.110  22.720  21.200
 2051DPPE   C1B46473  16.920  22.610  19.950
 2051DPPE   C2B46474  16.940  22.720  20.310
 2051DPPE   C3B46475  16.910  22.740  20.690
 2051DPPE   C4B46476  16.720  22.650  21.130
 2052DPPE   NH346477  14.160  18.200  18.960
 2052DPPE   PO446478  14.590  18.110  19.120
 2052DPPE   GL146479  14.570  18.200  19.530
 2052DPPE   GL246480  14.790  18.140  19.780
 2052DPPE   C1A46481  14.180  18.190  19.970
 2052DPPE   C2A46482  14.040  18.410  20.340
 2052DPPE   C3A46483  13.700  18.360  20.510
 2052DPPE   C4A46484  13.600  18.130  20.890
 2052DPPE   C1B46485  14.770  18.390  20.060
 2052DPPE   C2B46486  14.790  18.850  20.260
 2052DPPE   C3B46487  14.820  18.970  20.700
 2052DPPE   C4B46488  14.790  18.960  21.140
 2053DPPE   NH346489  10.340  21.770  15.240
 2053DPPE   PO446490   9.880  21.730  15.300
 2053DPPE   GL146491   9.530  21.470  15.410
 2053DPPE   GL246492   9.300  21.510  15.200
 2053DPPE   C1A46493   9.200  21.340  15.660
 2053DPPE   C2A46494   8.820  21.560  15.770
 2053DPPE   C3A46495   8.880  22.080  15.830
 2053DPPE   C4A46496   8.590  22.440  15.780
 2053DPPE   C1B46497   8.940  21.450  15.310
 2053DPPE   C2B46498   8.520  21.520  15.380
 2053DPPE   C3B46499   8.270  21.450  15.710
 2053DPPE   C4B46500   7.890  21.660  15.840
 2054DPPE   NH346501  16.050  10.830   5.970
 2054DPPE   PO446502  16.350  11.190   5.960
 2054DPPE   GL146503  16.380  11.000   5.560
 2054DPPE   GL246504  16.200  10.730   5.490
 2054DPPE   C1A46505  16.510  10.790   5.090
 2054DPPE   C2A46506  16.400  10.840   4.690
 2054DPPE   C3A46507  16.220  10.710   4.400
 2054DPPE   C4A46508  16.320  10.750   3.930
 2054DPPE   C1B46509  16.170  10.450   5.170
 2054DPPE   C2B46510  16.190  10.060   4.870
 2054DPPE   C3B46511  16.090   9.760   4.610
 2054DPPE   C4B46512  16.270   9.620   4.300
 2055DPPE   NH346513   6.170  24.690  14.650
 2055DPPE   PO446514   6.390  24.570  14.220
 2055DPPE   GL146515   6.760  24.250  14.090
 2055DPPE   GL246516   6.830  24.220  14.350
 2055DPPE   C1A46517   7.280  24.200  14.210
 2055DPPE   C2A46518   7.750  24.160  14.170
 2055DPPE   C3A46519   8.000  23.980  14.480
 2055DPPE   C4A46520   8.030  23.720  14.970
 2055DPPE   C1B46521   7.010  23.830  14.440
 2055DPPE   C2B46522   7.170  23.380  14.560
 2055DPPE   C3B46523   7.240  23.060  14.880
 2055DPPE   C4B46524   7.320  22.880  15.280
 2056DPPE   NH346525   6.260  26.430  18.720
 2056DPPE   PO446526   6.610  26.040  18.760
 2056DPPE   GL146527   6.720  25.640  18.860
 2056DPPE   GL246528   6.560  25.620  19.160
 2056DPPE   C1A46529   7.110  25.370  18.740
 2056DPPE   C2A46530   7.300  25.240  18.440
 2056DPPE   C3A46531   7.400  25.200  18.090
 2056DPPE   C4A46532   7.160  25.300  17.720
 2056DPPE   C1B46533   6.230  25.270  19.310
 2056DPPE   C2B46534   6.270  24.890  19.300
 2056DPPE   C3B46535   6.470  24.510  19.130
 2056DPPE   C4B46536   6.560  24.120  19.130
 2057DPPE   NH346537  18.450  13.480  25.840
 2057DPPE   PO446538  18.140  13.360  26.050
 2057DPPE   GL146539  17.900  13.280  25.650
 2057DPPE   GL246540  18.170  13.380  25.470
 2057DPPE   C1A46541  17.740  13.240  25.200
 2057DPPE   C2A46542  17.770  12.960  24.780
 2057DPPE   C3A46543  18.250  12.870  24.460
 2057DPPE   C4A46544  18.540  12.890  24.090
 2057DPPE   C1B46545  18.170  13.590  25.160
 2057DPPE   C2B46546  17.970  13.940  24.920
 2057DPPE   C3B46547  17.740  14.040  24.580
 2057DPPE   C4B46548  17.510  14.170  24.230
 2058DPPE   NH346549  12.120   9.400  14.030
 2058DPPE   PO446550  12.480   9.730  14.230
 2058DPPE   GL146551  12.550   9.720  14.620
 2058DPPE   GL246552  12.540   9.390  14.670
 2058DPPE   C1A46553  12.640   9.760  15.090
 2058DPPE   C2A46554  12.440   9.950  15.480
 2058DPPE   C3A46555  12.600  10.350  15.600
 2058DPPE   C4A46556  12.880  10.500  15.480
 2058DPPE   C1B46557  12.160   9.230  14.630
 2058DPPE   C2B46558  11.780   9.430  14.640
 2058DPPE   C3B46559  11.390   9.170  14.610
 2058DPPE   C4B46560  11.220   8.860  14.520
 2059DPPE   NH346561   4.660   7.330  15.420
 2059DPPE   PO446562   4.860   7.070  15.310
 2059DPPE   GL146563   5.120   7.490  15.210
 2059DPPE   GL246564   5.000   7.760  15.030
 2059DPPE   C1A46565   5.370   7.750  15.350
 2059DPPE   C2A46566   5.490   8.130  15.050
 2059DPPE   C3A46567   5.820   8.320  14.830
 2059DPPE   C4A46568   6.270   8.320  14.680
 2059DPPE   C1B46569   4.930   8.000  15.330
 2059DPPE   C2B46570   4.880   8.390  15.390
 2059DPPE   C3B46571   5.060   8.690  15.570
 2059DPPE   C4B46572   5.090   8.940  15.860
 2060DPPE   NH346573  16.160   4.580  10.750
 2060DPPE   PO446574  16.050   4.570  10.360
 2060DPPE   GL146575  16.330   5.000  10.520
 2060DPPE   GL246576  16.170   5.160  10.340
 2060DPPE   C1A46577  16.180   5.240  10.840
 2060DPPE   C2A46578  16.250   5.630  11.090
 2060DPPE   C3A46579  16.010   5.860  11.390
 2060DPPE   C4A46580  15.790   6.260  11.570
 2060DPPE   C1B46581  16.530   5.250  10.140
 2060DPPE   C2B46582  16.840   5.570  10.170
 2060DPPE   C3B46583  17.120   5.930  10.230
 2060DPPE   C4B46584  16.900   6.340  10.350
 2061DPPE   NH346585   5.630  11.810  22.440
 2061DPPE   PO446586   5.430  12.070  22.720
 2061DPPE   GL146587   5.430  12.180  22.190
 2061DPPE   GL246588   5.550  12.480  22.140
 2061DPPE   C1A46589   5.660  12.050  21.750
 2061DPPE   C2A46590   6.030  12.130  21.440
 2061DPPE   C3A46591   6.390  12.140  21.140
 2061DPPE   C4A46592   6.730  12.160  21.040
 2061DPPE   C1B46593   5.510  12.490  21.680
 2061DPPE   C2B46594   5.710  12.630  21.280
 2061DPPE   C3B46595   5.600  12.610  20.870
 2061DPPE   C4B46596   5.760  12.910  20.570
 2062DPPE   NH346597  14.820  17.770  19.370
 2062DPPE   PO446598  14.370  17.760  19.390
 2062DPPE   GL146599  14.460  17.790  19.760
 2062DPPE   GL246600  14.720  17.640  19.890
 2062DPPE   C1A46601  14.490  17.920  20.260
 2062DPPE   C2A46602  14.540  17.840  20.710
 2062DPPE   C3A46603  14.900  17.740  20.950
 2062DPPE   C4A46604  14.840  17.890  21.430
 2062DPPE   C1B46605  14.500  17.450  20.150
 2062DPPE   C2B46606  14.390  17.010  20.330
 2062DPPE   C3B46607  14.100  16.780  20.640
 2062DPPE   C4B46608  13.990  16.440  20.770
 2063DPPE   NH346609  11.130  27.840   9.730
 2063DPPE   PO446610  11.620  27.590   9.740
 2063DPPE   GL146611  11.990  27.310   9.850
 2063DPPE   GL246612  12.280  27.330  10.040
 2063DPPE   C1A46613  11.840  26.900   9.630
 2063DPPE   C2A46614  11.850  26.480   9.360
 2063DPPE   C3A46615  11.900  26.310   8.990
 2063DPPE   C4A46616  11.900  25.960   8.950
 2063DPPE   C1B46617  12.350  26.890   9.900
 2063DPPE   C2B46618  12.180  26.390   9.680
 2063DPPE   C3B46619  12.140  26.040   9.410
 2063DPPE   C4B46620  12.310  25.810   9.160
 2064DPPE   NH346621   8.310  26.550  13.200
 2064DPPE   PO446622   8.040  26.190  13.230
 2064DPPE   GL146623   8.480  25.910  13.250
 2064DPPE   GL246624   8.400  25.550  13.410
 2064DPPE   C1A46625   8.860  25.680  13.430
 2064DPPE   C2A46626   9.110  25.270  13.710
 2064DPPE   C3A46627   9.370  25.110  13.960
 2064DPPE   C4A46628   9.690  24.960  14.140
 2064DPPE   C1B46629   8.610  25.210  13.490
 2064DPPE   C2B46630   8.790  24.960  13.360
 2064DPPE   C3B46631   9.150  24.760  13.300
 2064DPPE   C4B46632   9.270  24.350  13.190
 2065DPPE   NH346633  13.680  17.640  18.540
 2065DPPE   PO446634  13.800  18.050  18.530
 2065DPPE   GL146635  13.600  18.210  18.810
 2065DPPE   GL246636  13.660  18.380  19.020
 2065DPPE   C1A46637  13.210  18.210  19.100
 2065DPPE   C2A46638  12.850  18.230  19.330
 2065DPPE   C3A46639  12.530  18.330  19.510
 2065DPPE   C4A46640  12.220  18.120  19.800
 2065DPPE   C1B46641  13.380  18.450  19.510
 2065DPPE   C2B46642  13.090  18.300  19.770
 2065DPPE   C3B46643  12.760  18.060  19.980
 2065DPPE   C4B46644  12.570  18.120  20.370
 2066DPPE   NH346645  11.530  17.220  16.760
 2066DPPE   PO446646  11.780  17.110  17.040
 2066DPPE   GL146647  11.380  17.090  17.290
 2066DPPE   GL246648  11.250  17.380  17.170
 2066DPPE   C1A46649  11.000  17.090  17.510
 2066DPPE   C2A46650  10.680  16.880  17.730
 2066DPPE   C3A46651  10.330  16.990  17.730
 2066DPPE   C4A46652   9.960  17.030  17.460
 2066DPPE   C1B46653  11.080  17.740  17.450
 2066DPPE   C2B46654  11.060  17.880  17.830
 2066DPPE   C3B46655  10.820  17.750  18.130
 2066DPPE   C4B46656  10.840  17.450  18.350
 2067DPPE   NH346657  20.610   7.750   4.860
 2067DPPE   PO446658  20.780   7.720   5.110
 2067DPPE   GL146659  20.460   7.990   5.280
 2067DPPE   GL246660  20.680   8.240   5.360
 2067DPPE   C1A46661  20.210   8.290   5.420
 2067DPPE   C2A46662  19.740   8.430   5.330
 2067DPPE   C3A46663  19.570   8.770   5.260
 2067DPPE   C4A46664  19.490   9.130   5.650
 2067DPPE   C1B46665  20.730   8.750   5.220
 2067DPPE   C2B46666  20.540   9.080   5.070
 2067DPPE   C3B46667  20.240   9.080   4.700
 2067DPPE   C4B46668  19.890   9.140   4.410
 2068DPPE   NH346669   4.010  24.770  19.060
 2068DPPE   PO446670   4.150  24.490  19.410
 2068DPPE   GL146671   4.190  24.140  19.070
 2068DPPE   GL246672   4.160  24.300  18.740
 2068DPPE   C1A46673   4.330  23.620  19.180
 2068DPPE   C2A46674   4.380  23.180  19.160
 2068DPPE   C3A46675   4.210  22.960  18.780
 2068DPPE   C4A46676   4.090  22.680  18.540
 2068DPPE   C1B46677   4.560  23.980  18.710
 2068DPPE   C2B46678   4.780  23.860  18.560
 2068DPPE   C3B46679   4.820  23.440  18.370
 2068DPPE   C4B46680   4.780  23.080  18.010
 2069DPPE   NH346681  15.240   4.330  13.080
 2069DPPE   PO446682  15.580   4.540  12.820
 2069DPPE   GL146683  15.480   4.990  12.650
 2069DPPE   GL246684  15.200   5.120  12.610
 2069DPPE   C1A46685  15.710   5.380  12.730
 2069DPPE   C2A46686  15.760   5.820  12.620
 2069DPPE   C3A46687  15.930   6.250  12.710
 2069DPPE   C4A46688  15.930   6.710  12.810
 2069DPPE   C1B46689  15.330   5.490  12.400
 2069DPPE   C2B46690  15.330   5.860  12.280
 2069DPPE   C3B46691  15.180   6.320  12.320
 2069DPPE   C4B46692  15.210   6.800  12.340
 2070DPPE   NH346693  11.590  26.400  21.090
 2070DPPE   PO446694  11.340  26.720  21.430
 2070DPPE   GL146695  11.320  26.220  21.520
 2070DPPE   GL246696  11.210  26.060  21.260
 2070DPPE   C1A46697  11.260  25.810  21.690
 2070DPPE   C2A46698  11.300  25.350  21.600
 2070DPPE   C3A46699  11.150  24.900  21.660
 2070DPPE   C4A46700  10.840  24.620  21.640
 2070DPPE   C1B46701  11.420  25.600  21.190
 2070DPPE   C2B46702  11.360  25.110  21.140
 2070DPPE   C3B46703  11.160  24.680  21.010
 2070DPPE   C4B46704  10.880  24.530  21.190
 2071DPPE   NH346705   5.660   7.630  11.590
 2071DPPE   PO446706   5.650   7.750  12.010
 2071DPPE   GL146707   5.880   7.890  12.300
 2071DPPE   GL246708   6.120   7.670  12.310
 2071DPPE   C1A46709   6.270   8.220  12.450
 2071DPPE   C2A46710   6.520   8.550  12.190
 2071DPPE   C3A46711   6.670   8.960  12.000
 2071DPPE   C4A46712   6.630   9.370  12.210
 2071DPPE   C1B46713   6.230   7.760  12.670
 2071DPPE   C2B46714   6.470   8.140  12.860
 2071DPPE   C3B46715   6.610   8.490  13.130
 2071DPPE   C4B46716   6.840   8.510  13.470
 2072DPPE   NH346717  23.190  12.440  11.960
 2072DPPE   PO446718  23.200  12.620  12.380
 2072DPPE   GL146719  23.520  12.440  12.410
 2072DPPE   GL246720  23.660  12.250  12.140
 2072DPPE   C1A46721  23.900  12.320  12.570
 2072DPPE   C2A46722  24.330  12.290  12.900
 2072DPPE   C3A46723  24.750  12.260  12.950
 2072DPPE   C4A46724  24.930  11.830  13.010
 2072DPPE   C1B46725  23.630  11.920  12.490
 2072DPPE   C2B46726  23.800  11.510  12.690
 2072DPPE   C3B46727  24.140  11.310  12.930
 2072DPPE   C4B46728  24.280  10.900  13.130
 2073DPPE   NH346729   8.070  18.930  12.480
 2073DPPE   PO446730   8.220  19.100  12.910
 2073DPPE   GL146731   7.860  18.970  12.960
 2073DPPE   GL246732   7.810  18.720  12.830
 2073DPPE   C1A46733   7.490  19.210  12.840
 2073DPPE   C2A46734   7.000  19.400  12.910
 2073DPPE   C3A46735   6.660  19.590  13.070
 2073DPPE   C4A46736   6.300  19.830  12.870
 2073DPPE   C1B46737   7.400  18.600  12.860
 2073DPPE   C2B46738   6.920  18.390  12.770
 2073DPPE   C3B46739   6.520  18.420  12.650
 2073DPPE   C4B46740   6.120  18.560  12.810
 2074DPPE   NH346741  17.920   9.680  23.800
 2074DPPE   PO446742  18.320   9.700  23.710
 2074DPPE   GL146743  18.150  10.070  23.420
 2074DPPE   GL246744  17.790  10.030  23.520
 2074DPPE   C1A46745  17.960  10.530  23.650
 2074DPPE   C2A46746  18.090  10.990  23.750
 2074DPPE   C3A46747  18.030  11.350  23.980
 2074DPPE   C4A46748  18.060  11.650  24.150
 2074DPPE   C1B46749  17.580  10.440  23.280
 2074DPPE   C2B46750  17.670  10.860  23.390
 2074DPPE   C3B46751  17.750  11.310  23.590
 2074DPPE   C4B46752  18.200  11.540  23.520
 2075DPPE   NH346753   9.490  18.550  13.750
 2075DPPE   PO446754   9.520  18.180  13.730
 2075DPPE   GL146755   9.060  18.170  13.520
 2075DPPE   GL246756   8.980  18.410  13.650
 2075DPPE   C1A46757   8.730  17.960  13.700
 2075DPPE   C2A46758   8.350  17.920  13.660
 2075DPPE   C3A46759   8.110  17.500  13.620
 2075DPPE   C4A46760   8.180  17.110  13.790
 2075DPPE   C1B46761   8.810  18.240  14.100
 2075DPPE   C2B46762   8.580  18.040  14.480
 2075DPPE   C3B46763   8.390  17.650  14.610
 2075DPPE   C4B46764   8.210  17.300  14.580
 2076DPPE   NH346765   5.490  18.520  24.120
 2076DPPE   PO446766   5.660  18.900  23.890
 2076DPPE   GL146767   5.990  19.100  23.790
 2076DPPE   GL246768   6.040  18.760  23.650
 2076DPPE   C1A46769   6.320  19.260  23.610
 2076DPPE   C2A46770   6.800  19.160  23.590
 2076DPPE   C3A46771   7.110  18.700  23.510
 2076DPPE   C4A46772   7.520  18.500  23.470
 2076DPPE   C1B46773   6.410  18.740  23.850
 2076DPPE   C2B46774   6.800  18.530  23.960
 2076DPPE   C3B46775   7.210  18.520  23.920
 2076DPPE   C4B46776   7.740  18.390  23.890
 2077DPPE   NH346777  13.700  19.560  18.360
 2077DPPE   PO446778  13.280  19.680  18.470
 2077DPPE   GL146779  12.980  19.880  18.680
 2077DPPE   GL246780  12.980  19.640  18.900
 2077DPPE   C1A46781  12.620  19.940  19.040
 2077DPPE   C2A46782  12.420  19.660  19.230
 2077DPPE   C3A46783  12.230  19.390  19.140
 2077DPPE   C4A46784  12.120  19.290  19.510
 2077DPPE   C1B46785  12.680  19.330  18.880
 2077DPPE   C2B46786  12.600  19.110  19.230
 2077DPPE   C3B46787  12.350  18.760  19.440
 2077DPPE   C4B46788  12.100  18.710  19.770
 2078DPPE   NH346789  11.460  12.020   7.230
 2078DPPE   PO446790  11.650  12.450   7.080
 2078DPPE   GL146791  11.270  12.310   6.810
 2078DPPE   GL246792  11.370  12.190   6.600
 2078DPPE   C1A46793  10.770  12.400   6.580
 2078DPPE   C2A46794  10.340  12.300   6.370
 2078DPPE   C3A46795  10.130  12.350   5.960
 2078DPPE   C4A46796  10.280  12.390   5.460
 2078DPPE   C1B46797  11.590  11.800   6.270
 2078DPPE   C2B46798  11.280  11.500   5.930
 2078DPPE   C3B46799  11.140  11.360   5.530
 2078DPPE   C4B46800  11.280  11.090   5.260
 2079DPPE   NH346801  11.990  23.530  17.260
 2079DPPE   PO446802  11.760  23.260  16.950
 2079DPPE   GL146803  11.500  23.610  16.980
 2079DPPE   GL246804  11.520  23.910  16.750
 2079DPPE   C1A46805  11.270  23.860  17.250
 2079DPPE   C2A46806  10.920  24.080  17.460
 2079DPPE   C3A46807  10.790  24.430  17.870
 2079DPPE   C4A46808  10.770  24.620  18.270
 2079DPPE   C1B46809  11.380  24.220  16.920
 2079DPPE   C2B46810  11.150  24.550  17.160
 2079DPPE   C3B46811  10.850  24.590  17.360
 2079DPPE   C4B46812  10.530  24.310  17.330
 2080DPPE   NH346813  12.570  21.150  17.270
 2080DPPE   PO446814  12.930  21.030  17.580
 2080DPPE   GL146815  12.620  20.940  17.940
 2080DPPE   GL246816  12.690  20.990  18.200
 2080DPPE   C1A46817  12.240  20.970  18.200
 2080DPPE   C2A46818  12.250  20.670  18.490
 2080DPPE   C3A46819  12.070  20.600  18.870
 2080DPPE   C4A46820  12.030  20.730  19.310
 2080DPPE   C1B46821  12.540  21.050  18.610
 2080DPPE   C2B46822  12.150  21.110  18.780
 2080DPPE   C3B46823  11.980  21.200  19.120
 2080DPPE   C4B46824  11.560  21.300  19.300
 2081DPPE   NH346825  14.840   5.660  19.460
 2081DPPE   PO446826  14.950   5.740  19.860
 2081DPPE   GL146827  14.850   6.170  19.790
 2081DPPE   GL246828  14.910   6.460  19.570
 2081DPPE   C1A46829  14.780   6.560  20.060
 2081DPPE   C2A46830  14.850   6.830  20.230
 2081DPPE   C3A46831  14.880   7.280  20.340
 2081DPPE   C4A46832  15.220   7.670  20.280
 2081DPPE   C1B46833  14.800   6.820  19.490
 2081DPPE   C2B46834  14.530   7.140  19.420
 2081DPPE   C3B46835  14.310   7.440  19.130
 2081DPPE   C4B46836  14.060   7.640  18.870
 2082DPPE   NH346837  12.020  17.440  17.660
 2082DPPE   PO446838  11.670  17.490  17.470
 2082DPPE   GL146839  11.550  17.450  17.930
 2082DPPE   GL246840  11.740  17.410  18.110
 2082DPPE   C1A46841  11.170  17.340  17.930
 2082DPPE   C2A46842  10.770  17.360  17.820
 2082DPPE   C3A46843  10.390  17.380  18.080
 2082DPPE   C4A46844  10.260  16.950  18.340
 2082DPPE   C1B46845  11.400  17.390  18.470
 2082DPPE   C2B46846  11.130  17.440  18.770
 2082DPPE   C3B46847  10.690  17.660  18.820
 2082DPPE   C4B46848  10.350  17.470  18.600
 2083DPPE   NH346849  12.090  20.340  17.190
 2083DPPE   PO446850  12.000  20.720  17.300
 2083DPPE   GL146851  11.930  21.040  17.480
 2083DPPE   GL246852  12.180  21.160  17.610
 2083DPPE   C1A46853  11.820  21.070  17.920
 2083DPPE   C2A46854  11.780  21.280  18.260
 2083DPPE   C3A46855  11.550  21.550  18.420
 2083DPPE   C4A46856  11.580  22.020  18.650
 2083DPPE   C1B46857  12.160  21.450  18.020
 2083DPPE   C2B46858  11.960  21.720  18.220
 2083DPPE   C3B46859  12.150  21.940  18.630
 2083DPPE   C4B46860  12.590  21.900  18.720
 2084DPPE   NH346861  15.030  15.240  18.790
 2084DPPE   PO446862  15.270  15.270  19.160
 2084DPPE   GL146863  15.390  15.090  19.560
 2084DPPE   GL246864  15.590  14.800  19.550
 2084DPPE   C1A46865  15.100  14.920  19.830
 2084DPPE   C2A46866  14.960  14.600  20.120
 2084DPPE   C3A46867  15.000  14.290  20.510
 2084DPPE   C4A46868  14.780  14.020  20.660
 2084DPPE   C1B46869  15.430  14.530  19.780
 2084DPPE   C2B46870  15.420  14.330  20.190
 2084DPPE   C3B46871  15.510  13.980  20.450
 2084DPPE   C4B46872  15.280  13.870  20.780
 2085DPPE   NH346873  10.270  20.460  14.880
 2085DPPE   PO446874   9.870  20.670  14.800
 2085DPPE   GL146875   9.510  20.610  14.970
 2085DPPE   GL246876   9.400  20.190  14.920
 2085DPPE   C1A46877   9.180  20.490  15.300
 2085DPPE   C2A46878   8.890  20.430  15.720
 2085DPPE   C3A46879   9.090  20.700  16.050
 2085DPPE   C4A46880   9.400  20.990  16.070
 2085DPPE   C1B46881   8.910  20.070  14.990
 2085DPPE   C2B46882   8.740  19.910  15.340
 2085DPPE   C3B46883   8.700  19.790  15.810
 2085DPPE   C4B46884   8.890  19.680  16.270
 2086DPPE   NH346885  12.570  13.990  16.770
 2086DPPE   PO446886  12.710  14.160  17.140
 2086DPPE   GL146887  12.420  14.190  17.520
 2086DPPE   GL246888  12.470  14.380  17.650
 2086DPPE   C1A46889  12.210  13.890  17.780
 2086DPPE   C2A46890  11.810  13.730  18.050
 2086DPPE   C3A46891  11.600  13.600  18.380
 2086DPPE   C4A46892  11.370  13.220  18.360
 2086DPPE   C1B46893  12.180  14.290  18.050
 2086DPPE   C2B46894  11.750  14.210  18.080
 2086DPPE   C3B46895  11.460  14.140  18.400
 2086DPPE   C4B46896  11.570  14.370  18.690
 2087DPPE   NH346897   6.220  20.730  25.090
 2087DPPE   PO446898   6.370  20.980  24.680
 2087DPPE   GL146899   6.570  21.040  24.410
 2087DPPE   GL246900   6.660  21.370  24.340
 2087DPPE   C1A46901   6.580  21.020  23.980
 2087DPPE   C2A46902   6.580  21.090  23.580
 2087DPPE   C3A46903   6.440  21.380  23.390
 2087DPPE   C4A46904   6.470  21.730  23.500
 2087DPPE   C1B46905   7.050  21.400  23.980
 2087DPPE   C2B46906   7.290  21.120  23.700
 2087DPPE   C3B46907   7.420  21.110  23.270
 2087DPPE   C4B46908   7.700  20.940  22.920
 2088DPPE   NH346909  10.180   5.700  10.760
 2088DPPE   PO446910  10.090   5.860  11.210
 2088DPPE   GL146911  10.160   6.220  11.280
 2088DPPE   GL246912  10.060   6.370  11.030
 2088DPPE   C1A46913  10.290   6.460  11.680
 2088DPPE   C2A46914  10.310   6.520  12.080
 2088DPPE   C3A46915  10.490   6.820  12.270
 2088DPPE   C4A46916  10.860   7.100  12.530
 2088DPPE   C1B46917  10.330   6.660  11.060
 2088DPPE   C2B46918  10.500   6.960  11.310
 2088DPPE   C3B46919  10.430   7.350  11.410
 2088DPPE   C4B46920  10.320   7.640  11.660
 2089DPPE   NH346921  11.560  19.980  16.250
 2089DPPE   PO446922  11.490  20.370  16.100
 2089DPPE   GL146923  11.120  20.440  16.410
 2089DPPE   GL246924  11.370  20.740  16.590
 2089DPPE   C1A46925  10.830  20.200  16.600
 2089DPPE   C2A46926  10.430  20.130  16.710
 2089DPPE   C3A46927  10.130  20.180  16.430
 2089DPPE   C4A46928   9.670  20.250  16.470
 2089DPPE   C1B46929  10.870  20.790  16.770
 2089DPPE   C2B46930  10.520  20.990  16.910
 2089DPPE   C3B46931  10.270  21.180  17.280
 2089DPPE   C4B46932  10.060  21.250  17.630
 2090DPPE   NH346933  17.830  17.310  20.100
 2090DPPE   PO446934  17.790  17.500  20.520
 2090DPPE   GL146935  17.920  17.300  20.930
 2090DPPE   GL246936  17.890  17.580  21.210
 2090DPPE   C1A46937  18.310  17.140  21.210
 2090DPPE   C2A46938  18.410  17.020  21.610
 2090DPPE   C3A46939  18.730  16.930  21.990
 2090DPPE   C4A46940  19.040  16.510  22.090
 2090DPPE   C1B46941  17.730  17.650  21.640
 2090DPPE   C2B46942  17.900  17.300  22.010
 2090DPPE   C3B46943  17.570  17.070  22.200
 2090DPPE   C4B46944  17.570  16.840  22.590
 2091DPPE   NH346945   2.390  21.880  15.040
 2091DPPE   PO446946   2.530  22.350  15.030
 2091DPPE   GL146947   2.820  22.130  15.110
 2091DPPE   GL246948   2.780  22.060  15.460
 2091DPPE   C1A46949   3.220  21.880  15.210
 2091DPPE   C2A46950   3.250  21.370  15.150
 2091DPPE   C3A46951   3.350  21.000  15.180
 2091DPPE   C4A46952   3.250  20.670  15.280
 2091DPPE   C1B46953   3.180  22.050  15.750
 2091DPPE   C2B46954   3.250  21.850  16.060
 2091DPPE   C3B46955   3.160  21.660  16.410
 2091DPPE   C4B46956   3.280  21.290  16.550
 2092DPPE   NH346957  23.710  20.000   9.330
 2092DPPE   PO446958  23.590  19.890   8.890
 2092DPPE   GL146959  24.020  19.920   8.770
 2092DPPE   GL246960  24.060  19.900   8.510
 2092DPPE   C1A46961  24.440  20.110   8.780
 2092DPPE   C2A46962  24.750  20.090   8.620
 2092DPPE   C3A46963  25.100  20.070   8.430
 2092DPPE   C4A46964  25.460  20.300   8.520
 2092DPPE   C1B46965  24.390  19.890   8.180
 2092DPPE   C2B46966  24.740  20.160   8.000
 2092DPPE   C3B46967  25.170  20.240   7.980
 2092DPPE   C4B46968  25.350  20.320   7.570
 2093DPPE   NH346969  17.860  10.480  24.930
 2093DPPE   PO446970  17.650  10.470  25.290
 2093DPPE   GL146971  17.290  10.580  25.040
 2093DPPE   GL246972  17.260  10.210  24.930
 2093DPPE   C1A46973  17.000  10.750  24.700
 2093DPPE   C2A46974  16.540  10.630  24.520
 2093DPPE   C3A46975  16.160  10.340  24.550
 2093DPPE   C4A46976  16.180   9.930  24.420
 2093DPPE   C1B46977  16.850  10.270  25.110
 2093DPPE   C2B46978  16.490  10.280  25.420
 2093DPPE   C3B46979  16.210  10.600  25.550
 2093DPPE   C4B46980  15.870  10.670  25.770
 2094DPPE   NH346981   9.040  20.900  14.060
 2094DPPE   PO446982   8.850  20.560  13.860
 2094DPPE   GL146983   8.630  20.620  14.150
 2094DPPE   GL246984   8.310  20.560  14.000
 2094DPPE   C1A46985   8.270  20.940  14.230
 2094DPPE   C2A46986   7.980  21.190  13.870
 2094DPPE   C3A46987   7.660  21.530  13.870
 2094DPPE   C4A46988   7.250  21.830  13.870
 2094DPPE   C1B46989   7.880  20.700  13.960
 2094DPPE   C2B46990   7.470  20.930  13.900
 2094DPPE   C3B46991   7.230  21.250  14.150
 2094DPPE   C4B46992   7.000  21.420  13.900
 2095DPPE   NH346993  11.190  17.570  15.850
 2095DPPE   PO446994  10.720  17.650  15.850
 2095DPPE   GL146995  10.360  17.860  16.060
 2095DPPE   GL246996  10.120  17.670  15.910
 2095DPPE   C1A46997  10.160  17.950  16.380
 2095DPPE   C2A46998   9.930  17.940  16.740
 2095DPPE   C3A46999   9.670  18.210  16.750
 2095DPPE   C4A47000   9.270  18.280  17.040
 2095DPPE   C1B47001   9.770  17.750  16.080
 2095DPPE   C2B47002   9.480  17.730  16.410
 2095DPPE   C3B47003   9.190  17.830  16.720
 2095DPPE   C4B47004   8.910  17.890  17.070
 2096DPPE   NH347005  14.110  21.540  19.010
 2096DPPE   PO447006  14.360  21.710  19.410
 2096DPPE   GL147007  14.010  21.390  19.540
 2096DPPE   GL247008  13.770  21.260  19.300
 2096DPPE   C1A47009  13.660  21.550  19.790
 2096DPPE   C2A47010  13.580  21.720  20.190
 2096DPPE   C3A47011  13.210  22.000  20.470
 2096DPPE   C4A47012  13.020  21.930  20.790
 2096DPPE   C1B47013  13.310  21.010  19.480
 2096DPPE   C2B47014  12.780  20.830  19.600
 2096DPPE   C3B47015  12.380  20.550  19.590
 2096DPPE   C4B47016  11.960  20.380  19.740
 2097DPPE   NH347017  19.130  18.450  24.200
 2097DPPE   PO447018  19.170  18.900  24.330
 2097DPPE   GL147019  18.870  18.970  24.130
 2097DPPE   GL247020  19.030  18.990  23.870
 2097DPPE   C1A47021  18.540  18.790  23.880
 2097DPPE   C2A47022  18.300  18.720  23.470
 2097DPPE   C3A47023  17.940  18.600  23.330
 2097DPPE   C4A47024  17.440  18.420  23.330
 2097DPPE   C1B47025  18.830  19.360  23.770
 2097DPPE   C2B47026  18.530  19.700  23.820
 2097DPPE   C3B47027  18.400  20.100  23.680
 2097DPPE   C4B47028  18.190  20.400  23.710
 2098DPPE   NH347029  27.250  20.990   7.670
 2098DPPE   PO447030  27.400  21.200   7.940
 2098DPPE   GL147031  27.050  21.000   8.150
 2098DPPE   GL247032  26.780  20.860   7.960
 2098DPPE   C1A47033  26.910  20.670   8.390
 2098DPPE   C2A47034  26.540  20.450   8.670
 2098DPPE   C3A47035  26.280  20.380   8.970
 2098DPPE   C4A47036  26.170  20.180   9.260
 2098DPPE   C1B47037  26.440  20.890   8.260
 2098DPPE   C2B47038  26.260  21.080   8.490
 2098DPPE   C3B47039  26.320  21.520   8.440
 2098DPPE   C4B47040  26.080  21.880   8.640
 2099DPPE   NH347041   9.310  17.740  26.690
 2099DPPE   PO447042   8.870  17.830  26.790
 2099DPPE   GL147043   8.890  17.900  26.340
 2099DPPE   GL247044   9.090  18.160  26.270
 2099DPPE   C1A47045   8.670  17.840  25.970
 2099DPPE   C2A47046   8.620  17.530  25.680
 2099DPPE   C3A47047   8.900  17.450  25.230
 2099DPPE   C4A47048   9.150  17.260  24.800
 2099DPPE   C1B47049   9.070  18.150  25.880
 2099DPPE   C2B47050   9.220  18.370  25.470
 2099DPPE   C3B47051   8.930  18.490  25.110
 2099DPPE   C4B47052   8.870  18.600  24.650
 2100DPPE   NH347053  15.260  15.740   4.140
 2100DPPE   PO447054  14.870  15.990   4.020
 2100DPPE   GL147055  14.720  16.110   3.540
 2100DPPE   GL247056  14.950  16.360   3.500
 2100DPPE   C1A47057  14.910  16.070   3.100
 2100DPPE   C2A47058  14.850  16.330   2.670
 2100DPPE   C3A47059  14.720  16.710   2.380
 2100DPPE   C4A47060  14.810  17.020   2.200
 2100DPPE   C1B47061  14.610  16.480   3.220
 2100DPPE   C2B47062  14.490  16.680   2.840
 2100DPPE   C3B47063  14.230  16.850   2.380
 2100DPPE   C4B47064  13.900  16.800   2.160
 2101DPPE   NH347065  20.550  22.680   7.770
 2101DPPE   PO447066  20.400  22.960   7.880
 2101DPPE   GL147067  20.760  23.110   7.640
 2101DPPE   GL247068  20.910  22.890   7.410
 2101DPPE   C1A47069  21.020  23.450   7.370
 2101DPPE   C2A47070  21.130  23.870   7.510
 2101DPPE   C3A47071  20.980  24.230   7.500
 2101DPPE   C4A47072  20.800  24.230   7.150
 2101DPPE   C1B47073  21.290  23.060   7.140
 2101DPPE   C2B47074  21.360  23.510   7.080
 2101DPPE   C3B47075  21.260  24.020   7.070
 2101DPPE   C4B47076  21.230  24.500   6.920
 2102DPPE   NH347077  16.250  23.490  24.260
 2102DPPE   PO447078  16.390  23.320  24.630
 2102DPPE   GL147079  16.390  23.010  24.280
 2102DPPE   GL247080  16.470  23.130  24.000
 2102DPPE   C1A47081  16.100  22.830  24.020
 2102DPPE   C2A47082  15.910  22.540  23.690
 2102DPPE   C3A47083  15.860  22.170  23.540
 2102DPPE   C4A47084  15.630  21.870  23.290
 2102DPPE   C1B47085  16.400  22.790  23.560
 2102DPPE   C2B47086  16.210  22.470  23.300
 2102DPPE   C3B47087  15.890  22.170  22.910
 2102DPPE   C4B47088  15.600  22.050  22.640
 2103DPPE   NH347089   5.190  24.880  21.380
 2103DPPE   PO447090   4.780  24.690  21.310
 2103DPPE   GL147091   5.020  24.480  21.000
 2103DPPE   GL247092   5.310  24.410  21.090
 2103DPPE   C1A47093   5.020  24.440  20.520
 2103DPPE   C2A47094   4.900  24.350  20.100
 2103DPPE   C3A47095   5.100  24.060  19.760
 2103DPPE   C4A47096   5.420  23.750  19.690
 2103DPPE   C1B47097   5.390  24.130  20.730
 2103DPPE   C2B47098   5.640  23.850  20.610
 2103DPPE   C3B47099   6.000  23.650  20.560
 2103DPPE   C4B47100   6.250  23.320  20.470
 2104DPPE   NH347101  12.240  13.420  16.060
 2104DPPE   PO447102  12.380  13.710  16.420
 2104DPPE   GL147103  12.050  13.410  16.550
 2104DPPE   GL247104  11.790  13.690  16.560
 2104DPPE   C1A47105  11.590  13.270  16.560
 2104DPPE   C2A47106  11.180  13.270  16.650
 2104DPPE   C3A47107  10.720  13.430  16.650
 2104DPPE   C4A47108  10.390  13.200  16.610
 2104DPPE   C1B47109  11.260  13.720  16.630
 2104DPPE   C2B47110  11.250  13.710  17.070
 2104DPPE   C3B47111  11.110  13.660  17.430
 2104DPPE   C4B47112  10.920  13.700  17.870
 2105DPPE   NH347113  19.630  16.390  19.440
 2105DPPE   PO447114  19.350  16.140  19.610
 2105DPPE   GL147115  19.600  16.190  19.990
 2105DPPE   GL247116  19.860  16.360  19.880
 2105DPPE   C1A47117  19.870  16.020  20.280
 2105DPPE   C2A47118  20.090  15.830  20.550
 2105DPPE   C3A47119  20.480  15.740  20.730
 2105DPPE   C4A47120  20.750  15.870  20.950
 2105DPPE   C1B47121  20.070  16.530  20.240
 2105DPPE   C2B47122  20.310  16.380  20.420
 2105DPPE   C3B47123  20.760  16.270  20.690
 2105DPPE   C4B47124  21.130  16.360  21.000
 2106DPPE   NH347125  18.410  21.820  23.730
 2106DPPE   PO447126  18.390  22.240  23.740
 2106DPPE   GL147127  18.260  22.160  23.290
 2106DPPE   GL247128  18.340  22.410  23.220
 2106DPPE   C1A47129  18.090  22.180  22.820
 2106DPPE   C2A47130  18.170  22.070  22.440
 2106DPPE   C3A47131  18.250  21.960  21.980
 2106DPPE   C4A47132  18.200  22.020  21.540
 2106DPPE   C1B47133  18.790  22.420  22.900
 2106DPPE   C2B47134  18.900  22.400  22.510
 2106DPPE   C3B47135  18.970  22.080  22.280
 2106DPPE   C4B47136  18.810  21.870  21.970
 2107DPPE   NH347137  16.280  13.700  19.000
 2107DPPE   PO447138  16.400  13.410  19.270
 2107DPPE   GL147139  16.130  13.190  19.450
 2107DPPE   GL247140  16.100  12.840  19.500
 2107DPPE   C1A47141  15.690  13.180  19.320
 2107DPPE   C2A47142  15.420  13.020  19.610
 2107DPPE   C3A47143  15.000  12.920  19.750
 2107DPPE   C4A47144  14.660  13.160  19.540
 2107DPPE   C1B47145  15.890  12.950  19.890
 2107DPPE   C2B47146  15.740  13.270  20.050
 2107DPPE   C3B47147  15.730  13.580  19.690
 2107DPPE   C4B47148  15.540  13.720  19.440
 2108DPPE   NH347149  20.880  17.890  18.370
 2108DPPE   PO447150  21.210  18.030  18.120
 2108DPPE   GL147151  21.410  18.300  18.280
 2108DPPE   GL247152  21.680  18.280  18.070
 2108DPPE   C1A47153  21.680  18.540  18.690
 2108DPPE   C2A47154  22.100  18.650  18.990
 2108DPPE   C3A47155  22.260  18.650  19.490
 2108DPPE   C4A47156  22.060  18.770  19.890
 2108DPPE   C1B47157  22.080  18.470  18.200
 2108DPPE   C2B47158  22.390  18.670  18.390
 2108DPPE   C3B47159  22.600  18.540  18.860
 2108DPPE   C4B47160  22.950  18.470  19.110
 2109DPPE   NH347161  10.110  21.750  10.710
 2109DPPE   PO447162  10.280  22.230  10.820
 2109DPPE   GL147163  10.090  22.460  10.700
 2109DPPE   GL247164  10.320  22.710  10.730
 2109DPPE   C1A47165   9.930  22.710  10.340
 2109DPPE   C2A47166   9.590  23.010  10.460
 2109DPPE   C3A47167   9.320  23.220  10.680
 2109DPPE   C4A47168   9.010  23.450  10.740
 2109DPPE   C1B47169  10.020  23.060  10.730
 2109DPPE   C2B47170   9.750  23.400  10.670
 2109DPPE   C3B47171   9.620  23.730  10.470
 2109DPPE   C4B47172   9.400  23.910  10.080
 2110DPPE   NH347173  26.180  22.990   7.340
 2110DPPE   PO447174  26.030  23.400   7.370
 2110DPPE   GL147175  25.650  23.240   7.550
 2110DPPE   GL247176  25.470  22.950   7.350
 2110DPPE   C1A47177  25.420  23.040   7.870
 2110DPPE   C2A47178  25.150  22.720   7.830
 2110DPPE   C3A47179  25.220  22.180   7.980
 2110DPPE   C4A47180  25.000  21.850   8.080
 2110DPPE   C1B47181  25.240  22.490   7.360
 2110DPPE   C2B47182  24.940  22.230   7.240
 2110DPPE   C3B47183  24.540  22.150   7.450
 2110DPPE   C4B47184  24.230  21.900   7.880
 2111DPPE   NH347185  14.940  10.220  15.460
 2111DPPE   PO447186  14.680  10.390  15.820
 2111DPPE   GL147187  14.480  10.120  16.170
 2111DPPE   GL247188  14.650   9.840  16.300
 2111DPPE   C1A47189  14.100   9.970  16.340
 2111DPPE   C2A47190  13.740   9.730  16.440
 2111DPPE   C3A47191  13.670   9.340  16.390
 2111DPPE   C4A47192  13.390   9.050  16.210
 2111DPPE   C1B47193  14.510   9.390  16.250
 2111DPPE   C2B47194  14.570   9.040  16.390
 2111DPPE   C3B47195  14.390   8.790  16.600
 2111DPPE   C4B47196  14.070   8.480  16.860
 2112DPPE   NH347197  19.610  27.250  19.070
 2112DPPE   PO447198  19.360  27.050  19.260
 2112DPPE   GL147199  19.650  26.720  19.140
 2112DPPE   GL247200  19.820  26.780  18.940
 2112DPPE   C1A47201  19.880  26.310  19.120
 2112DPPE   C2A47202  20.030  26.000  18.810
 2112DPPE   C3A47203  19.940  25.540  18.850
 2112DPPE   C4A47204  20.020  25.140  18.820
 2112DPPE   C1B47205  19.620  26.550  18.640
 2112DPPE   C2B47206  19.600  26.120  18.450
 2112DPPE   C3B47207  19.780  25.640  18.440
 2112DPPE   C4B47208  19.710  25.200  18.370
 2113DPPE   NH347209  17.550   9.010  10.100
 2113DPPE   PO447210  17.490   8.850  10.470
 2113DPPE   GL147211  17.700   8.520  10.340
 2113DPPE   GL247212  17.920   8.620  10.100
 2113DPPE   C1A47213  17.630   8.080  10.280
 2113DPPE   C2A47214  17.840   7.740  10.210
 2113DPPE   C3A47215  18.220   7.520  10.220
 2113DPPE   C4A47216  18.610   7.210  10.300
 2113DPPE   C1B47217  18.250   8.350   9.920
 2113DPPE   C2B47218  18.560   8.210   9.680
 2113DPPE   C3B47219  18.830   7.880   9.700
 2113DPPE   C4B47220  19.130   7.610   9.670
 2114DPPE   NH347221   8.670  13.660   9.640
 2114DPPE   PO447222   8.850  13.960   9.330
 2114DPPE   GL147223   8.680  13.760   8.960
 2114DPPE   GL247224   8.690  13.560   9.050
 2114DPPE   C1A47225   8.400  13.960   8.700
 2114DPPE   C2A47226   8.020  14.180   8.710
 2114DPPE   C3A47227   7.720  14.410   8.720
 2114DPPE   C4A47228   7.300  14.560   8.780
 2114DPPE   C1B47229   8.440  13.430   8.730
 2114DPPE   C2B47230   8.270  13.190   8.300
 2114DPPE   C3B47231   7.930  12.930   7.940
 2114DPPE   C4B47232   7.880  13.130   7.600
 2115DPPE   NH347233  14.210  25.160  14.580
 2115DPPE   PO447234  14.370  25.150  14.040
 2115DPPE   GL147235  14.120  25.490  14.010
 2115DPPE   GL247236  14.100  25.550  13.700
 2115DPPE   C1A47237  13.740  25.790  13.890
 2115DPPE   C2A47238  13.510  26.150  13.860
 2115DPPE   C3A47239  13.050  26.350  13.840
 2115DPPE   C4A47240  12.650  26.520  13.870
 2115DPPE   C1B47241  14.240  25.910  13.780
 2115DPPE   C2B47242  14.020  26.290  13.760
 2115DPPE   C3B47243  13.650  26.590  13.460
 2115DPPE   C4B47244  13.330  26.770  13.700
 2116DPPE   NH347245  19.270  18.350  19.620
 2116DPPE   PO447246  19.120  18.720  19.850
 2116DPPE   GL147247  19.270  18.990  20.240
 2116DPPE   GL247248  18.950  19.040  20.420
 2116DPPE   C1A47249  19.690  19.220  20.430
 2116DPPE   C2A47250  20.100  19.160  20.520
 2116DPPE   C3A47251  20.530  19.280  20.700
 2116DPPE   C4A47252  20.740  19.280  21.060
 2116DPPE   C1B47253  18.840  18.930  20.820
 2116DPPE   C2B47254  18.910  19.020  21.200
 2116DPPE   C3B47255  19.060  19.010  21.580
 2116DPPE   C4B47256  18.850  19.100  21.940
 2117DPPE   NH347257   3.580   8.880  16.640
 2117DPPE   PO447258   4.000   8.880  17.010
 2117DPPE   GL147259   4.160   9.230  17.020
 2117DPPE   GL247260   4.170   9.360  16.740
 2117DPPE   C1A47261   4.550   9.420  17.050
 2117DPPE   C2A47262   4.970   9.590  17.140
 2117DPPE   C3A47263   5.330   9.970  16.980
 2117DPPE   C4A47264   5.520  10.250  16.690
 2117DPPE   C1B47265   4.470   9.750  16.700
 2117DPPE   C2B47266   4.860   9.900  16.690
 2117DPPE   C3B47267   5.220   9.810  16.480
 2117DPPE   C4B47268   5.310   9.980  16.060
 2118DPPE   NH347269   4.310  25.110  16.780
 2118DPPE   PO447270   4.510  24.760  16.600
 2118DPPE   GL147271   4.350  24.340  16.740
 2118DPPE   GL247272   3.990  24.180  16.740
 2118DPPE   C1A47273   4.620  24.070  17.020
 2118DPPE   C2A47274   4.760  23.680  16.940
 2118DPPE   C3A47275   4.630  23.340  16.850
 2118DPPE   C4A47276   4.490  23.000  16.590
 2118DPPE   C1B47277   4.310  23.840  16.640
 2118DPPE   C2B47278   4.750  23.830  16.380
 2118DPPE   C3B47279   5.260  23.900  16.280
 2118DPPE   C4B47280   5.540  24.080  16.390
 2119DPPE   NH347281  17.350   5.120  13.800
 2119DPPE   PO447282  17.660   5.190  13.960
 2119DPPE   GL147283  17.360   5.540  14.060
 2119DPPE   GL247284  17.110   5.370  14.200
 2119DPPE   C1A47285  17.140   5.760  13.790
 2119DPPE   C2A47286  17.040   6.130  13.390
 2119DPPE   C3A47287  16.950   6.410  13.200
 2119DPPE   C4A47288  17.110   6.750  12.930
 2119DPPE   C1B47289  16.840   5.660  14.200
 2119DPPE   C2B47290  16.750   5.960  14.500
 2119DPPE   C3B47291  16.880   6.340  14.570
 2119DPPE   C4B47292  16.800   6.800  14.700
 2120DPPE   NH347293  27.230  15.560  16.670
 2120DPPE   PO447294  27.120  16.010  16.780
 2120DPPE   GL147295  26.660  15.920  16.670
 2120DPPE   GL247296  26.400  16.210  16.770
 2120DPPE   C1A47297  26.340  15.660  16.390
 2120DPPE   C2A47298  25.870  15.560  16.140
 2120DPPE   C3A47299  25.520  15.630  15.910
 2120DPPE   C4A47300  25.200  15.900  16.050
 2120DPPE   C1B47301  26.170  16.150  16.360
 2120DPPE   C2B47302  25.730  16.140  16.180
 2120DPPE   C3B47303  25.560  16.430  15.910
 2120DPPE   C4B47304  25.380  16.580  15.520
 2121DPPE   NH347305   6.450  25.820  17.040
 2121DPPE   PO447306   6.550  25.850  17.430
 2121DPPE   GL147307   6.670  25.390  17.310
 2121DPPE   GL247308   6.350  25.270  17.420
 2121DPPE   C1A47309   6.870  25.020  17.360
 2121DPPE   C2A47310   6.920  24.600  17.260
 2121DPPE   C3A47311   7.030  24.430  16.870
 2121DPPE   C4A47312   7.080  24.100  16.570
 2121DPPE   C1B47313   6.610  25.180  17.810
 2121DPPE   C2B47314   6.710  24.800  18.040
 2121DPPE   C3B47315   6.770  24.260  18.140
 2121DPPE   C4B47316   6.810  23.800  18.080
 2122DPPE   NH347317   7.880  16.180  11.380
 2122DPPE   PO447318   7.900  15.660  11.310
 2122DPPE   GL147319   7.460  15.350  11.260
 2122DPPE   GL247320   7.480  15.280  10.910
 2122DPPE   C1A47321   7.120  15.550  11.340
 2122DPPE   C2A47322   6.640  15.540  11.190
 2122DPPE   C3A47323   6.240  15.460  11.360
 2122DPPE   C4A47324   5.760  15.420  11.550
 2122DPPE   C1B47325   7.040  15.160  11.060
 2122DPPE   C2B47326   6.750  14.980  11.340
 2122DPPE   C3B47327   6.250  14.980  11.430
 2122DPPE   C4B47328   5.930  14.760  11.520
 2123DPPE   NH347329  13.960  21.710  17.890
 2123DPPE   PO447330  13.550  21.650  17.970
 2123DPPE   GL147331  13.190  21.550  18.240
 2123DPPE   GL247332  13.330  21.280  18.390
 2123DPPE   C1A47333  12.810  21.530  18.390
 2123DPPE   C2A47334  12.370  21.550  18.520
 2123DPPE   C3A47335  11.900  21.500  18.710
 2123DPPE   C4A47336  11.770  21.730  19.040
 2123DPPE   C1B47337  13.080  21.210  18.740
 2123DPPE   C2B47338  12.970  21.070  19.170
 2123DPPE   C3B47339  12.910  21.310  19.570
 2123DPPE   C4B47340  13.170  21.440  19.900
 2124DPPE   NH347341  18.050  10.650  25.420
 2124DPPE   PO447342  18.290  10.760  25.030
 2124DPPE   GL147343  18.190  10.830  24.630
 2124DPPE   GL247344  18.360  10.950  24.310
 2124DPPE   C1A47345  17.910  10.660  24.240
 2124DPPE   C2A47346  17.420  10.830  24.350
 2124DPPE   C3A47347  17.020  11.020  24.060
 2124DPPE   C4A47348  16.600  11.070  24.210
 2124DPPE   C1B47349  18.180  11.330  24.460
 2124DPPE   C2B47350  17.900  11.620  24.610
 2124DPPE   C3B47351  17.480  11.570  24.760
 2124DPPE   C4B47352  17.290  11.950  24.900
 2125DPPE   NH347353   9.490  24.000   5.700
 2125DPPE   PO447354   9.670  24.160   6.040
 2125DPPE   GL147355   9.950  24.300   6.380
 2125DPPE   GL247356   9.750  24.160   6.600
 2125DPPE   C1A47357  10.280  24.240   6.680
 2125DPPE   C2A47358  10.520  24.200   7.120
 2125DPPE   C3A47359  10.800  23.850   7.170
 2125DPPE   C4A47360  10.980  23.670   7.430
 2125DPPE   C1B47361  10.020  23.770   6.740
 2125DPPE   C2B47362  10.370  23.470   6.950
 2125DPPE   C3B47363  10.340  23.110   7.250
 2125DPPE   C4B47364  10.270  22.700   7.130
 2126DPPE   NH347365  23.190  22.010  12.040
 2126DPPE   PO447366  23.160  22.410  11.790
 2126DPPE   GL147367  23.170  22.720  11.650
 2126DPPE   GL247368  22.980  22.890  11.430
 2126DPPE   C1A47369  23.650  22.930  11.730
 2126DPPE   C2A47370  24.070  23.160  11.730
 2126DPPE   C3A47371  24.220  23.560  11.860
 2126DPPE   C4A47372  24.640  23.770  12.000
 2126DPPE   C1B47373  23.330  23.070  11.250
 2126DPPE   C2B47374  23.850  22.980  11.250
 2126DPPE   C3B47375  24.230  23.220  11.260
 2126DPPE   C4B47376  24.550  23.450  11.470
 2127DPPE   NH347377  18.760  15.840  25.130
 2127DPPE   PO447378  18.530  15.460  24.900
 2127DPPE   GL147379  18.250  15.630  24.600
 2127DPPE   GL247380  18.170  15.910  24.410
 2127DPPE   C1A47381  17.840  15.440  24.440
 2127DPPE   C2A47382  17.410  15.480  24.290
 2127DPPE   C3A47383  17.140  15.780  24.350
 2127DPPE   C4A47384  17.090  16.200  24.170
 2127DPPE   C1B47385  18.050  15.670  24.030
 2127DPPE   C2B47386  17.760  15.520  23.820
 2127DPPE   C3B47387  17.490  15.490  23.470
 2127DPPE   C4B47388  17.100  15.330  23.180
 2128DPPE   NH347389  16.050   7.380   3.640
 2128DPPE   PO447390  15.780   7.260   3.950
 2128DPPE   GL147391  15.630   7.660   3.890
 2128DPPE   GL247392  15.920   7.780   3.910
 2128DPPE   C1A47393  15.370   7.860   3.710
 2128DPPE   C2A47394  15.120   8.190   3.860
 2128DPPE   C3A47395  14.880   8.510   3.520
 2128DPPE   C4A47396  14.610   8.860   3.400
 2128DPPE   C1B47397  16.140   7.770   4.320
 2128DPPE   C2B47398  16.090   7.890   4.720
 2128DPPE   C3B47399  16.180   7.780   5.120
 2128DPPE   C4B47400  16.340   7.590   5.470
 2129DPPE   NH347401  11.020  23.500  15.910
 2129DPPE   PO447402  11.040  23.080  15.870
 2129DPPE   GL147403  10.670  23.190  16.110
 2129DPPE   GL247404  10.540  23.050  16.490
 2129DPPE   C1A47405  10.410  23.450  16.160
 2129DPPE   C2A47406  10.130  23.550  16.550
 2129DPPE   C3A47407   9.770  23.430  16.870
 2129DPPE   C4A47408   9.520  23.380  17.160
 2129DPPE   C1B47409  10.340  23.010  16.850
 2129DPPE   C2B47410  10.040  23.020  17.010
 2129DPPE   C3B47411   9.820  22.840  17.310
 2129DPPE   C4B47412   9.510  22.470  17.300
 2130DPPE   NH347413   8.490  19.980  12.460
 2130DPPE   PO447414   8.350  19.600  12.240
 2130DPPE   GL147415   8.020  19.800  12.310
 2130DPPE   GL247416   8.020  19.950  12.540
 2130DPPE   C1A47417   7.600  19.800  12.210
 2130DPPE   C2A47418   7.170  20.020  12.180
 2130DPPE   C3A47419   6.890  20.270  12.120
 2130DPPE   C4A47420   6.510  20.380  12.280
 2130DPPE   C1B47421   7.570  20.110  12.570
 2130DPPE   C2B47422   7.190  20.250  12.620
 2130DPPE   C3B47423   6.780  20.290  12.720
 2130DPPE   C4B47424   6.300  20.300  12.690
 2131DPPE   NH347425  16.120  28.020  19.760
 2131DPPE   PO447426  16.460  27.940  19.740
 2131DPPE   GL147427  16.560  27.500  19.630
 2131DPPE   GL247428  16.420  27.310  19.790
 2131DPPE   C1A47429  16.600  27.030  19.400
 2131DPPE   C2A47430  16.370  26.730  19.210
 2131DPPE   C3A47431  16.160  26.400  19.150
 2131DPPE   C4A47432  16.030  26.050  19.260
 2131DPPE   C1B47433  16.120  27.040  19.520
 2131DPPE   C2B47434  15.990  26.680  19.550
 2131DPPE   C3B47435  15.670  26.430  19.330
 2131DPPE   C4B47436  15.360  26.700  19.090
 2132DPPE   NH347437   6.800  14.250  24.970
 2132DPPE   PO447438   6.730  13.780  24.900
 2132DPPE   GL147439   6.990  13.550  24.630
 2132DPPE   GL247440   7.090  13.790  24.430
 2132DPPE   C1A47441   7.460  13.500  24.500
 2132DPPE   C2A47442   7.700  13.740  24.290
 2132DPPE   C3A47443   8.000  13.990  24.110
 2132DPPE   C4A47444   8.390  13.840  24.080
 2132DPPE   C1B47445   7.230  13.800  24.000
 2132DPPE   C2B47446   7.580  13.890  23.790
 2132DPPE   C3B47447   7.900  14.110  23.600
 2132DPPE   C4B47448   8.220  14.300  23.490
 2133DPPE   NH347449  21.410  25.820  20.930
 2133DPPE   PO447450  21.520  25.440  20.680
 2133DPPE   GL147451  21.440  25.360  20.250
 2133DPPE   GL247452  21.270  25.700  20.100
 2133DPPE   C1A47453  21.440  25.150  19.840
 2133DPPE   C2A47454  21.170  25.160  19.470
 2133DPPE   C3A47455  20.950  25.230  19.170
 2133DPPE   C4A47456  20.870  25.510  18.810
 2133DPPE   C1B47457  21.470  25.680  19.790
 2133DPPE   C2B47458  21.640  25.500  19.430
 2133DPPE   C3B47459  21.870  25.410  18.990
 2133DPPE   C4B47460  21.890  25.780  18.700
 2134DPPE   NH347461  24.250  17.860  12.590
 2134DPPE   PO447462  24.190  17.980  13.000
 2134DPPE   GL147463  24.650  18.060  12.800
 2134DPPE   GL247464  24.770  17.900  12.530
 2134DPPE   C1A47465  25.050  18.170  12.890
 2134DPPE   C2A47466  25.540  18.280  12.870
 2134DPPE   C3A47467  25.910  18.560  12.900
 2134DPPE   C4A47468  25.850  19.010  12.740
 2134DPPE   C1B47469  24.940  17.500  12.500
 2134DPPE   C2B47470  25.170  17.270  12.520
 2134DPPE   C3B47471  25.570  17.090  12.480
 2134DPPE   C4B47472  26.100  17.070  12.590
 2135DPPE   NH347473  12.970   5.140  12.360
 2135DPPE   PO447474  13.360   4.930  12.640
 2135DPPE   GL147475  13.410   5.460  12.620
 2135DPPE   GL247476  13.220   5.650  12.300
 2135DPPE   C1A47477  13.740   5.740  12.880
 2135DPPE   C2A47478  14.000   6.030  12.680
 2135DPPE   C3A47479  14.060   6.530  12.650
 2135DPPE   C4A47480  14.200   6.920  12.820
 2135DPPE   C1B47481  13.140   6.070  12.390
 2135DPPE   C2B47482  13.010   6.520  12.430
 2135DPPE   C3B47483  12.740   6.800  12.670
 2135DPPE   C4B47484  12.820   7.200  12.890
 2136DPPE   NH347485  20.620  12.900   6.490
 2136DPPE   PO447486  20.380  12.660   6.150
 2136DPPE   GL147487  20.580  12.430   6.050
 2136DPPE   GL247488  20.480  12.210   5.940
 2136DPPE   C1A47489  20.740  12.430   5.600
 2136DPPE   C2A47490  21.070  12.480   5.500
 2136DPPE   C3A47491  21.500  12.510   5.370
 2136DPPE   C4A47492  21.710  12.370   5.030
 2136DPPE   C1B47493  20.600  11.890   5.630
 2136DPPE   C2B47494  20.490  11.570   5.480
 2136DPPE   C3B47495  20.430  11.340   5.220
 2136DPPE   C4B47496  20.500  10.900   5.160
 2137DPPE   NH347497  19.650  24.180   3.850
 2137DPPE   PO447498  19.970  23.820   4.020
 2137DPPE   GL147499  19.960  23.580   4.310
 2137DPPE   GL247500  20.250  23.460   4.190
 2137DPPE   C1A47501  20.220  23.360   4.710
 2137DPPE   C2A47502  20.550  23.260   4.940
 2137DPPE   C3A47503  20.720  23.410   5.230
 2137DPPE   C4A47504  20.920  23.750   5.300
 2137DPPE   C1B47505  20.060  23.090   4.170
 2137DPPE   C2B47506  19.740  22.770   4.450
 2137DPPE   C3B47507  19.770  22.610   4.840
 2137DPPE   C4B47508  19.910  22.260   5.130
 2138DPPE   NH347509  22.560   7.530   7.210
 2138DPPE   PO447510  22.750   7.450   7.580
 2138DPPE   GL147511  22.320   7.420   7.650
 2138DPPE   GL247512  22.270   7.460   8.000
 2138DPPE   C1A47513  22.070   7.790   7.710
 2138DPPE   C2A47514  21.870   8.160   7.840
 2138DPPE   C3A47515  21.660   8.410   7.480
 2138DPPE   C4A47516  21.640   8.460   7.040
 2138DPPE   C1B47517  22.230   7.930   8.160
 2138DPPE   C2B47518  22.110   8.340   8.300
 2138DPPE   C3B47519  21.790   8.570   8.540
 2138DPPE   C4B47520  21.360   8.410   8.650
 2139DPPE   NH347521   4.240  16.670   8.880
 2139DPPE   PO447522   4.000  16.860   9.110
 2139DPPE   GL147523   4.410  17.110   9.160
 2139DPPE   GL247524   4.540  16.880   9.330
 2139DPPE   C1A47525   4.870  17.130   9.000
 2139DPPE   C2A47526   5.310  17.290   9.020
 2139DPPE   C3A47527   5.600  17.450   9.250
 2139DPPE   C4A47528   5.960  17.380   9.380
 2139DPPE   C1B47529   5.060  16.830   9.350
 2139DPPE   C2B47530   5.460  16.930   9.340
 2139DPPE   C3B47531   5.810  17.050   8.990
 2139DPPE   C4B47532   6.300  17.050   8.950
 2140DPPE   NH347533  16.420   6.240  18.650
 2140DPPE   PO447534  16.540   6.470  19.000
 2140DPPE   GL147535  16.370   6.600  19.460
 2140DPPE   GL247536  16.510   6.900  19.410
 2140DPPE   C1A47537  16.020   6.810  19.680
 2140DPPE   C2A47538  15.770   7.070  19.840
 2140DPPE   C3A47539  15.750   7.500  20.110
 2140DPPE   C4A47540  16.110   7.830  20.110
 2140DPPE   C1B47541  16.480   7.380  19.390
 2140DPPE   C2B47542  16.250   7.750  19.260
 2140DPPE   C3B47543  15.940   8.080  19.050
 2140DPPE   C4B47544  15.730   8.390  18.830
 2141DPPE   NH347545  10.040  11.860  12.200
 2141DPPE   PO447546  10.140  11.570  12.440
 2141DPPE   GL147547   9.770  11.270  12.420
 2141DPPE   GL247548   9.840  10.950  12.290
 2141DPPE   C1A47549   9.520  10.990  12.690
 2141DPPE   C2A47550   9.400  10.530  12.730
 2141DPPE   C3A47551   9.630  10.200  12.710
 2141DPPE   C4A47552   9.660   9.880  12.950
 2141DPPE   C1B47553   9.890  10.650  12.620
 2141DPPE   C2B47554  10.080  10.340  12.560
 2141DPPE   C3B47555  10.110   9.840  12.640
 2141DPPE   C4B47556   9.960   9.510  12.810
 2142DPPE   NH347557   6.800  24.630  13.500
 2142DPPE   PO447558   7.170  24.900  13.640
 2142DPPE   GL147559   7.390  24.580  13.600
 2142DPPE   GL247560   7.120  24.320  13.710
 2142DPPE   C1A47561   7.830  24.530  13.530
 2142DPPE   C2A47562   7.940  24.090  13.340
 2142DPPE   C3A47563   7.970  23.670  13.310
 2142DPPE   C4A47564   8.250  23.330  13.080
 2142DPPE   C1B47565   7.540  24.150  13.730
 2142DPPE   C2B47566   7.900  23.850  13.780
 2142DPPE   C3B47567   8.280  23.880  14.020
 2142DPPE   C4B47568   8.660  24.150  14.040
 2143DPPE   NH347569  11.460  15.350  16.900
 2143DPPE   PO447570  11.790  15.140  16.810
 2143DPPE   GL147571  11.550  14.870  16.960
 2143DPPE   GL247572  11.230  14.940  17.100
 2143DPPE   C1A47573  11.600  14.610  17.280
 2143DPPE   C2A47574  11.610  14.500  17.740
 2143DPPE   C3A47575  11.390  14.500  18.020
 2143DPPE   C4A47576  11.150  14.520  18.430
 2143DPPE   C1B47577  10.780  14.830  17.140
 2143DPPE   C2B47578  10.590  14.470  17.340
 2143DPPE   C3B47579  10.210  14.350  17.260
 2143DPPE   C4B47580   9.860  14.090  17.100
 2144DPPE   NH347581  21.230  11.280  12.710
 2144DPPE   PO447582  21.010  10.920  12.730
 2144DPPE   GL147583  21.380  10.640  12.760
 2144DPPE   GL247584  21.630  10.830  12.720
 2144DPPE   C1A47585  21.700  10.370  12.910
 2144DPPE   C2A47586  22.070  10.120  12.920
 2144DPPE   C3A47587  22.430  10.120  12.620
 2144DPPE   C4A47588  22.770   9.920  12.750
 2144DPPE   C1B47589  22.050  10.750  12.870
 2144DPPE   C2B47590  22.420  10.470  13.060
 2144DPPE   C3B47591  22.470   9.930  13.200
 2144DPPE   C4B47592  22.190   9.610  13.070
 2145DPPE   NH347593  12.760  11.690  14.000
 2145DPPE   PO447594  12.380  11.710  14.030
 2145DPPE   GL147595  12.260  11.930  14.420
 2145DPPE   GL247596  12.130  12.220  14.470
 2145DPPE   C1A47597  11.970  11.760  14.690
 2145DPPE   C2A47598  11.610  11.730  14.840
 2145DPPE   C3A47599  11.190  11.770  14.830
 2145DPPE   C4A47600  10.820  11.620  14.650
 2145DPPE   C1B47601  11.750  12.020  14.330
 2145DPPE   C2B47602  11.330  11.820  14.320
 2145DPPE   C3B47603  11.000  11.580  14.230
 2145DPPE   C4B47604  10.640  11.280  14.140
 2146DPPE   NH347605  12.620  19.730  17.460
 2146DPPE   PO447606  12.440  20.150  17.510
 2146DPPE   GL147607  12.050  20.390  17.680
 2146DPPE   GL247608  12.090  20.710  17.810
 2146DPPE   C1A47609  11.650  20.380  17.750
 2146DPPE   C2A47610  11.480  20.730  17.750
 2146DPPE   C3A47611  11.120  20.860  17.770
 2146DPPE   C4A47612  10.780  20.850  17.920
 2146DPPE   C1B47613  11.980  20.530  18.120
 2146DPPE   C2B47614  11.790  20.750  18.520
 2146DPPE   C3B47615  11.660  20.850  19.020
 2146DPPE   C4B47616  11.580  21.150  18.820
 2147DPPE   NH347617  28.390  15.800  11.000
 2147DPPE   PO447618  28.260  16.300  11.000
 2147DPPE   GL147619  27.990  16.510  11.160
 2147DPPE   GL247620  27.920  16.740  11.040
 2147DPPE   C1A47621  27.590  16.230  11.230
 2147DPPE   C2A47622  27.260  15.940  11.060
 2147DPPE   C3A47623  26.900  15.710  11.020
 2147DPPE   C4A47624  26.590  15.330  11.060
 2147DPPE   C1B47625  27.500  16.710  11.180
 2147DPPE   C2B47626  27.270  16.650  11.510
 2147DPPE   C3B47627  27.030  16.510  11.890
 2147DPPE   C4B47628  26.710  16.190  11.820
 2148DPPE   NH347629  11.700  11.300  12.990
 2148DPPE   PO447630  11.760  11.720  13.240
 2148DPPE   GL147631  11.470  11.530  13.470
 2148DPPE   GL247632  11.210  11.790  13.540
 2148DPPE   C1A47633  10.970  11.380  13.490
 2148DPPE   C2A47634  10.530  11.350  13.480
 2148DPPE   C3A47635  10.270  11.170  13.740
 2148DPPE   C4A47636  10.020  11.470  13.810
 2148DPPE   C1B47637  10.780  11.720  13.730
 2148DPPE   C2B47638  10.440  11.770  13.950
 2148DPPE   C3B47639  10.220  11.550  14.250
 2148DPPE   C4B47640  10.000  11.140  14.370
 2149DPPE   NH347641  11.680  16.260  17.060
 2149DPPE   PO447642  11.470  16.670  16.960
 2149DPPE   GL147643  11.120  16.710  17.140
 2149DPPE   GL247644  11.290  16.650  17.460
 2149DPPE   C1A47645  10.730  16.840  17.220
 2149DPPE   C2A47646  10.410  16.580  17.210
 2149DPPE   C3A47647   9.950  16.550  17.270
 2149DPPE   C4A47648   9.590  16.690  17.560
 2149DPPE   C1B47649  11.090  16.610  17.860
 2149DPPE   C2B47650  10.830  16.470  18.090
 2149DPPE   C3B47651  10.390  16.510  18.210
 2149DPPE   C4B47652   9.950  16.340  18.260
 2150DPPE   NH347653  17.160  27.390   7.200
 2150DPPE   PO447654  17.450  27.520   7.450
 2150DPPE   GL147655  17.470  27.320   7.810
 2150DPPE   GL247656  17.570  27.430   8.090
 2150DPPE   C1A47657  17.420  26.920   8.090
 2150DPPE   C2A47658  17.290  26.520   8.180
 2150DPPE   C3A47659  17.040  26.230   7.960
 2150DPPE   C4A47660  16.620  26.000   7.730
 2150DPPE   C1B47661  17.900  27.510   8.310
 2150DPPE   C2B47662  18.130  27.190   8.640
 2150DPPE   C3B47663  18.150  26.860   8.860
 2150DPPE   C4B47664  18.210  26.450   8.740
 2151DPPE   NH347665   1.050  16.850  16.120
 2151DPPE   PO447666   1.160  17.140  15.890
 2151DPPE   GL147667   1.520  17.170  15.900
 2151DPPE   GL247668   1.730  17.450  15.940
 2151DPPE   C1A47669   1.790  17.090  15.620
 2151DPPE   C2A47670   2.150  17.110  15.350
 2151DPPE   C3A47671   2.530  17.160  15.490
 2151DPPE   C4A47672   2.890  17.430  15.570
 2151DPPE   C1B47673   2.130  17.460  15.780
 2151DPPE   C2B47674   2.470  17.690  15.450
 2151DPPE   C3B47675   2.500  17.910  15.160
 2151DPPE   C4B47676   2.780  17.700  14.810
 2152DPPE   NH347677   4.920   9.590  11.090
 2152DPPE   PO447678   5.370   9.350  10.900
 2152DPPE   GL147679   5.780   9.370  11.260
 2152DPPE   GL247680   5.840   9.600  10.880
 2152DPPE   C1A47681   5.860   9.650  11.570
 2152DPPE   C2A47682   6.240   9.810  11.800
 2152DPPE   C3A47683   6.480  10.030  12.020
 2152DPPE   C4A47684   6.740  10.290  12.240
 2152DPPE   C1B47685   5.890   9.900  11.170
 2152DPPE   C2B47686   5.810  10.150  11.460
 2152DPPE   C3B47687   5.910  10.500  11.290
 2152DPPE   C4B47688   6.160  10.840  11.280
 2153DPPE   NH347689  13.240  17.070  18.170
 2153DPPE   PO447690  12.750  17.010  18.110
 2153DPPE   GL147691  12.470  17.060  18.460
 2153DPPE   GL247692  12.090  17.190  18.350
 2153DPPE   C1A47693  12.290  16.990  18.820
 2153DPPE   C2A47694  12.070  16.890  19.200
 2153DPPE   C3A47695  11.690  16.840  19.420
 2153DPPE   C4A47696  11.470  16.740  19.790
 2153DPPE   C1B47697  11.790  17.180  18.680
 2153DPPE   C2B47698  11.750  17.210  19.100
 2153DPPE   C3B47699  11.490  17.370  19.430
 2153DPPE   C4B47700  11.300  17.350  19.870
 2154DPPE   NH347701  17.820  29.460  14.940
 2154DPPE   PO447702  17.670  29.450  15.410
 2154DPPE   GL147703  17.520  29.040  15.340
 2154DPPE   GL247704  17.210  28.980  15.170
 2154DPPE   C1A47705  17.430  28.560  15.420
 2154DPPE   C2A47706  17.250  28.200  15.260
 2154DPPE   C3A47707  17.150  27.800  15.470
 2154DPPE   C4A47708  17.070  27.480  15.690
 2154DPPE   C1B47709  17.160  28.590  14.900
 2154DPPE   C2B47710  17.090  28.150  14.780
 2154DPPE   C3B47711  17.040  27.740  14.630
 2154DPPE   C4B47712  17.110  27.230  14.540
 2155DPPE   NH347713  25.760  21.700  17.760
 2155DPPE   PO447714  25.490  21.620  18.070
 2155DPPE   GL147715  25.470  21.270  17.780
 2155DPPE   GL247716  25.380  20.970  17.850
 2155DPPE   C1A47717  25.430  21.100  17.340
 2155DPPE   C2A47718  25.020  21.120  17.000
 2155DPPE   C3A47719  24.610  20.900  16.880
 2155DPPE   C4A47720  24.270  20.680  16.830
 2155DPPE   C1B47721  25.440  20.590  17.770
 2155DPPE   C2B47722  25.140  20.270  17.840
 2155DPPE   C3B47723  24.760  20.010  17.630
 2155DPPE   C4B47724  24.330  20.110  17.630
 2156DPPE   NH347725  12.820  10.610  14.550
 2156DPPE   PO447726  13.180  10.770  14.770
 2156DPPE   GL147727  13.050  10.480  15.010
 2156DPPE   GL247728  12.940  10.270  14.840
 2156DPPE   C1A47729  13.040  10.100  15.300
 2156DPPE   C2A47730  12.890   9.670  15.570
 2156DPPE   C3A47731  12.570   9.280  15.620
 2156DPPE   C4A47732  12.200   9.110  15.350
 2156DPPE   C1B47733  12.490  10.350  15.110
 2156DPPE   C2B47734  12.210  10.560  15.370
 2156DPPE   C3B47735  11.780  10.420  15.630
 2156DPPE   C4B47736  11.450  10.130  15.890
 2157DPPE   NH347737  10.510  17.050  15.280
 2157DPPE   PO447738  10.470  17.190  15.690
 2157DPPE   GL147739  10.420  17.390  16.190
 2157DPPE   GL247740  10.720  17.570  16.330
 2157DPPE   C1A47741  10.050  17.470  16.390
 2157DPPE   C2A47742   9.860  17.400  16.720
 2157DPPE   C3A47743   9.510  17.370  16.730
 2157DPPE   C4A47744   9.260  17.010  16.710
 2157DPPE   C1B47745  10.430  17.630  16.720
 2157DPPE   C2B47746  10.220  17.580  17.050
 2157DPPE   C3B47747   9.810  17.480  17.260
 2157DPPE   C4B47748   9.490  17.280  17.340
 2158DPPE   NH347749   8.090  25.900  22.920
 2158DPPE   PO447750   7.740  25.780  23.220
 2158DPPE   GL147751   7.780  25.390  23.030
 2158DPPE   GL247752   7.710  25.380  22.640
 2158DPPE   C1A47753   8.060  25.040  22.910
 2158DPPE   C2A47754   7.890  24.620  22.820
 2158DPPE   C3A47755   7.700  24.240  22.910
 2158DPPE   C4A47756   7.470  23.850  23.120
 2158DPPE   C1B47757   7.890  25.110  22.360
 2158DPPE   C2B47758   7.820  24.660  22.310
 2158DPPE   C3B47759   7.950  24.310  22.410
 2158DPPE   C4B47760   8.100  24.040  22.130
 2159DPPE   NH347761   9.570  20.130  26.780
 2159DPPE   PO447762   9.110  20.090  26.590
 2159DPPE   GL147763   9.410  20.100  26.290
 2159DPPE   GL247764   9.790  20.280  26.380
 2159DPPE   C1A47765   9.570  20.060  25.910
 2159DPPE   C2A47766   9.630  20.080  25.610
 2159DPPE   C3A47767   9.480  20.060  25.370
 2159DPPE   C4A47768   9.170  20.210  25.380
 2159DPPE   C1B47769   9.720  20.520  25.900
 2159DPPE   C2B47770  10.050  20.410  25.620
 2159DPPE   C3B47771  10.210  20.460  25.250
 2159DPPE   C4B47772  10.370  20.510  24.770
 2160DPPE   NH347773  10.440  17.630  15.450
 2160DPPE   PO447774  10.350  17.430  14.980
 2160DPPE   GL147775   9.990  17.440  15.160
 2160DPPE   GL247776   9.700  17.360  15.020
 2160DPPE   C1A47777   9.850  17.620  15.470
 2160DPPE   C2A47778   9.430  17.610  15.660
 2160DPPE   C3A47779   9.250  17.830  15.900
 2160DPPE   C4A47780   8.940  17.680  16.300
 2160DPPE   C1B47781   9.200  17.280  14.900
 2160DPPE   C2B47782   8.810  17.200  14.700
 2160DPPE   C3B47783   8.620  16.990  14.950
 2160DPPE   C4B47784   8.590  16.570  15.060
 2161DPPE   NH347785  15.110  11.530  16.670
 2161DPPE   PO447786  15.190  11.970  16.740
 2161DPPE   GL147787  14.840  11.750  17.050
 2161DPPE   GL247788  15.040  11.520  17.180
 2161DPPE   C1A47789  14.400  11.630  16.980
 2161DPPE   C2A47790  14.030  11.670  17.150
 2161DPPE   C3A47791  13.800  11.300  17.160
 2161DPPE   C4A47792  13.620  10.850  17.240
 2161DPPE   C1B47793  14.650  11.260  17.320
 2161DPPE   C2B47794  14.570  10.950  17.610
 2161DPPE   C3B47795  14.180  10.960  17.470
 2161DPPE   C4B47796  13.790  11.060  17.670
 2162DPPE   NH347797   9.420  16.620  12.680
 2162DPPE   PO447798   9.100  16.340  12.540
 2162DPPE   GL147799   8.940  16.440  12.960
 2162DPPE   GL247800   9.080  16.690  13.060
 2162DPPE   C1A47801   8.700  16.580  13.380
 2162DPPE   C2A47802   8.390  16.210  13.480
 2162DPPE   C3A47803   8.250  15.950  13.830
 2162DPPE   C4A47804   8.190  15.920  14.330
 2162DPPE   C1B47805   8.810  17.030  13.260
 2162DPPE   C2B47806   8.640  16.930  13.670
 2162DPPE   C3B47807   8.450  16.650  13.950
 2162DPPE   C4B47808   8.430  16.260  14.090
 2163DPPE   NH347809  16.680  12.000  18.140
 2163DPPE   PO447810  16.660  11.760  17.770
 2163DPPE   GL147811  16.490  11.470  17.910
 2163DPPE   GL247812  16.820  11.310  17.940
 2163DPPE   C1A47813  16.220  11.290  18.120
 2163DPPE   C2A47814  16.120  10.930  18.410
 2163DPPE   C3A47815  15.990  10.720  18.780
 2163DPPE   C4A47816  15.570  10.460  18.860
 2163DPPE   C1B47817  16.760  11.110  18.360
 2163DPPE   C2B47818  16.530  10.750  18.510
 2163DPPE   C3B47819  16.370  10.360  18.420
 2163DPPE   C4B47820  16.290   9.910  18.630
 2164DPPE   NH347821   5.030  15.250  23.360
 2164DPPE   PO447822   5.140  15.560  23.030
 2164DPPE   GL147823   5.350  15.760  22.830
 2164DPPE   GL247824   5.300  16.080  22.880
 2164DPPE   C1A47825   5.810  15.900  22.880
 2164DPPE   C2A47826   6.240  15.780  22.990
 2164DPPE   C3A47827   6.650  15.850  23.100
 2164DPPE   C4A47828   6.850  15.470  23.050
 2164DPPE   C1B47829   5.630  16.270  22.610
 2164DPPE   C2B47830   5.850  16.500  22.270
 2164DPPE   C3B47831   6.170  16.450  22.100
 2164DPPE   C4B47832   6.540  16.190  22.150
 2165DPPE   NH347833  15.590  17.020  20.180
 2165DPPE   PO447834  15.910  16.740  20.350
 2165DPPE   GL147835  15.760  16.740  20.680
 2165DPPE   GL247836  15.480  16.670  20.600
 2165DPPE   C1A47837  15.570  16.680  21.150
 2165DPPE   C2A47838  15.100  16.890  21.320
 2165DPPE   C3A47839  14.850  16.760  21.440
 2165DPPE   C4A47840  14.410  16.880  21.640
 2165DPPE   C1B47841  15.140  16.430  20.610
 2165DPPE   C2B47842  14.970  16.050  20.680
 2165DPPE   C3B47843  14.790  15.630  20.730
 2165DPPE   C4B47844  14.400  15.420  20.880
 2166DPPE   NH347845   6.410  10.900  23.120
 2166DPPE   PO447846   6.520  11.050  23.470
 2166DPPE   GL147847   6.780  11.230  23.260
 2166DPPE   GL247848   6.900  10.880  23.170
 2166DPPE   C1A47849   7.170  11.420  23.150
 2166DPPE   C2A47850   7.290  11.300  22.780
 2166DPPE   C3A47851   7.400  11.260  22.380
 2166DPPE   C4A47852   7.440  11.390  21.910
 2166DPPE   C1B47853   7.030  10.820  22.810
 2166DPPE   C2B47854   7.190  10.800  22.390
 2166DPPE   C3B47855   7.440  10.810  22.010
 2166DPPE   C4B47856   7.460  11.050  21.560
 2167DPPE   NH347857  15.270   5.670  18.380
 2167DPPE   PO447858  15.020   5.550  18.730
 2167DPPE   GL147859  14.680   5.770  18.620
 2167DPPE   GL247860  14.860   5.990  18.600
 2167DPPE   C1A47861  14.370   5.860  18.390
 2167DPPE   C2A47862  14.110   6.260  18.360
 2167DPPE   C3A47863  14.180   6.640  18.630
 2167DPPE   C4A47864  14.480   6.870  18.900
 2167DPPE   C1B47865  14.540   6.260  18.590
 2167DPPE   C2B47866  14.510   6.540  18.220
 2167DPPE   C3B47867  14.750   6.540  17.910
 2167DPPE   C4B47868  14.870   6.530  17.500
 2168DPPE   NH347869  11.450  19.300  16.340
 2168DPPE   PO447870  11.210  19.480  15.970
 2168DPPE   GL147871  11.020  19.740  16.320
 2168DPPE   GL247872  11.000  19.440  16.490
 2168DPPE   C1A47873  10.640  19.680  16.620
 2168DPPE   C2A47874  10.250  19.670  16.390
 2168DPPE   C3A47875   9.830  19.850  16.240
 2168DPPE   C4A47876   9.640  20.030  15.950
 2168DPPE   C1B47877  10.680  19.250  16.780
 2168DPPE   C2B47878  10.340  19.250  16.800
 2168DPPE   C3B47879   9.970  19.010  16.940
 2168DPPE   C4B47880   9.720  18.980  17.300
 2169DPPE   NH347881  10.280  14.860  14.340
 2169DPPE   PO447882  10.670  14.550  14.380
 2169DPPE   GL147883  10.290  14.370  14.480
 2169DPPE   GL247884  10.120  14.490  14.740
 2169DPPE   C1A47885   9.990  14.070  14.440
 2169DPPE   C2A47886   9.630  13.870  14.540
 2169DPPE   C3A47887   9.260  13.640  14.660
 2169DPPE   C4A47888   8.940  13.360  14.440
 2169DPPE   C1B47889   9.840  14.170  14.930
 2169DPPE   C2B47890   9.480  13.840  15.070
 2169DPPE   C3B47891   9.050  13.840  15.100
 2169DPPE   C4B47892   8.730  14.040  14.920
 2170DPPE   NH347893   8.900  20.290  10.710
 2170DPPE   PO447894   8.650  20.250  11.140
 2170DPPE   GL147895   8.250  20.180  10.870
 2170DPPE   GL247896   8.200  20.510  10.680
 2170DPPE   C1A47897   7.770  20.230  11.010
 2170DPPE   C2A47898   7.430  20.050  10.920
 2170DPPE   C3A47899   7.100  19.940  10.730
 2170DPPE   C4A47900   6.750  20.200  10.460
 2170DPPE   C1B47901   7.760  20.710  10.690
 2170DPPE   C2B47902   7.510  20.580  10.900
 2170DPPE   C3B47903   7.180  20.850  11.030
 2170DPPE   C4B47904   6.840  20.700  11.180
 2171DPPE   NH347905  16.930   8.780  14.160
 2171DPPE   PO447906  16.540   8.840  14.140
 2171DPPE   GL147907  16.590   8.390  14.150
 2171DPPE   GL247908  16.870   8.310  13.920
 2171DPPE   C1A47909  16.580   8.000  14.360
 2171DPPE   C2A47910  16.610   7.750  14.590
 2171DPPE   C3A47911  16.770   7.670  15.000
 2171DPPE   C4A47912  16.690   7.880  15.360
 2171DPPE   C1B47913  16.490   8.180  13.710
 2171DPPE   C2B47914  16.630   7.870  13.720
 2171DPPE   C3B47915  16.890   7.560  13.850
 2171DPPE   C4B47916  17.020   7.190  13.950
 2172DPPE   NH347917  16.670  14.910  20.570
 2172DPPE   PO447918  16.440  15.240  20.410
 2172DPPE   GL147919  16.200  15.390  20.620
 2172DPPE   GL247920  16.120  15.670  20.460
 2172DPPE   C1A47921  16.130  15.160  20.970
 2172DPPE   C2A47922  16.260  14.950  21.290
 2172DPPE   C3A47923  16.370  15.180  21.680
 2172DPPE   C4A47924  16.360  15.450  22.140
 2172DPPE   C1B47925  15.870  15.740  20.710
 2172DPPE   C2B47926  15.670  15.900  21.170
 2172DPPE   C3B47927  15.470  16.180  21.280
 2172DPPE   C4B47928  15.590  16.470  21.630
 2173DPPE   NH347929   6.010   9.320  20.710
 2173DPPE   PO447930   6.280   9.110  20.850
 2173DPPE   GL147931   6.560   9.320  20.610
 2173DPPE   GL247932   6.370   9.320  20.290
 2173DPPE   C1A47933   6.800   9.590  20.650
 2173DPPE   C2A47934   7.080   9.950  20.770
 2173DPPE   C3A47935   7.370  10.200  20.470
 2173DPPE   C4A47936   7.620  10.170  20.020
 2173DPPE   C1B47937   6.510   9.260  19.830
 2173DPPE   C2B47938   6.600   9.390  19.490
 2173DPPE   C3B47939   6.390   9.470  19.200
 2173DPPE   C4B47940   5.990   9.660  19.130
 2174DPPE   NH347941   1.990  18.910  19.490
 2174DPPE   PO447942   2.030  18.630  19.090
 2174DPPE   GL147943   2.390  18.560  19.330
 2174DPPE   GL247944   2.530  18.780  19.510
 2174DPPE   C1A47945   2.680  18.220  19.130
 2174DPPE   C2A47946   2.960  18.000  18.890
 2174DPPE   C3A47947   3.200  17.580  18.750
 2174DPPE   C4A47948   3.220  17.570  18.260
 2174DPPE   C1B47949   3.000  18.680  19.540
 2174DPPE   C2B47950   3.490  18.720  19.640
 2174DPPE   C3B47951   3.870  18.580  19.720
 2174DPPE   C4B47952   4.370  18.650  19.580
 2175DPPE   NH347953  16.960  19.020  20.710
 2175DPPE   PO447954  16.760  18.970  21.120
 2175DPPE   GL147955  16.850  19.210  21.440
 2175DPPE   GL247956  17.150  19.180  21.440
 2175DPPE   C1A47957  16.480  19.070  21.840
 2175DPPE   C2A47958  16.310  19.310  22.210
 2175DPPE   C3A47959  15.830  19.200  22.370
 2175DPPE   C4A47960  15.500  18.940  22.580
 2175DPPE   C1B47961  16.900  19.400  21.920
 2175DPPE   C2B47962  16.800  19.480  22.280
 2175DPPE   C3B47963  16.820  19.220  22.600
 2175DPPE   C4B47964  16.690  19.250  23.080
 2176DPPE   NH347965  12.480  12.160  27.020
 2176DPPE   PO447966  12.290  12.430  27.270
 2176DPPE   GL147967  12.160  12.470  26.900
 2176DPPE   GL247968  12.410  12.620  26.820
 2176DPPE   C1A47969  11.930  12.860  26.730
 2176DPPE   C2A47970  11.800  13.290  26.710
 2176DPPE   C3A47971  11.630  13.710  26.800
 2176DPPE   C4A47972  11.540  13.860  27.240
 2176DPPE   C1B47973  12.610  12.710  26.390
 2176DPPE   C2B47974  12.410  12.990  26.010
 2176DPPE   C3B47975  12.210  13.280  25.690
 2176DPPE   C4B47976  12.270  13.690  25.580
 2177DPPE   NH347977  14.900  13.100  17.020
 2177DPPE   PO447978  15.020  13.510  17.230
 2177DPPE   GL147979  14.760  13.190  17.600
 2177DPPE   GL247980  14.790  12.820  17.440
 2177DPPE   C1A47981  14.650  13.050  18.090
 2177DPPE   C2A47982  14.670  13.360  18.410
 2177DPPE   C3A47983  14.680  13.270  18.940
 2177DPPE   C4A47984  14.710  13.580  19.220
 2177DPPE   C1B47985  14.640  12.290  17.470
 2177DPPE   C2B47986  14.460  11.830  17.410
 2177DPPE   C3B47987  14.120  11.520  17.570
 2177DPPE   C4B47988  13.750  11.560  17.800
 2178DPPE   NH347989  10.870  12.160  12.580
 2178DPPE   PO447990  10.520  11.870  12.540
 2178DPPE   GL147991  10.210  11.780  12.860
 2178DPPE   GL247992   9.940  11.970  12.750
 2178DPPE   C1A47993  10.080  11.400  13.190
 2178DPPE   C2A47994  10.170  10.970  13.310
 2178DPPE   C3A47995  10.020  10.770  13.670
 2178DPPE   C4A47996   9.810  11.090  13.970
 2178DPPE   C1B47997   9.660  11.540  12.860
 2178DPPE   C2B47998   9.550  11.220  13.110
 2178DPPE   C3B47999   9.600  11.050  13.500
 2178DPPE   C4B48000   9.260  10.710  13.770
 2179DPPE   NH348001  15.690  22.340   7.470
 2179DPPE   PO448002  15.990  22.100   7.320
 2179DPPE   GL148003  16.100  22.390   7.000
 2179DPPE   GL248004  16.450  22.500   6.960
 2179DPPE   C1A48005  15.910  22.570   6.650
 2179DPPE   C2A48006  15.850  22.840   6.340
 2179DPPE   C3A48007  15.760  23.050   6.030
 2179DPPE   C4A48008  15.600  23.340   5.800
 2179DPPE   C1B48009  16.490  22.760   6.670
 2179DPPE   C2B48010  16.480  22.970   6.310
 2179DPPE   C3B48011  16.210  23.240   6.100
 2179DPPE   C4B48012  16.040  23.450   5.760
 2180DPPE   NH348013  11.260  13.690  13.640
 2180DPPE   PO448014  10.910  13.590  13.400
 2180DPPE   GL148015  10.680  13.440  13.570
 2180DPPE   GL248016  10.370  13.630  13.530
 2180DPPE   C1A48017  10.380  13.350  13.920
 2180DPPE   C2A48018  10.030  13.140  14.100
 2180DPPE   C3A48019   9.530  12.950  14.080
 2180DPPE   C4A48020   9.200  12.860  14.100
 2180DPPE   C1B48021   9.900  13.590  13.660
 2180DPPE   C2B48022   9.650  13.670  14.010
 2180DPPE   C3B48023   9.300  13.530  14.180
 2180DPPE   C4B48024   9.070  13.270  13.950
 2181DPPE   NH348025  11.150  15.230  15.760
 2181DPPE   PO448026  11.470  15.170  16.100
 2181DPPE   GL148027  11.230  15.010  16.560
 2181DPPE   GL248028  10.990  15.230  16.720
 2181DPPE   C1A48029  11.030  14.670  16.720
 2181DPPE   C2A48030  10.680  14.380  16.800
 2181DPPE   C3A48031  10.340  14.080  16.860
 2181DPPE   C4A48032  10.250  13.730  17.040
 2181DPPE   C1B48033  10.950  15.410  17.240
 2181DPPE   C2B48034  10.760  15.250  17.510
 2181DPPE   C3B48035  10.420  15.300  17.700
 2181DPPE   C4B48036  10.110  15.240  17.930
 2182DPPE   NH348037   4.710  18.200  23.230
 2182DPPE   PO448038   4.700  17.730  23.170
 2182DPPE   GL148039   4.900  17.650  22.800
 2182DPPE   GL248040   4.840  18.000  22.570
 2182DPPE   C1A48041   5.270  17.540  22.820
 2182DPPE   C2A48042   5.550  17.270  22.590
 2182DPPE   C3A48043   6.000  17.250  22.550
 2182DPPE   C4A48044   6.320  17.580  22.480
 2182DPPE   C1B48045   5.260  17.830  22.470
 2182DPPE   C2B48046   5.700  17.780  22.450
 2182DPPE   C3B48047   5.960  18.150  22.260
 2182DPPE   C4B48048   6.070  18.300  21.880
 2183DPPE   NH348049  13.670  11.990  15.760
 2183DPPE   PO448050  13.930  11.800  15.930
 2183DPPE   GL148051  13.850  11.820  16.410
 2183DPPE   GL248052  14.070  11.790  16.660
 2183DPPE   C1A48053  13.560  11.870  16.810
 2183DPPE   C2A48054  13.350  12.070  17.120
 2183DPPE   C3A48055  13.280  12.060  17.590
 2183DPPE   C4A48056  13.290  11.690  17.940
 2183DPPE   C1B48057  13.740  11.450  16.700
 2183DPPE   C2B48058  13.380  11.380  16.910
 2183DPPE   C3B48059  13.070  11.160  17.130
 2183DPPE   C4B48060  12.870  10.850  16.980
 2184DPPE   NH348061  23.450  14.510  10.010
 2184DPPE   PO448062  23.690  14.610   9.680
 2184DPPE   GL148063  23.690  14.570   9.300
 2184DPPE   GL248064  23.820  14.220   9.330
 2184DPPE   C1A48065  23.910  14.650   8.970
 2184DPPE   C2A48066  24.340  14.870   9.020
 2184DPPE   C3A48067  24.790  15.060   8.900
 2184DPPE   C4A48068  25.260  15.100   8.670
 2184DPPE   C1B48069  24.220  14.050   9.480
 2184DPPE   C2B48070  24.520  13.880   9.620
 2184DPPE   C3B48071  24.900  13.750   9.410
 2184DPPE   C4B48072  25.180  13.450   9.550
 2185DPPE   NH348073  10.080   7.400   7.300
 2185DPPE   PO448074  10.040   7.710   7.150
 2185DPPE   GL148075  10.170   8.070   7.190
 2185DPPE   GL248076  10.020   8.420   7.100
 2185DPPE   C1A48077  10.550   8.240   7.230
 2185DPPE   C2A48078  10.730   8.480   6.980
 2185DPPE   C3A48079  11.000   8.790   6.980
 2185DPPE   C4A48080  11.400   8.930   6.980
 2185DPPE   C1B48081  10.250   8.630   7.440
 2185DPPE   C2B48082  10.270   8.760   7.920
 2185DPPE   C3B48083  10.430   8.860   8.230
 2185DPPE   C4B48084  10.620   9.060   8.640
 2186DPPE   NH348085  21.830  19.530  16.880
 2186DPPE   PO448086  22.200  19.670  16.730
 2186DPPE   GL148087  22.590  19.760  16.800
 2186DPPE   GL248088  22.720  19.500  17.040
 2186DPPE   C1A48089  23.040  19.880  16.920
 2186DPPE   C2A48090  23.220  19.850  17.330
 2186DPPE   C3A48091  23.470  19.520  17.510
 2186DPPE   C4A48092  23.170  19.210  17.780
 2186DPPE   C1B48093  22.870  19.480  17.410
 2186DPPE   C2B48094  22.800  19.480  17.930
 2186DPPE   C3B48095  23.020  19.390  18.230
 2186DPPE   C4B48096  23.090  19.220  18.620
 2187DPPE   NH348097  19.310  11.390   6.380
 2187DPPE   PO448098  18.870  11.340   6.250
 2187DPPE   GL148099  18.960  11.290   5.900
 2187DPPE   GL248100  19.210  11.200   5.900
 2187DPPE   C1A48101  18.900  11.170   5.490
 2187DPPE   C2A48102  19.050  10.990   5.090
 2187DPPE   C3A48103  19.370  10.700   4.850
 2187DPPE   C4A48104  19.390  10.310   4.650
 2187DPPE   C1B48105  19.290  10.850   5.590
 2187DPPE   C2B48106  19.700  10.780   5.440
 2187DPPE   C3B48107  20.260  10.700   5.670
 2187DPPE   C4B48108  20.620  10.540   5.760
 2188DPPE   NH348109  22.730  20.730  15.150
 2188DPPE   PO448110  22.670  20.430  15.650
 2188DPPE   GL148111  22.990  20.740  15.910
 2188DPPE   GL248112  23.190  20.770  16.070
 2188DPPE   C1A48113  23.200  21.260  15.940
 2188DPPE   C2A48114  23.300  21.660  16.180
 2188DPPE   C3A48115  23.570  22.020  16.350
 2188DPPE   C4A48116  23.760  22.130  16.710
 2188DPPE   C1B48117  23.480  21.060  16.220
 2188DPPE   C2B48118  23.600  21.410  16.430
 2188DPPE   C3B48119  23.710  21.630  16.880
 2188DPPE   C4B48120  23.810  21.630  17.250
 2189DPPE   NH348121  19.600  11.450   7.380
 2189DPPE   PO448122  19.880  11.080   7.420
 2189DPPE   GL148123  20.070  10.810   7.080
 2189DPPE   GL248124  20.010  10.640   7.110
 2189DPPE   C1A48125  20.530  10.630   6.980
 2189DPPE   C2A48126  20.930  10.450   6.910
 2189DPPE   C3A48127  20.950  10.110   6.690
 2189DPPE   C4A48128  21.100   9.630   6.800
 2189DPPE   C1B48129  20.210  10.260   7.010
 2189DPPE   C2B48130  20.460  10.000   6.690
 2189DPPE   C3B48131  20.610   9.670   6.690
 2189DPPE   C4B48132  20.660   9.340   6.970
 2190DPPE   NH348133  10.850  17.180  16.020
 2190DPPE   PO448134  11.300  17.170  16.290
 2190DPPE   GL148135  11.040  17.290  16.630
 2190DPPE   GL248136  10.840  17.120  16.580
 2190DPPE   C1A48137  10.790  17.300  17.020
 2190DPPE   C2A48138  10.470  17.270  17.320
 2190DPPE   C3A48139  10.160  17.450  17.610
 2190DPPE   C4A48140   9.830  17.470  17.830
 2190DPPE   C1B48141  10.430  17.150  16.690
 2190DPPE   C2B48142  10.170  16.990  16.890
 2190DPPE   C3B48143   9.810  16.940  16.990
 2190DPPE   C4B48144   9.530  16.620  17.010
 2191DPPE   NH348145  17.040   4.800   9.300
 2191DPPE   PO448146  17.350   5.000   9.450
 2191DPPE   GL148147  17.610   5.400   9.390
 2191DPPE   GL248148  17.950   5.310   9.450
 2191DPPE   C1A48149  17.550   5.900   9.350
 2191DPPE   C2A48150  17.420   6.310   9.400
 2191DPPE   C3A48151  17.150   6.700   9.500
 2191DPPE   C4A48152  17.240   7.110   9.670
 2191DPPE   C1B48153  17.760   5.630   9.780
 2191DPPE   C2B48154  17.550   6.040   9.860
 2191DPPE   C3B48155  17.200   6.320   9.880
 2191DPPE   C4B48156  17.250   6.620  10.060
 2192DPPE   NH348157  10.670  16.670  15.770
 2192DPPE   PO448158  10.600  16.250  15.670
 2192DPPE   GL148159  10.240  16.190  15.710
 2192DPPE   GL248160  10.060  15.940  15.780
 2192DPPE   C1A48161   9.850  16.300  15.980
 2192DPPE   C2A48162   9.730  16.340  16.350
 2192DPPE   C3A48163   9.420  16.560  16.480
 2192DPPE   C4A48164   9.010  16.560  16.690
 2192DPPE   C1B48165   9.740  15.630  15.840
 2192DPPE   C2B48166   9.550  15.230  15.900
 2192DPPE   C3B48167   9.780  14.980  16.040
 2192DPPE   C4B48168   9.800  14.590  16.130
 2193DPPE   NH348169  14.310  16.520  19.250
 2193DPPE   PO448170  14.020  16.890  19.350
 2193DPPE   GL148171  13.640  16.880  19.500
 2193DPPE   GL248172  13.520  16.690  19.510
 2193DPPE   C1A48173  13.420  17.000  19.850
 2193DPPE   C2A48174  13.200  17.110  20.170
 2193DPPE   C3A48175  13.060  17.120  20.590
 2193DPPE   C4A48176  12.800  17.400  20.790
 2193DPPE   C1B48177  13.490  16.270  19.490
 2193DPPE   C2B48178  13.300  16.000  19.750
 2193DPPE   C3B48179  12.990  15.770  19.910
 2193DPPE   C4B48180  12.740  15.790  20.270
 2194DPPE   NH348181  12.670  19.930  16.630
 2194DPPE   PO448182  12.410  19.980  17.050
 2194DPPE   GL148183  12.070  19.760  17.430
 2194DPPE   GL248184  11.810  19.980  17.330
 2194DPPE   C1A48185  11.940  19.860  17.840
 2194DPPE   C2A48186  11.700  20.040  18.130
 2194DPPE   C3A48187  11.380  20.010  18.410
 2194DPPE   C4A48188  11.090  19.860  18.610
 2194DPPE   C1B48189  11.500  20.090  17.020
 2194DPPE   C2B48190  11.150  20.430  16.960
 2194DPPE   C3B48191  10.720  20.370  17.060
 2194DPPE   C4B48192  10.410  20.160  17.260
 2195DPPE   NH348193  13.310  23.690  17.930
 2195DPPE   PO448194  13.300  23.910  17.490
 2195DPPE   GL148195  13.350  24.380  17.600
 2195DPPE   GL248196  13.150  24.360  17.790
 2195DPPE   C1A48197  13.290  24.820  17.620
 2195DPPE   C2A48198  13.520  25.170  17.730
 2195DPPE   C3A48199  13.640  25.540  17.650
 2195DPPE   C4A48200  13.430  25.770  17.550
 2195DPPE   C1B48201  13.020  24.250  18.140
 2195DPPE   C2B48202  12.640  24.370  18.290
 2195DPPE   C3B48203  12.200  24.490  18.180
 2195DPPE   C4B48204  11.920  24.450  17.860
 2196DPPE   NH348205   5.160   9.160  11.360
 2196DPPE   PO448206   4.930   8.780  11.600
 2196DPPE   GL148207   5.150   9.090  11.950
 2196DPPE   GL248208   5.090   8.840  12.110
 2196DPPE   C1A48209   5.460   9.160  12.220
 2196DPPE   C2A48210   5.910   9.380  12.540
 2196DPPE   C3A48211   6.330   9.490  12.640
 2196DPPE   C4A48212   6.240   9.490  13.100
 2196DPPE   C1B48213   5.420   8.640  12.350
 2196DPPE   C2B48214   5.750   8.890  12.680
 2196DPPE   C3B48215   6.010   9.030  12.970
 2196DPPE   C4B48216   6.380   8.940  13.130
 2197DPPE   NH348217   8.860  21.640   4.660
 2197DPPE   PO448218   8.780  21.760   5.090
 2197DPPE   GL148219   8.860  21.610   5.400
 2197DPPE   GL248220   8.720  21.440   5.580
 2197DPPE   C1A48221   9.300  21.600   5.500
 2197DPPE   C2A48222   9.620  21.210   5.490
 2197DPPE   C3A48223   9.770  20.770   5.380
 2197DPPE   C4A48224   9.590  20.570   4.940
 2197DPPE   C1B48225   9.130  21.240   5.740
 2197DPPE   C2B48226   9.310  21.170   6.150
 2197DPPE   C3B48227   9.400  20.960   6.580
 2197DPPE   C4B48228   9.600  20.850   6.970
 2198DPPE   NH348229   9.130  26.470  18.300
 2198DPPE   PO448230   9.640  26.430  18.420
 2198DPPE   GL148231   9.800  26.010  18.600
 2198DPPE   GL248232   9.800  26.040  18.950
 2198DPPE   C1A48233  10.130  25.620  18.660
 2198DPPE   C2A48234  10.010  25.170  18.870
 2198DPPE   C3A48235  10.110  24.730  19.080
 2198DPPE   C4A48236  10.130  24.450  19.510
 2198DPPE   C1B48237   9.910  25.620  19.130
 2198DPPE   C2B48238  10.040  25.320  19.470
 2198DPPE   C3B48239  10.260  25.330  19.800
 2198DPPE   C4B48240  10.510  25.420  20.220
 2199DPPE   NH348241  14.210   5.700  16.430
 2199DPPE   PO448242  14.410   5.880  16.820
 2199DPPE   GL148243  14.510   6.060  16.480
 2199DPPE   GL248244  14.530   6.360  16.600
 2199DPPE   C1A48245  14.590   6.260  16.060
 2199DPPE   C2A48246  14.520   6.700  15.930
 2199DPPE   C3A48247  14.730   7.110  16.150
 2199DPPE   C4A48248  14.760   7.590  16.310
 2199DPPE   C1B48249  14.100   6.550  16.800
 2199DPPE   C2B48250  13.840   6.820  16.670
 2199DPPE   C3B48251  13.370   7.020  16.580
 2199DPPE   C4B48252  13.110   7.360  16.600
 2200DPPE   NH348253  13.210  12.060   1.270
 2200DPPE   PO448254  13.170  11.720   1.170
 2200DPPE   GL148255  13.360  11.630   1.610
 2200DPPE   GL248256  13.160  11.900   1.800
 2200DPPE   C1A48257  13.730  11.770   1.920
 2200DPPE   C2A48258  13.930  12.080   2.160
 2200DPPE   C3A48259  14.100  12.480   2.290
 2200DPPE   C4A48260  14.470  12.740   2.470
 2200DPPE   C1B48261  13.300  11.790   2.200
 2200DPPE   C2B48262  13.000  11.710   2.550
 2200DPPE   C3B48263  13.060  11.560   2.930
 2200DPPE   C4B48264  13.230  11.220   3.010
 2201DPPE   NH348265  11.690  21.670  16.260
 2201DPPE   PO448266  11.320  21.780  16.080
 2201DPPE   GL148267  10.940  21.850  16.290
 2201DPPE   GL248268  10.680  21.650  16.340
 2201DPPE   C1A48269  10.850  21.820  16.740
 2201DPPE   C2A48270  10.580  22.020  16.900
 2201DPPE   C3A48271  10.260  22.060  17.220
 2201DPPE   C4A48272   9.770  21.980  17.260
 2201DPPE   C1B48273  10.310  21.900  16.490
 2201DPPE   C2B48274  10.070  22.130  16.700
 2201DPPE   C3B48275   9.890  22.410  16.910
 2201DPPE   C4B48276   9.450  22.340  16.710
 2202DPPE   NH348277  20.670  15.500   5.450
 2202DPPE   PO448278  20.500  15.890   5.150
 2202DPPE   GL148279  20.540  16.010   4.770
 2202DPPE   GL248280  20.290  16.130   4.520
 2202DPPE   C1A48281  20.670  15.820   4.360
 2202DPPE   C2A48282  20.840  15.500   4.200
 2202DPPE   C3A48283  20.760  15.200   3.800
 2202DPPE   C4A48284  20.550  14.990   3.410
 2202DPPE   C1B48285  20.500  16.330   4.180
 2202DPPE   C2B48286  20.490  16.440   3.750
 2202DPPE   C3B48287  20.780  16.380   3.460
 2202DPPE   C4B48288  20.650  16.250   3.060
 2203DPPE   NH348289  22.750  21.380   8.490
 2203DPPE   PO448290  23.040  21.070   8.470
 2203DPPE   GL148291  23.210  21.270   8.200
 2203DPPE   GL248292  23.520  21.270   8.330
 2203DPPE   C1A48293  23.240  21.710   8.100
 2203DPPE   C2A48294  23.450  22.020   7.900
 2203DPPE   C3A48295  23.790  22.060   8.000
 2203DPPE   C4A48296  24.010  22.100   8.390
 2203DPPE   C1B48297  23.770  21.220   8.130
 2203DPPE   C2B48298  24.120  21.360   7.870
 2203DPPE   C3B48299  24.530  21.550   7.920
 2203DPPE   C4B48300  24.870  21.700   7.650
 2204DPPE   NH348301  12.900  20.570  17.810
 2204DPPE   PO448302  12.940  20.200  18.150
 2204DPPE   GL148303  12.930  20.560  18.310
 2204DPPE   GL248304  12.660  20.380  18.490
 2204DPPE   C1A48305  12.880  20.750  18.730
 2204DPPE   C2A48306  12.550  20.790  19.060
 2204DPPE   C3A48307  12.460  21.180  19.340
 2204DPPE   C4A48308  12.380  21.480  19.620
 2204DPPE   C1B48309  12.340  20.160  18.700
 2204DPPE   C2B48310  12.160  20.200  19.200
 2204DPPE   C3B48311  11.710  20.300  19.210
 2204DPPE   C4B48312  11.310  20.540  19.170
 2205DPPE   NH348313  19.290  15.970   4.360
 2205DPPE   PO448314  19.110  15.650   4.290
 2205DPPE   GL148315  19.390  15.450   4.050
 2205DPPE   GL248316  19.710  15.330   4.120
 2205DPPE   C1A48317  19.590  15.540   3.620
 2205DPPE   C2A48318  19.510  15.520   3.230
 2205DPPE   C3A48319  19.580  15.790   2.810
 2205DPPE   C4A48320  19.510  16.090   2.680
 2205DPPE   C1B48321  20.040  15.500   3.770
 2205DPPE   C2B48322  20.450  15.510   3.620
 2205DPPE   C3B48323  20.770  15.410   3.340
 2205DPPE   C4B48324  21.200  15.420   3.400
 2206DPPE   NH348325  12.210  19.010  16.580
 2206DPPE   PO448326  12.260  19.100  17.010
 2206DPPE   GL148327  12.160  19.300  17.430
 2206DPPE   GL248328  12.130  19.140  17.760
 2206DPPE   C1A48329  11.680  19.410  17.570
 2206DPPE   C2A48330  11.220  19.400  17.660
 2206DPPE   C3A48331  10.840  19.300  17.760
 2206DPPE   C4A48332  10.560  19.510  17.910
 2206DPPE   C1B48333  11.920  19.290  17.960
 2206DPPE   C2B48334  11.570  19.560  18.020
 2206DPPE   C3B48335  11.130  19.730  18.110
 2206DPPE   C4B48336  10.850  19.520  18.330
 2207DPPE   NH348337  10.500  11.650  26.210
 2207DPPE   PO448338  10.240  11.780  25.960
 2207DPPE   GL148339  10.320  11.740  25.580
 2207DPPE   GL248340  10.030  11.440  25.410
 2207DPPE   C1A48341  10.420  11.660  25.080
 2207DPPE   C2A48342  10.260  11.570  24.680
 2207DPPE   C3A48343  10.430  11.720  24.340
 2207DPPE   C4A48344  10.580  11.940  24.140
 2207DPPE   C1B48345   9.950  11.850  25.260
 2207DPPE   C2B48346   9.790  12.360  25.220
 2207DPPE   C3B48347   9.560  12.730  25.330
 2207DPPE   C4B48348   9.280  13.110  25.140
 2208DPPE   NH348349  10.650  18.430  14.960
 2208DPPE   PO448350  10.370  18.710  14.880
 2208DPPE   GL148351  10.170  18.490  15.090
 2208DPPE   GL248352   9.880  18.340  15.030
 2208DPPE   C1A48353   9.790  18.520  15.450
 2208DPPE   C2A48354   9.650  18.590  15.840
 2208DPPE   C3A48355   9.410  18.630  16.140
 2208DPPE   C4A48356   9.170  18.620  16.520
 2208DPPE   C1B48357   9.590  17.960  15.190
 2208DPPE   C2B48358   9.210  18.080  15.250
 2208DPPE   C3B48359   8.890  18.080  15.510
 2208DPPE   C4B48360   8.740  17.980  15.930
 2209DPPE   NH348361   9.760  12.440  11.610
 2209DPPE   PO448362   9.670  12.040  11.850
 2209DPPE   GL148363   9.210  11.950  11.840
 2209DPPE   GL248364   9.040  11.990  11.600
 2209DPPE   C1A48365   9.090  11.580  12.080
 2209DPPE   C2A48366   9.300  11.110  12.230
 2209DPPE   C3A48367   9.170  10.640  12.150
 2209DPPE   C4A48368   9.100  10.230  11.980
 2209DPPE   C1B48369   8.730  11.910  11.910
 2209DPPE   C2B48370   8.580  11.470  12.010
 2209DPPE   C3B48371   8.700  11.000  11.910
 2209DPPE   C4B48372   8.700  10.570  12.010
 2210DPPE   NH348373  12.360  16.580  18.110
 2210DPPE   PO448374  12.730  16.320  18.000
 2210DPPE   GL148375  12.410  16.110  18.410
 2210DPPE   GL248376  12.200  15.830  18.280
 2210DPPE   C1A48377  12.340  15.990  18.780
 2210DPPE   C2A48378  12.030  15.990  19.040
 2210DPPE   C3A48379  11.640  15.960  19.220
 2210DPPE   C4A48380  11.380  16.240  19.490
 2210DPPE   C1B48381  11.910  16.100  18.530
 2210DPPE   C2B48382  11.630  16.180  18.770
 2210DPPE   C3B48383  11.250  16.330  18.910
 2210DPPE   C4B48384  10.880  16.100  18.940
 2211DPPE   NH348385  22.980  24.650  19.700
 2211DPPE   PO448386  22.790  24.980  19.480
 2211DPPE   GL148387  22.470  24.860  19.210
 2211DPPE   GL248388  22.550  24.690  19.050
 2211DPPE   C1A48389  22.060  24.870  19.070
 2211DPPE   C2A48390  21.730  24.550  19.020
 2211DPPE   C3A48391  21.420  24.360  18.810
 2211DPPE   C4A48392  20.990  24.200  18.910
 2211DPPE   C1B48393  22.220  24.350  19.110
 2211DPPE   C2B48394  21.940  24.050  19.090
 2211DPPE   C3B48395  21.890  23.700  18.750
 2211DPPE   C4B48396  21.970  23.260  18.610
 2212DPPE   NH348397  27.680  13.080  11.490
 2212DPPE   PO448398  27.280  12.940  11.920
 2212DPPE   GL148399  27.110  13.210  11.580
 2212DPPE   GL248400  26.800  13.130  11.410
 2212DPPE   C1A48401  26.620  13.550  11.550
 2212DPPE   C2A48402  26.300  13.890  11.480
 2212DPPE   C3A48403  25.950  13.980  11.160
 2212DPPE   C4A48404  25.420  13.800  11.150
 2212DPPE   C1B48405  26.690  13.130  11.870
 2212DPPE   C2B48406  26.450  13.400  12.040
 2212DPPE   C3B48407  26.290  13.820  11.990
 2212DPPE   C4B48408  26.050  14.060  11.890
 2213DPPE   NH348409  14.890  19.810  18.760
 2213DPPE   PO448410  14.840  19.780  19.160
 2213DPPE   GL148411  14.520  19.800  19.430
 2213DPPE   GL248412  14.350  19.530  19.440
 2213DPPE   C1A48413  14.280  20.060  19.720
 2213DPPE   C2A48414  14.170  20.430  19.830
 2213DPPE   C3A48415  13.920  20.800  19.940
 2213DPPE   C4A48416  13.650  20.700  20.360
 2213DPPE   C1B48417  14.000  19.570  19.750
 2213DPPE   C2B48418  13.690  19.390  19.900
 2213DPPE   C3B48419  13.500  19.270  20.350
 2213DPPE   C4B48420  13.730  19.120  20.710
 2214DPPE   NH348421  27.900  18.170   7.580
 2214DPPE   PO448422  27.590  18.060   7.410
 2214DPPE   GL148423  27.110  17.950   7.540
 2214DPPE   GL248424  27.030  18.110   7.680
 2214DPPE   C1A48425  26.760  17.700   7.570
 2214DPPE   C2A48426  26.300  17.520   7.680
 2214DPPE   C3A48427  25.920  17.550   7.790
 2214DPPE   C4A48428  25.550  17.660   7.580
 2214DPPE   C1B48429  26.890  18.350   8.050
 2214DPPE   C2B48430  26.710  18.620   8.290
 2214DPPE   C3B48431  26.570  18.700   8.660
 2214DPPE   C4B48432  26.640  18.890   9.070
 2215DPPE   NH348433  21.010  21.620  16.920
 2215DPPE   PO448434  21.350  21.490  16.570
 2215DPPE   GL148435  21.680  21.720  16.580
 2215DPPE   GL248436  21.720  22.050  16.670
 2215DPPE   C1A48437  22.100  21.710  16.640
 2215DPPE   C2A48438  22.360  21.950  16.810
 2215DPPE   C3A48439  22.710  22.240  16.620
 2215DPPE   C4A48440  23.080  22.410  16.520
 2215DPPE   C1B48441  21.970  22.300  16.820
 2215DPPE   C2B48442  22.460  22.460  16.950
 2215DPPE   C3B48443  22.860  22.610  17.170
 2215DPPE   C4B48444  23.150  22.920  17.300
 2216DPPE   NH348445  18.490   9.360  22.380
 2216DPPE   PO448446  18.380   9.580  22.670
 2216DPPE   GL148447  17.950   9.570  22.690
 2216DPPE   GL248448  17.810   9.630  23.110
 2216DPPE   C1A48449  17.540   9.460  22.720
 2216DPPE   C2A48450  17.340   9.580  23.070
 2216DPPE   C3A48451  17.060   9.840  23.250
 2216DPPE   C4A48452  17.270  10.120  23.540
 2216DPPE   C1B48453  17.700   9.990  23.000
 2216DPPE   C2B48454  17.390  10.150  22.820
 2216DPPE   C3B48455  17.180  10.320  22.550
 2216DPPE   C4B48456  17.120  10.610  22.230
 2217DPPE   NH348457  12.950   4.720  18.320
 2217DPPE   PO448458  13.400   4.870  18.200
 2217DPPE   GL148459  13.530   5.270  18.140
 2217DPPE   GL248460  13.240   5.450  18.020
 2217DPPE   C1A48461  13.720   5.660  18.020
 2217DPPE   C2A48462  13.760   6.150  18.030
 2217DPPE   C3A48463  13.630   6.580  18.110
 2217DPPE   C4A48464  13.910   6.950  18.280
 2217DPPE   C1B48465  13.300   5.680  18.450
 2217DPPE   C2B48466  13.140   5.970  18.790
 2217DPPE   C3B48467  13.100   6.410  18.880
 2217DPPE   C4B48468  13.200   6.920  18.950
 2218DPPE   NH348469   8.680  19.190  13.040
 2218DPPE   PO448470   8.510  19.360  13.310
 2218DPPE   GL148471   8.090  19.200  13.390
 2218DPPE   GL248472   8.250  18.900  13.370
 2218DPPE   C1A48473   7.710  19.340  13.350
 2218DPPE   C2A48474   7.350  19.580  13.260
 2218DPPE   C3A48475   7.330  19.920  13.040
 2218DPPE   C4A48476   7.080  20.270  13.100
 2218DPPE   C1B48477   7.970  18.760  13.520
 2218DPPE   C2B48478   7.920  18.700  13.970
 2218DPPE   C3B48479   7.970  18.900  14.370
 2218DPPE   C4B48480   8.060  19.290  14.670
 2219DPPE   NH348481   9.070  12.920   9.910
 2219DPPE   PO448482   9.090  12.880  10.310
 2219DPPE   GL148483   8.760  12.610  10.210
 2219DPPE   GL248484   8.600  12.640   9.820
 2219DPPE   C1A48485   8.470  12.470  10.370
 2219DPPE   C2A48486   8.170  12.180  10.430
 2219DPPE   C3A48487   7.790  11.960  10.460
 2219DPPE   C4A48488   7.560  11.850  10.210
 2219DPPE   C1B48489   8.190  12.790   9.820
 2219DPPE   C2B48490   7.830  12.600   9.890
 2219DPPE   C3B48491   7.690  12.320  10.180
 2219DPPE   C4B48492   7.390  12.280  10.490
 2220DPPE   NH348493   9.050  19.370  13.830
 2220DPPE   PO448494   9.450  19.630  13.960
 2220DPPE   GL148495   9.330  19.280  14.250
 2220DPPE   GL248496   9.330  18.970  14.030
 2220DPPE   C1A48497   8.960  19.300  14.490
 2220DPPE   C2A48498   8.600  19.250  14.620
 2220DPPE   C3A48499   8.470  19.010  14.920
 2220DPPE   C4A48500   8.290  18.940  15.310
 2220DPPE   C1B48501   9.080  18.740  14.210
 2220DPPE   C2B48502   8.870  18.730  14.690
 2220DPPE   C3B48503   8.530  18.500  15.030
 2220DPPE   C4B48504   8.220  18.400  15.270
 2221DPPE   NH348505  16.770   4.700  11.910
 2221DPPE   PO448506  17.200   4.730  12.050
 2221DPPE   GL148507  17.470   5.020  12.140
 2221DPPE   GL248508  17.100   5.230  11.890
 2221DPPE   C1A48509  17.430   5.350  12.320
 2221DPPE   C2A48510  17.300   5.850  12.290
 2221DPPE   C3A48511  17.200   6.170  12.160
 2221DPPE   C4A48512  17.110   6.510  11.830
 2221DPPE   C1B48513  17.210   5.650  11.880
 2221DPPE   C2B48514  17.110   5.950  11.510
 2221DPPE   C3B48515  16.940   6.150  11.070
 2221DPPE   C4B48516  16.770   6.450  10.850
 2222DPPE   NH348517   4.980  11.600  10.260
 2222DPPE   PO448518   5.130  11.220  10.240
 2222DPPE   GL148519   5.480  11.500  10.200
 2222DPPE   GL248520   5.410  11.730  10.570
 2222DPPE   C1A48521   5.690  11.860  10.210
 2222DPPE   C2A48522   5.790  12.220  10.520
 2222DPPE   C3A48523   5.830  12.250  10.990
 2222DPPE   C4A48524   5.850  12.470  11.340
 2222DPPE   C1B48525   5.870  11.710  10.800
 2222DPPE   C2B48526   6.210  11.880  10.840
 2222DPPE   C3B48527   6.550  12.270  10.750
 2222DPPE   C4B48528   6.700  12.530  11.140
 2223DPPE   NH348529  12.540  28.880  13.300
 2223DPPE   PO448530  12.400  28.930  13.780
 2223DPPE   GL148531  12.420  28.470  13.710
 2223DPPE   GL248532  12.420  28.270  13.490
 2223DPPE   C1A48533  12.800  28.190  13.810
 2223DPPE   C2A48534  12.770  27.780  13.810
 2223DPPE   C3A48535  13.030  27.500  14.100
 2223DPPE   C4A48536  13.230  27.290  14.550
 2223DPPE   C1B48537  12.310  28.010  13.890
 2223DPPE   C2B48538  12.460  28.130  14.240
 2223DPPE   C3B48539  12.890  28.010  14.360
 2223DPPE   C4B48540  13.290  27.880  14.480
 2224DPPE   NH348541  16.310   9.600  26.180
 2224DPPE   PO448542  16.250   9.210  26.100
 2224DPPE   GL148543  15.810   9.420  26.040
 2224DPPE   GL248544  15.810   9.740  26.000
 2224DPPE   C1A48545  15.620   9.470  25.630
 2224DPPE   C2A48546  15.590   9.880  25.360
 2224DPPE   C3A48547  15.400  10.150  25.230
 2224DPPE   C4A48548  15.240  10.430  24.900
 2224DPPE   C1B48549  15.430   9.820  25.910
 2224DPPE   C2B48550  15.120  10.010  25.600
 2224DPPE   C3B48551  15.030  10.410  25.420
 2224DPPE   C4B48552  14.780  10.650  25.170
 2225DPPE   NH348553  15.280  20.710  19.720
 2225DPPE   PO448554  14.800  20.510  19.760
 2225DPPE   GL148555  14.580  20.490  20.180
 2225DPPE   GL248556  14.720  20.580  20.390
 2225DPPE   C1A48557  14.210  20.630  20.310
 2225DPPE   C2A48558  14.060  20.620  20.720
 2225DPPE   C3A48559  13.730  20.670  20.940
 2225DPPE   C4A48560  13.500  20.840  21.300
 2225DPPE   C1B48561  14.610  20.490  20.750
 2225DPPE   C2B48562  14.990  20.570  21.070
 2225DPPE   C3B48563  15.300  20.760  21.400
 2225DPPE   C4B48564  15.430  21.140  21.690
 2226DPPE   NH348565  11.440  22.040  16.540
 2226DPPE   PO448566  11.390  22.550  16.780
 2226DPPE   GL148567  11.030  22.660  16.970
 2226DPPE   GL248568  10.810  22.500  17.110
 2226DPPE   C1A48569  10.900  22.960  17.220
 2226DPPE   C2A48570  10.750  23.440  17.270
 2226DPPE   C3A48571  10.510  23.700  17.540
 2226DPPE   C4A48572  10.180  24.000  17.590
 2226DPPE   C1B48573  10.730  22.340  17.430
 2226DPPE   C2B48574  10.790  22.030  17.710
 2226DPPE   C3B48575  10.790  21.960  18.060
 2226DPPE   C4B48576  10.860  22.220  18.330
 2227DPPE   NH348577   9.470  19.060  13.080
 2227DPPE   PO448578   9.220  18.960  13.500
 2227DPPE   GL148579   8.820  18.940  13.770
 2227DPPE   GL248580   8.650  19.030  13.670
 2227DPPE   C1A48581   8.630  18.960  14.190
 2227DPPE   C2A48582   8.410  18.710  14.530
 2227DPPE   C3A48583   8.020  18.780  14.820
 2227DPPE   C4A48584   7.840  18.890  15.120
 2227DPPE   C1B48585   8.270  19.160  13.880
 2227DPPE   C2B48586   7.790  19.130  13.770
 2227DPPE   C3B48587   7.380  19.050  13.690
 2227DPPE   C4B48588   7.050  19.370  13.610
 2228DPPE   NH348589  10.190  19.550  14.620
 2228DPPE   PO448590   9.820  19.660  14.300
 2228DPPE   GL148591   9.330  19.800  14.470
 2228DPPE   GL248592   9.090  19.780  14.250
 2228DPPE   C1A48593   9.190  19.670  14.840
 2228DPPE   C2A48594   8.750  19.570  15.010
 2228DPPE   C3A48595   8.250  19.500  15.090
 2228DPPE   C4A48596   7.880  19.390  15.310
 2228DPPE   C1B48597   8.770  19.750  14.550
 2228DPPE   C2B48598   8.440  19.900  14.890
 2228DPPE   C3B48599   8.180  20.080  15.150
 2228DPPE   C4B48600   7.920  20.150  15.530
 2229DPPE   NH348601  19.960  23.800  10.550
 2229DPPE   PO448602  20.050  24.060  10.790
 2229DPPE   GL148603  19.880  24.320  10.440
 2229DPPE   GL248604  19.960  24.570  10.680
 2229DPPE   C1A48605  20.120  24.700  10.230
 2229DPPE   C2A48606  20.390  25.110  10.060
 2229DPPE   C3A48607  20.670  25.510   9.930
 2229DPPE   C4A48608  21.020  25.820  10.260
 2229DPPE   C1B48609  19.740  24.930  10.530
 2229DPPE   C2B48610  19.550  25.350  10.540
 2229DPPE   C3B48611  19.760  25.760  10.530
 2229DPPE   C4B48612  19.740  26.260  10.520
 2230DPPE   NH348613  12.570  18.920  17.680
 2230DPPE   PO448614  12.700  19.390  17.820
 2230DPPE   GL148615  12.420  19.550  18.050
 2230DPPE   GL248616  12.510  19.890  18.090
 2230DPPE   C1A48617  12.020  19.660  18.260
 2230DPPE   C2A48618  11.790  19.720  18.570
 2230DPPE   C3A48619  11.620  19.910  18.810
 2230DPPE   C4A48620  11.350  19.990  19.120
 2230DPPE   C1B48621  12.180  20.100  18.230
 2230DPPE   C2B48622  11.860  20.230  18.560
 2230DPPE   C3B48623  11.470  20.410  18.740
 2230DPPE   C4B48624  11.170  20.780  18.680
 2231DPPE   NH348625  24.150  24.000  18.830
 2231DPPE   PO448626  23.940  24.080  19.180
 2231DPPE   GL148627  23.710  23.760  19.310
 2231DPPE   GL248628  23.880  23.520  19.070
 2231DPPE   C1A48629  23.230  23.660  19.170
 2231DPPE   C2A48630  22.780  23.690  18.830
 2231DPPE   C3A48631  22.370  23.700  18.590
 2231DPPE   C4A48632  21.950  23.640  18.220
 2231DPPE   C1B48633  23.490  23.400  18.900
 2231DPPE   C2B48634  23.290  23.150  18.550
 2231DPPE   C3B48635  23.130  22.940  18.140
 2231DPPE   C4B48636  22.850  22.640  18.040
 2232DPPE   NH348637  23.990   7.750  11.770
 2232DPPE   PO448638  24.370   7.900  11.900
 2232DPPE   GL148639  24.010   8.240  11.890
 2232DPPE   GL248640  23.980   8.370  12.100
 2232DPPE   C1A48641  23.650   8.570  11.820
 2232DPPE   C2A48642  23.540   8.940  11.750
 2232DPPE   C3A48643  23.380   9.230  11.500
 2232DPPE   C4A48644  23.190   9.510  11.300
 2232DPPE   C1B48645  23.720   8.810  12.220
 2232DPPE   C2B48646  23.280   8.920  12.160
 2232DPPE   C3B48647  23.030   9.350  12.450
 2232DPPE   C4B48648  23.130   9.410  12.820
 2233DPPE   NH348649  18.120   4.960  12.730
 2233DPPE   PO448650  18.010   4.920  12.310
 2233DPPE   GL148651  17.890   5.320  12.050
 2233DPPE   GL248652  17.670   5.250  11.750
 2233DPPE   C1A48653  17.720   5.690  12.070
 2233DPPE   C2A48654  17.760   6.070  12.140
 2233DPPE   C3A48655  17.710   6.520  12.170
 2233DPPE   C4A48656  17.380   6.860  12.100
 2233DPPE   C1B48657  17.640   5.600  11.590
 2233DPPE   C2B48658  17.590   6.040  11.660
 2233DPPE   C3B48659  17.610   6.560  11.680
 2233DPPE   C4B48660  17.660   7.040  11.700
 2234DPPE   NH348661  15.810  13.870  18.720
 2234DPPE   PO448662  15.810  14.320  18.720
 2234DPPE   GL148663  15.400  14.090  18.900
 2234DPPE   GL248664  15.170  14.330  18.870
 2234DPPE   C1A48665  14.940  13.900  18.910
 2234DPPE   C2A48666  14.660  13.770  18.690
 2234DPPE   C3A48667  14.240  13.500  18.750
 2234DPPE   C4A48668  14.210  13.260  19.210
 2234DPPE   C1B48669  14.890  14.320  19.180
 2234DPPE   C2B48670  14.550  14.100  19.380
 2234DPPE   C3B48671  14.170  13.990  19.750
 2234DPPE   C4B48672  14.040  14.030  20.110
 2235DPPE   NH348673   2.680  10.730  16.140
 2235DPPE   PO448674   2.370  10.850  16.370
 2235DPPE   GL148675   2.770  10.920  16.600
 2235DPPE   GL248676   2.820  11.260  16.640
 2235DPPE   C1A48677   3.040  10.910  17.000
 2235DPPE   C2A48678   3.480  10.850  17.190
 2235DPPE   C3A48679   3.870  10.970  17.410
 2235DPPE   C4A48680   3.890  10.930  17.740
 2235DPPE   C1B48681   3.120  11.310  16.320
 2235DPPE   C2B48682   3.590  11.310  16.330
 2235DPPE   C3B48683   3.850  11.520  16.660
 2235DPPE   C4B48684   4.350  11.620  16.720
 2236DPPE   NH348685   8.980  20.080  13.880
 2236DPPE   PO448686   8.820  19.770  13.610
 2236DPPE   GL148687   8.630  19.630  13.740
 2236DPPE   GL248688   8.610  19.430  14.030
 2236DPPE   C1A48689   8.160  19.650  13.750
 2236DPPE   C2A48690   7.780  19.720  13.800
 2236DPPE   C3A48691   7.340  19.760  13.680
 2236DPPE   C4A48692   7.010  19.950  13.470
 2236DPPE   C1B48693   8.380  19.620  14.290
 2236DPPE   C2B48694   8.280  20.130  14.430
 2236DPPE   C3B48695   8.040  20.580  14.420
 2236DPPE   C4B48696   7.830  20.730  14.810
 2237DPPE   NH348697  12.260  21.330   1.420
 2237DPPE   PO448698  12.270  21.380   1.890
 2237DPPE   GL148699  12.510  21.150   2.240
 2237DPPE   GL248700  12.720  21.020   2.090
 2237DPPE   C1A48701  12.430  21.120   2.650
 2237DPPE   C2A48702  12.300  20.970   2.990
 2237DPPE   C3A48703  12.520  20.580   3.200
 2237DPPE   C4A48704  12.670  20.300   3.550
 2237DPPE   C1B48705  12.660  20.630   2.060
 2237DPPE   C2B48706  12.650  20.220   2.160
 2237DPPE   C3B48707  12.620  19.880   2.280
 2237DPPE   C4B48708  12.470  19.550   2.180
 2238DPPE   NH348709  23.880  19.000   8.970
 2238DPPE   PO448710  23.810  19.470   9.030
 2238DPPE   GL148711  24.090  19.350   8.680
 2238DPPE   GL248712  24.300  19.120   8.710
 2238DPPE   C1A48713  24.520  19.550   8.540
 2238DPPE   C2A48714  24.790  19.650   8.020
 2238DPPE   C3A48715  24.900  19.910   7.580
 2238DPPE   C4A48716  24.870  20.080   7.120
 2238DPPE   C1B48717  24.680  19.210   8.900
 2238DPPE   C2B48718  25.030  19.330   8.640
 2238DPPE   C3B48719  25.250  19.400   8.250
 2238DPPE   C4B48720  25.270  19.740   8.000
 2239DPPE   NH348721   9.240  10.360  24.920
 2239DPPE   PO448722   9.240  10.750  25.300
 2239DPPE   GL148723   9.400  10.870  24.910
 2239DPPE   GL248724   9.560  11.130  25.000
 2239DPPE   C1A48725   9.780  10.830  24.610
 2239DPPE   C2A48726   9.870  11.070  24.240
 2239DPPE   C3A48727  10.040  11.440  24.160
 2239DPPE   C4A48728  10.140  11.750  23.870
 2239DPPE   C1B48729   9.700  11.550  24.810
 2239DPPE   C2B48730   9.890  11.930  24.650
 2239DPPE   C3B48731   9.910  12.390  24.550
 2239DPPE   C4B48732   9.520  12.670  24.370
 2240DPPE   NH348733   4.200  11.360  10.520
 2240DPPE   PO448734   4.510  11.750  10.450
 2240DPPE   GL148735   4.770  12.010  10.510
 2240DPPE   GL248736   5.110  12.070  10.250
 2240DPPE   C1A48737   4.780  12.400  10.500
 2240DPPE   C2A48738   4.980  12.680  10.700
 2240DPPE   C3A48739   5.000  13.010  10.510
 2240DPPE   C4A48740   5.120  13.190  10.070
 2240DPPE   C1B48741   5.220  12.530  10.300
 2240DPPE   C2B48742   5.460  12.800  10.580
 2240DPPE   C3B48743   5.780  12.750  10.820
 2240DPPE   C4B48744   6.260  12.650  10.860
 2241DPPE   NH348745  15.820  19.670   5.390
 2241DPPE   PO448746  16.260  19.540   5.220
 2241DPPE   GL148747  16.070  19.770   4.830
 2241DPPE   GL248748  15.770  19.890   4.950
 2241DPPE   C1A48749  16.090  20.120   4.610
 2241DPPE   C2A48750  16.320  20.250   4.250
 2241DPPE   C3A48751  16.540  20.190   3.880
 2241DPPE   C4A48752  16.480  20.290   3.480
 2241DPPE   C1B48753  15.530  20.090   4.580
 2241DPPE   C2B48754  15.490  20.090   4.210
 2241DPPE   C3B48755  15.710  20.370   3.950
 2241DPPE   C4B48756  15.820  20.520   3.520
 2242DPPE   NH348757   2.490  13.720  11.250
 2242DPPE   PO448758   2.510  13.970  10.880
 2242DPPE   GL148759   2.950  13.980  10.860
 2242DPPE   GL248760   3.320  14.060  10.720
 2242DPPE   C1A48761   3.250  14.020  11.250
 2242DPPE   C2A48762   3.270  14.150  11.700
 2242DPPE   C3A48763   3.580  14.230  11.960
 2242DPPE   C4A48764   3.840  13.970  12.120
 2242DPPE   C1B48765   3.730  14.070  10.860
 2242DPPE   C2B48766   4.080  14.200  11.070
 2242DPPE   C3B48767   4.430  14.430  11.170
 2242DPPE   C4B48768   4.770  14.290  11.230
 2243DPPE   NH348769  14.660  14.780  17.980
 2243DPPE   PO448770  14.300  14.510  17.850
 2243DPPE   GL148771  14.100  14.170  17.990
 2243DPPE   GL248772  13.940  14.330  18.300
 2243DPPE   C1A48773  13.850  13.810  18.080
 2243DPPE   C2A48774  13.610  13.540  18.340
 2243DPPE   C3A48775  13.290  13.350  18.660
 2243DPPE   C4A48776  13.280  12.910  18.920
 2243DPPE   C1B48777  13.520  14.020  18.460
 2243DPPE   C2B48778  13.170  13.930  18.710
 2243DPPE   C3B48779  12.880  13.820  19.050
 2243DPPE   C4B48780  12.610  14.100  19.390
 2244DPPE   NH348781   5.730  14.940  23.720
 2244DPPE   PO448782   5.720  14.570  23.500
 2244DPPE   GL148783   6.080  14.540  23.400
 2244DPPE   GL248784   6.180  14.910  23.430
 2244DPPE   C1A48785   6.210  14.330  23.030
 2244DPPE   C2A48786   6.420  14.160  22.680
 2244DPPE   C3A48787   6.480  13.760  22.380
 2244DPPE   C4A48788   6.670  13.530  22.010
 2244DPPE   C1B48789   6.160  14.840  23.020
 2244DPPE   C2B48790   6.430  14.710  22.610
 2244DPPE   C3B48791   6.810  14.660  22.380
 2244DPPE   C4B48792   7.330  14.640  22.500
 2245DPPE   NH348793  16.070  21.370  19.910
 2245DPPE   PO448794  15.840  21.650  19.860
 2245DPPE   GL148795  15.820  21.720  20.270
 2245DPPE   GL248796  15.640  21.850  20.420
 2245DPPE   C1A48797  15.930  21.830  20.830
 2245DPPE   C2A48798  16.150  22.130  21.080
 2245DPPE   C3A48799  16.540  22.240  21.390
 2245DPPE   C4A48800  16.880  22.010  21.660
 2245DPPE   C1B48801  15.560  22.140  20.800
 2245DPPE   C2B48802  15.670  22.210  21.190
 2245DPPE   C3B48803  15.510  22.120  21.560
 2245DPPE   C4B48804  15.140  22.050  21.430
 2246DPPE   NH348805  11.420   5.620  14.200
 2246DPPE   PO448806  11.040   5.540  14.480
 2246DPPE   GL148807  10.860   5.900  14.380
 2246DPPE   GL248808  11.130   6.020  14.260
 2246DPPE   C1A48809  10.820   6.330  14.710
 2246DPPE   C2A48810  11.030   6.690  14.880
 2246DPPE   C3A48811  11.100   6.760  15.240
 2246DPPE   C4A48812  11.310   6.930  15.420
 2246DPPE   C1B48813  11.580   6.270  14.190
 2246DPPE   C2B48814  11.750   6.630  14.420
 2246DPPE   C3B48815  11.860   7.180  14.440
 2246DPPE   C4B48816  11.600   7.460  14.570
 2247DPPE   NH348817  13.780  14.570  17.960
 2247DPPE   PO448818  13.620  15.030  18.070
 2247DPPE   GL148819  13.440  14.760  18.320
 2247DPPE   GL248820  13.170  14.790  18.400
 2247DPPE   C1A48821  13.540  14.490  18.690
 2247DPPE   C2A48822  13.090  14.390  19.040
 2247DPPE   C3A48823  13.140  14.080  19.430
 2247DPPE   C4A48824  13.130  14.110  19.910
 2247DPPE   C1B48825  12.870  14.860  18.660
 2247DPPE   C2B48826  12.650  14.770  19.020
 2247DPPE   C3B48827  12.300  14.410  19.140
 2247DPPE   C4B48828  11.860  14.190  19.030
 2248DPPE   NH348829  14.960  12.620  16.790
 2248DPPE   PO448830  15.200  12.690  17.130
 2248DPPE   GL148831  15.070  12.400  17.570
 2248DPPE   GL248832  15.090  12.070  17.760
 2248DPPE   C1A48833  14.910  12.410  18.030
 2248DPPE   C2A48834  14.700  12.460  18.390
 2248DPPE   C3A48835  14.810  12.440  18.770
 2248DPPE   C4A48836  15.180  12.380  18.920
 2248DPPE   C1B48837  14.870  11.720  17.620
 2248DPPE   C2B48838  14.620  11.400  17.800
 2248DPPE   C3B48839  14.520  11.050  18.140
 2248DPPE   C4B48840  14.500  10.820  18.480
 2249DPPE   NH348841  23.200  20.770  21.290
 2249DPPE   PO448842  23.610  20.670  21.060
 2249DPPE   GL148843  23.220  20.470  20.850
 2249DPPE   GL248844  22.900  20.630  20.940
 2249DPPE   C1A48845  22.780  20.270  20.560
 2249DPPE   C2A48846  22.620  20.030  20.130
 2249DPPE   C3A48847  22.400  20.070  19.810
 2249DPPE   C4A48848  21.920  20.120  19.770
 2249DPPE   C1B48849  22.530  20.560  20.890
 2249DPPE   C2B48850  22.210  20.370  20.850
 2249DPPE   C3B48851  21.840  20.190  20.620
 2249DPPE   C4B48852  21.500  19.880  20.560
 2250DPPE   NH348853  10.660  15.830   1.280
 2250DPPE   PO448854  10.510  16.070   1.650
 2250DPPE   GL148855  10.920  16.060   1.900
 2250DPPE   GL248856  11.070  15.650   1.720
 2250DPPE   C1A48857  11.390  15.930   2.070
 2250DPPE   C2A48858  11.780  15.730   2.180
 2250DPPE   C3A48859  12.100  15.680   2.500
 2250DPPE   C4A48860  12.430  15.460   2.660
 2250DPPE   C1B48861  10.940  15.640   2.140
 2250DPPE   C2B48862  11.000  15.880   2.470
 2250DPPE   C3B48863  11.090  15.870   2.850
 2250DPPE   C4B48864  10.870  16.100   3.100
 2251DPPE   NH348865   9.770  21.110  15.090
 2251DPPE   PO448866   9.490  21.180  14.720
 2251DPPE   GL148867   9.230  21.000  15.080
 2251DPPE   GL248868   9.360  20.940  15.370
 2251DPPE   C1A48869   8.750  21.080  14.960
 2251DPPE   C2A48870   8.300  21.180  15.120
 2251DPPE   C3A48871   7.840  21.370  15.320
 2251DPPE   C4A48872   7.440  21.340  14.950
 2251DPPE   C1B48873   9.700  21.150  15.710
 2251DPPE   C2B48874   9.740  21.450  16.020
 2251DPPE   C3B48875   9.630  21.900  16.290
 2251DPPE   C4B48876   9.780  22.310  16.330
 2252DPPE   NH348877  21.160  24.500  13.110
 2252DPPE   PO448878  20.970  24.280  12.630
 2252DPPE   GL148879  21.110  24.670  12.650
 2252DPPE   GL248880  21.430  24.770  12.740
 2252DPPE   C1A48881  21.280  25.220  12.770
 2252DPPE   C2A48882  21.260  25.570  12.760
 2252DPPE   C3A48883  21.080  25.830  12.370
 2252DPPE   C4A48884  20.750  25.720  12.060
 2252DPPE   C1B48885  21.770  25.100  12.770
 2252DPPE   C2B48886  21.800  25.480  12.840
 2252DPPE   C3B48887  21.510  25.890  13.060
 2252DPPE   C4B48888  21.370  25.790  13.500
 2253DPPE   NH348889  12.150  15.240   5.600
 2253DPPE   PO448890  11.650  15.160   5.470
 2253DPPE   GL148891  11.340  15.220   5.260
 2253DPPE   GL248892  11.390  15.320   5.040
 2253DPPE   C1A48893  10.960  15.090   5.140
 2253DPPE   C2A48894  10.530  15.130   4.940
 2253DPPE   C3A48895  10.420  15.090   4.490
 2253DPPE   C4A48896  10.270  15.090   4.010
 2253DPPE   C1B48897  11.070  15.230   4.670
 2253DPPE   C2B48898  10.940  14.880   4.540
 2253DPPE   C3B48899  11.000  14.470   4.480
 2253DPPE   C4B48900  11.180  14.250   4.110
 2254DPPE   NH348901  20.050  28.810  14.860
 2254DPPE   PO448902  19.790  28.810  15.210
 2254DPPE   GL148903  19.580  28.380  15.120
 2254DPPE   GL248904  19.340  28.360  15.090
 2254DPPE   C1A48905  19.500  27.900  15.000
 2254DPPE   C2A48906  19.210  27.520  14.920
 2254DPPE   C3A48907  19.460  27.090  14.940
 2254DPPE   C4A48908  19.870  26.980  14.940
 2254DPPE   C1B48909  19.040  27.950  15.060
 2254DPPE   C2B48910  18.700  27.700  14.930
 2254DPPE   C3B48911  18.400  27.300  15.000
 2254DPPE   C4B48912  18.280  26.970  15.190
 2255DPPE   NH348913  11.530  14.160  15.950
 2255DPPE   PO448914  11.620  13.670  16.060
 2255DPPE   GL148915  11.260  13.380  16.040
 2255DPPE   GL248916  11.330  13.120  15.890
 2255DPPE   C1A48917  10.940  13.140  16.210
 2255DPPE   C2A48918  10.800  12.840  16.510
 2255DPPE   C3A48919  10.660  12.910  16.930
 2255DPPE   C4A48920  10.840  12.900  17.300
 2255DPPE   C1B48921  11.330  12.910  16.280
 2255DPPE   C2B48922  11.350  12.480  16.630
 2255DPPE   C3B48923  11.600  12.210  17.000
 2255DPPE   C4B48924  11.800  11.970  17.260
 2256DPPE   NH348925  11.410  23.250  16.150
 2256DPPE   PO448926  11.590  23.480  16.500
 2256DPPE   GL148927  11.160  23.720  16.470
 2256DPPE   GL248928  10.830  23.540  16.400
 2256DPPE   C1A48929  11.040  24.140  16.570
 2256DPPE   C2A48930  10.820  24.570  16.720
 2256DPPE   C3A48931  10.510  24.820  16.590
 2256DPPE   C4A48932  10.450  25.050  16.300
 2256DPPE   C1B48933  10.550  23.870  16.470
 2256DPPE   C2B48934  10.290  24.050  16.550
 2256DPPE   C3B48935   9.910  24.270  16.700
 2256DPPE   C4B48936   9.640  24.610  16.630
 2257DPPE   NH348937  13.840  24.030  17.490
 2257DPPE   PO448938  13.830  23.660  17.830
 2257DPPE   GL148939  13.760  23.980  18.170
 2257DPPE   GL248940  13.870  23.940  18.560
 2257DPPE   C1A48941  13.540  24.360  18.170
 2257DPPE   C2A48942  13.250  24.700  18.180
 2257DPPE   C3A48943  13.200  25.120  18.110
 2257DPPE   C4A48944  13.560  25.530  18.120
 2257DPPE   C1B48945  13.760  24.440  18.790
 2257DPPE   C2B48946  13.460  24.770  18.770
 2257DPPE   C3B48947  13.150  25.020  18.900
 2257DPPE   C4B48948  12.760  25.030  19.230
 2258DPPE   NH348949  10.090  25.950  23.620
 2258DPPE   PO448950  10.570  25.840  23.570
 2258DPPE   GL148951  10.860  25.460  23.500
 2258DPPE   GL248952  10.490  25.380  23.300
 2258DPPE   C1A48953  11.130  25.510  23.140
 2258DPPE   C2A48954  11.360  25.200  22.920
 2258DPPE   C3A48955  11.710  25.290  22.880
 2258DPPE   C4A48956  12.080  25.390  22.610
 2258DPPE   C1B48957  10.400  25.480  22.780
 2258DPPE   C2B48958  10.400  25.250  22.460
 2258DPPE   C3B48959  10.300  25.130  21.990
 2258DPPE   C4B48960   9.960  24.840  21.870
 2259DPPE   NH348961  14.050  16.710   4.150
 2259DPPE   PO448962  13.950  16.210   4.380
 2259DPPE   GL148963  14.010  16.250   3.890
 2259DPPE   GL248964  13.710  16.330   3.690
 2259DPPE   C1A48965  14.240  16.100   3.510
 2259DPPE   C2A48966  14.320  16.060   3.070
 2259DPPE   C3A48967  14.400  15.940   2.630
 2259DPPE   C4A48968  14.040  15.830   2.410
 2259DPPE   C1B48969  13.540  16.300   3.330
 2259DPPE   C2B48970  13.770  16.110   3.020
 2259DPPE   C3B48971  13.610  15.950   2.650
 2259DPPE   C4B48972  13.270  15.640   2.500
 2260DPPE   NH348973  19.550  23.420  17.440
 2260DPPE   PO448974  19.290  23.710  17.450
 2260DPPE   GL148975  19.700  23.950  17.560
 2260DPPE   GL248976  19.980  23.720  17.740
 2260DPPE   C1A48977  19.790  24.420  17.570
 2260DPPE   C2A48978  19.660  24.790  17.580
 2260DPPE   C3A48979  19.590  25.220  17.770
 2260DPPE   C4A48980  19.330  25.430  18.090
 2260DPPE   C1B48981  20.240  24.080  17.700
 2260DPPE   C2B48982  20.700  24.170  17.720
 2260DPPE   C3B48983  20.900  24.610  17.790
 2260DPPE   C4B48984  20.800  24.830  18.150
 2261DPPE   NH348985   8.530  14.670   2.940
 2261DPPE   PO448986   8.160  14.570   3.160
 2261DPPE   GL148987   8.410  14.770   3.450
 2261DPPE   GL248988   8.320  15.050   3.620
 2261DPPE   C1A48989   8.780  14.640   3.740
 2261DPPE   C2A48990   8.950  14.730   4.100
 2261DPPE   C3A48991   9.290  14.570   4.300
 2261DPPE   C4A48992   9.670  14.270   4.250
 2261DPPE   C1B48993   8.460  15.060   4.050
 2261DPPE   C2B48994   8.560  14.980   4.410
 2261DPPE   C3B48995   8.570  15.100   4.810
 2261DPPE   C4B48996   8.770  14.900   5.120
 2262DPPE   NH348997  27.680  17.310  13.670
 2262DPPE   PO448998  27.790  17.460  14.040
 2262DPPE   GL148999  27.380  17.650  14.080
 2262DPPE   GL249000  27.340  17.970  14.360
 2262DPPE   C1A49001  27.030  17.750  14.090
 2262DPPE   C2A49002  26.810  18.060  14.270
 2262DPPE   C3A49003  26.540  18.430  14.210
 2262DPPE   C4A49004  26.100  18.410  14.280
 2262DPPE   C1B49005  27.240  18.230  14.010
 2262DPPE   C2B49006  26.850  18.290  13.780
 2262DPPE   C3B49007  26.470  18.150  13.800
 2262DPPE   C4B49008  26.040  18.100  13.800
 2263DPPE   NH349009  18.020  21.430   6.240
 2263DPPE   PO449010  17.770  21.610   6.230
 2263DPPE   GL149011  18.090  21.760   5.890
 2263DPPE   GL249012  18.260  21.430   5.800
 2263DPPE   C1A49013  18.270  21.890   5.530
 2263DPPE   C2A49014  18.140  21.970   5.140
 2263DPPE   C3A49015  18.110  22.110   4.740
 2263DPPE   C4A49016  17.990  22.340   4.320
 2263DPPE   C1B49017  18.120  21.430   5.430
 2263DPPE   C2B49018  17.900  21.540   5.090
 2263DPPE   C3B49019  17.430  21.660   4.960
 2263DPPE   C4B49020  17.170  21.860   4.680
 2264DPPE   NH349021   9.200  20.010   9.220
 2264DPPE   PO449022   9.650  19.840   9.090
 2264DPPE   GL149023   9.530  20.120   8.760
 2264DPPE   GL249024   9.370  20.030   8.460
 2264DPPE   C1A49025   9.450  20.510   8.600
 2264DPPE   C2A49026   9.220  20.850   8.660
 2264DPPE   C3A49027   8.900  21.020   8.460
 2264DPPE   C4A49028   8.710  21.350   8.360
 2264DPPE   C1B49029   9.230  20.280   8.170
 2264DPPE   C2B49030   9.350  20.450   7.770
 2264DPPE   C3B49031   9.310  20.620   7.350
 2264DPPE   C4B49032   9.040  20.840   6.980
 2265DPPE   NH349033  21.890   7.080  14.670
 2265DPPE   PO449034  21.720   7.310  15.050
 2265DPPE   GL149035  21.660   7.490  15.430
 2265DPPE   GL249036  21.390   7.320  15.660
 2265DPPE   C1A49037  21.440   7.920  15.480
 2265DPPE   C2A49038  21.230   8.380  15.440
 2265DPPE   C3A49039  20.780   8.500  15.270
 2265DPPE   C4A49040  20.450   8.740  15.050
 2265DPPE   C1B49041  21.120   7.670  15.760
 2265DPPE   C2B49042  21.200   8.120  15.940
 2265DPPE   C3B49043  21.000   8.440  15.860
 2265DPPE   C4B49044  20.990   8.730  15.630
 2266DPPE   NH349045  10.080  23.050  13.280
 2266DPPE   PO449046   9.860  22.660  13.250
 2266DPPE   GL149047   9.610  23.000  13.160
 2266DPPE   GL249048   9.260  22.980  13.230
 2266DPPE   C1A49049   9.400  23.470  13.200
 2266DPPE   C2A49050   9.240  23.720  13.440
 2266DPPE   C3A49051   9.350  24.120  13.750
 2266DPPE   C4A49052   9.480  24.540  13.900
 2266DPPE   C1B49053   9.410  23.180  13.670
 2266DPPE   C2B49054   9.590  23.580  13.700
 2266DPPE   C3B49055   9.750  23.950  13.570
 2266DPPE   C4B49056   9.710  24.350  13.510
 2267DPPE   NH349057  14.210  24.260   9.630
 2267DPPE   PO449058  14.640  24.200   9.800
 2267DPPE   GL149059  14.670  24.460   9.590
 2267DPPE   GL249060  14.510  24.680   9.730
 2267DPPE   C1A49061  14.770  24.840   9.190
 2267DPPE   C2A49062  14.720  25.190   9.100
 2267DPPE   C3A49063  14.660  25.620   9.070
 2267DPPE   C4A49064  14.700  26.060   8.850
 2267DPPE   C1B49065  14.480  25.090   9.570
 2267DPPE   C2B49066  14.520  25.480   9.550
 2267DPPE   C3B49067  14.730  25.900   9.500
 2267DPPE   C4B49068  14.470  26.360   9.700
 2268DPPE   NH349069  17.800  18.240  20.890
 2268DPPE   PO449070  17.390  18.340  20.920
 2268DPPE   GL149071  17.360  18.280  21.260
 2268DPPE   GL249072  17.570  18.040  21.320
 2268DPPE   C1A49073  17.390  18.400  21.680
 2268DPPE   C2A49074  17.360  18.510  22.070
 2268DPPE   C3A49075  17.200  18.770  22.410
 2268DPPE   C4A49076  17.170  18.880  22.880
 2268DPPE   C1B49077  17.870  18.240  21.570
 2268DPPE   C2B49078  17.890  18.320  21.960
 2268DPPE   C3B49079  17.750  18.430  22.410
 2268DPPE   C4B49080  17.540  18.540  22.870
 2269DPPE   NH349081  12.350  12.200  14.020
 2269DPPE   PO449082  12.680  12.090  14.280
 2269DPPE   GL149083  12.550  12.120  14.760
 2269DPPE   GL249084  12.630  11.810  14.990
 2269DPPE   C1A49085  12.250  12.260  15.040
 2269DPPE   C2A49086  12.430  12.500  15.450
 2269DPPE   C3A49087  12.240  12.300  15.760
 2269DPPE   C4A49088  12.030  12.240  16.200
 2269DPPE   C1B49089  12.260  11.710  15.100
 2269DPPE   C2B49090  11.930  11.440  15.240
 2269DPPE   C3B49091  11.560  11.250  15.470
 2269DPPE   C4B49092  11.180  11.360  15.590
 2270DPPE   NH349093  14.280  15.700  18.250
 2270DPPE   PO449094  14.650  15.460  18.490
 2270DPPE   GL149095  14.500  15.290  18.910
 2270DPPE   GL249096  14.760  15.140  19.180
 2270DPPE   C1A49097  14.240  15.080  19.150
 2270DPPE   C2A49098  14.040  14.830  19.510
 2270DPPE   C3A49099  14.020  14.540  19.870
 2270DPPE   C4A49100  14.020  14.610  20.360
 2270DPPE   C1B49101  14.680  14.850  19.450
 2270DPPE   C2B49102  14.470  14.640  19.680
 2270DPPE   C3B49103  14.520  14.340  19.940
 2270DPPE   C4B49104  14.550  13.880  20.150
 2271DPPE   NH349105  15.410  14.460  18.490
 2271DPPE   PO449106  15.400  14.970  18.510
 2271DPPE   GL149107  15.450  14.760  18.950
 2271DPPE   GL249108  15.590  14.540  19.110
 2271DPPE   C1A49109  15.150  14.710  19.310
 2271DPPE   C2A49110  14.920  14.440  19.630
 2271DPPE   C3A49111  15.020  14.140  20.000
 2271DPPE   C4A49112  15.070  13.810  20.230
 2271DPPE   C1B49113  15.510  14.250  19.390
 2271DPPE   C2B49114  15.120  13.970  19.430
 2271DPPE   C3B49115  14.820  13.800  19.670
 2271DPPE   C4B49116  14.410  13.570  19.620
 2272DPPE   NH349117  15.360  20.060  19.940
 2272DPPE   PO449118  14.940  19.950  20.070
 2272DPPE   GL149119  14.790  20.020  20.400
 2272DPPE   GL249120  14.950  20.160  20.680
 2272DPPE   C1A49121  14.680  19.650  20.760
 2272DPPE   C2A49122  14.730  19.450  21.170
 2272DPPE   C3A49123  14.580  19.320  21.490
 2272DPPE   C4A49124  14.790  19.330  21.890
 2272DPPE   C1B49125  14.680  20.060  21.050
 2272DPPE   C2B49126  14.650  19.890  21.420
 2272DPPE   C3B49127  14.530  19.840  21.820
 2272DPPE   C4B49128  14.230  19.540  22.080
 2273DPPE   NH349129  11.970  18.350  17.270
 2273DPPE   PO449130  12.100  18.770  17.330
 2273DPPE   GL149131  11.770  18.780  17.590
 2273DPPE   GL249132  11.660  18.470  17.630
 2273DPPE   C1A49133  11.500  18.970  17.900
 2273DPPE   C2A49134  11.140  19.110  18.150
 2273DPPE   C3A49135  10.680  19.000  18.180
 2273DPPE   C4A49136  10.560  19.130  18.620
 2273DPPE   C1B49137  11.340  18.480  17.930
 2273DPPE   C2B49138  11.070  18.330  18.240
 2273DPPE   C3B49139  10.750  18.620  18.500
 2273DPPE   C4B49140  10.560  18.420  18.920
 2274DPPE   NH349141  13.900  10.400  27.180
 2274DPPE   PO449142  14.340  10.240  27.180
 2274DPPE   GL149143  14.300  10.370  26.770
 2274DPPE   GL249144  14.100  10.550  26.640
 2274DPPE   C1A49145  14.430  10.220  26.360
 2274DPPE   C2A49146  14.340   9.900  26.020
 2274DPPE   C3A49147  14.140   9.980  25.540
 2274DPPE   C4A49148  14.320   9.910  25.180
 2274DPPE   C1B49149  13.920  10.570  26.290
 2274DPPE   C2B49150  13.700  10.790  26.000
 2274DPPE   C3B49151  13.660  11.010  25.570
 2274DPPE   C4B49152  13.390  10.800  25.170
 2275DPPE   NH349153  11.960  28.740  18.200
 2275DPPE   PO449154  12.130  28.400  18.020
 2275DPPE   GL149155  12.300  28.040  17.790
 2275DPPE   GL249156  12.500  27.870  17.910
 2275DPPE   C1A49157  12.510  27.680  17.480
 2275DPPE   C2A49158  12.680  27.500  17.110
 2275DPPE   C3A49159  12.730  27.200  16.770
 2275DPPE   C4A49160  12.920  26.920  16.490
 2275DPPE   C1B49161  12.760  27.530  17.850
 2275DPPE   C2B49162  12.920  27.290  17.480
 2275DPPE   C3B49163  13.140  27.110  17.090
 2275DPPE   C4B49164  13.440  26.940  16.810
 2276DPPE   NH349165  13.050  22.870   9.050
 2276DPPE   PO449166  12.750  22.990   9.400
 2276DPPE   GL149167  12.570  23.370   9.160
 2276DPPE   GL249168  12.780  23.410   8.950
 2276DPPE   C1A49169  12.190  23.650   9.230
 2276DPPE   C2A49170  12.170  24.000   9.520
 2276DPPE   C3A49171  12.050  24.290   9.810
 2276DPPE   C4A49172  12.320  24.470  10.140
 2276DPPE   C1B49173  12.530  23.690   8.770
 2276DPPE   C2B49174  12.170  23.790   8.700
 2276DPPE   C3B49175  11.960  24.030   8.910
 2276DPPE   C4B49176  11.860  24.370   9.260
 2277DPPE   NH349177  14.180  10.490  15.790
 2277DPPE   PO449178  14.230  10.030  15.510
 2277DPPE   GL149179  14.060   9.810  15.860
 2277DPPE   GL249180  13.980   9.550  15.640
 2277DPPE   C1A49181  14.050   9.450  16.090
 2277DPPE   C2A49182  14.070   9.040  16.280
 2277DPPE   C3A49183  14.010   8.640  16.100
 2277DPPE   C4A49184  13.870   8.310  16.460
 2277DPPE   C1B49185  13.810   9.080  15.830
 2277DPPE   C2B49186  13.560   8.680  15.890
 2277DPPE   C3B49187  13.260   8.520  16.110
 2277DPPE   C4B49188  13.020   8.250  16.310
 2278DPPE   NH349189  28.310  17.930  12.350
 2278DPPE   PO449190  28.170  18.250  12.450
 2278DPPE   GL149191  27.770  18.400  12.400
 2278DPPE   GL249192  27.760  18.860  12.290
 2278DPPE   C1A49193  27.440  18.570  12.640
 2278DPPE   C2A49194  27.200  18.890  12.810
 2278DPPE   C3A49195  27.170  19.110  13.070
 2278DPPE   C4A49196  26.870  19.360  13.240
 2278DPPE   C1B49197  27.380  18.860  12.110
 2278DPPE   C2B49198  26.980  18.950  11.840
 2278DPPE   C3B49199  26.640  19.210  11.630
 2278DPPE   C4B49200  26.490  19.180  11.190
 2279DPPE   NH349201   5.480  10.040  10.670
 2279DPPE   PO449202   5.270  10.420  10.780
 2279DPPE   GL149203   5.440  10.410  11.180
 2279DPPE   GL249204   5.600  10.800  11.050
 2279DPPE   C1A49205   5.440  10.540  11.570
 2279DPPE   C2A49206   5.710  10.560  11.840
 2279DPPE   C3A49207   6.040  10.790  11.790
 2279DPPE   C4A49208   6.350  11.070  11.700
 2279DPPE   C1B49209   5.680  11.050  11.510
 2279DPPE   C2B49210   5.640  11.140  11.850
 2279DPPE   C3B49211   5.440  11.330  12.250
 2279DPPE   C4B49212   5.620  11.280  12.650
 2280DPPE   NH349213   6.590  22.240   7.470
 2280DPPE   PO449214   6.610  22.090   7.830
 2280DPPE   GL149215   6.850  21.860   8.010
 2280DPPE   GL249216   6.780  21.580   8.100
 2280DPPE   C1A49217   7.290  21.780   8.110
 2280DPPE   C2A49218   7.630  21.700   8.350
 2280DPPE   C3A49219   7.950  21.750   8.720
 2280DPPE   C4A49220   8.280  21.750   8.940
 2280DPPE   C1B49221   6.620  21.360   8.460
 2280DPPE   C2B49222   6.850  20.980   8.570
 2280DPPE   C3B49223   7.170  20.890   8.790
 2280DPPE   C4B49224   7.320  20.760   9.230
 2281DPPE   NH349225   9.530  21.810  13.730
 2281DPPE   PO449226   9.300  21.890  13.430
 2281DPPE   GL149227   9.020  22.300  13.380
 2281DPPE   GL249228   9.330  22.490  13.300
 2281DPPE   C1A49229   8.620  22.390  13.460
 2281DPPE   C2A49230   8.280  22.320  13.760
 2281DPPE   C3A49231   8.000  22.410  14.170
 2281DPPE   C4A49232   7.780  22.460  14.560
 2281DPPE   C1B49233   8.970  22.650  13.080
 2281DPPE   C2B49234   8.760  23.130  13.230
 2281DPPE   C3B49235   8.910  23.340  13.550
 2281DPPE   C4B49236   8.770  23.670  13.860
 2282DPPE   NH349237  21.610  14.380  22.070
 2282DPPE   PO449238  21.830  14.720  22.130
 2282DPPE   GL149239  21.530  14.760  21.770
 2282DPPE   GL249240  21.520  14.500  21.560
 2282DPPE   C1A49241  21.150  14.790  21.670
 2282DPPE   C2A49242  20.940  14.940  21.340
 2282DPPE   C3A49243  20.500  14.940  21.220
 2282DPPE   C4A49244  20.220  14.730  21.350
 2282DPPE   C1B49245  21.210  14.240  21.610
 2282DPPE   C2B49246  20.770  14.350  21.680
 2282DPPE   C3B49247  20.590  14.760  21.670
 2282DPPE   C4B49248  20.270  15.140  21.710
 2283DPPE   NH349249   5.760  19.740   6.670
 2283DPPE   PO449250   6.110  19.500   6.490
 2283DPPE   GL149251   6.420  19.250   6.580
 2283DPPE   GL249252   6.350  19.140   6.930
 2283DPPE   C1A49253   6.420  18.770   6.590
 2283DPPE   C2A49254   6.420  18.270   6.790
 2283DPPE   C3A49255   6.480  17.920   7.110
 2283DPPE   C4A49256   6.260  17.740   7.490
 2283DPPE   C1B49257   6.390  19.450   7.280
 2283DPPE   C2B49258   6.570  19.580   7.620
 2283DPPE   C3B49259   6.870  19.440   7.940
 2283DPPE   C4B49260   7.260  19.370   8.120
 2284DPPE   NH349261  22.450  26.900  17.740
 2284DPPE   PO449262  22.250  26.580  17.840
 2284DPPE   GL149263  22.040  26.210  17.810
 2284DPPE   GL249264  21.750  26.570  17.810
 2284DPPE   C1A49265  22.010  25.790  17.620
 2284DPPE   C2A49266  22.040  25.670  17.260
 2284DPPE   C3A49267  22.350  25.620  16.990
 2284DPPE   C4A49268  22.330  25.540  16.410
 2284DPPE   C1B49269  21.440  26.260  17.870
 2284DPPE   C2B49270  21.390  25.890  17.670
 2284DPPE   C3B49271  21.570  25.710  17.200
 2284DPPE   C4B49272  21.470  25.710  16.700
 2285DPPE   NH349273  17.710   9.990   2.160
 2285DPPE   PO449274  18.010  10.420   1.990
 2285DPPE   GL149275  18.220  10.540   2.210
 2285DPPE   GL249276  18.270  10.940   2.190
 2285DPPE   C1A49277  18.070  10.500   2.650
 2285DPPE   C2A49278  17.920  10.560   3.120
 2285DPPE   C3A49279  17.550  10.530   3.370
 2285DPPE   C4A49280  17.490  10.660   3.690
 2285DPPE   C1B49281  18.470  10.870   2.650
 2285DPPE   C2B49282  18.490  10.820   3.060
 2285DPPE   C3B49283  18.620  11.080   3.470
 2285DPPE   C4B49284  18.640  11.440   3.730
 2286DPPE   NH349285   5.120   8.980  19.610
 2286DPPE   PO449286   4.840   9.000  19.330
 2286DPPE   GL149287   5.080   9.340  19.100
 2286DPPE   GL249288   5.080   9.670  19.130
 2286DPPE   C1A49289   5.550   9.430  18.850
 2286DPPE   C2A49290   5.910   9.270  18.620
 2286DPPE   C3A49291   6.190   9.580  18.620
 2286DPPE   C4A49292   6.190  10.030  18.500
 2286DPPE   C1B49293   5.260   9.860  18.820
 2286DPPE   C2B49294   5.700   9.970  18.720
 2286DPPE   C3B49295   6.000  10.440  18.840
 2286DPPE   C4B49296   6.030  10.760  18.670
 2287DPPE   NH349297  24.980  11.130   6.390
 2287DPPE   PO449298  25.330  11.150   6.770
 2287DPPE   GL149299  25.060  11.380   6.960
 2287DPPE   GL249300  24.680  11.100   6.910
 2287DPPE   C1A49301  25.050  11.550   7.310
 2287DPPE   C2A49302  24.730  11.870   7.540
 2287DPPE   C3A49303  24.630  12.050   7.910
 2287DPPE   C4A49304  24.880  11.930   8.370
 2287DPPE   C1B49305  24.450  11.320   7.270
 2287DPPE   C2B49306  24.280  11.520   7.600
 2287DPPE   C3B49307  24.020  11.830   7.860
 2287DPPE   C4B49308  24.160  12.220   7.880
 2288DPPE   NH349309  11.210  16.750  27.860
 2288DPPE   PO449310  11.400  16.330  27.620
 2288DPPE   GL149311  11.680  16.350  27.370
 2288DPPE   GL249312  11.750  16.690  27.350
 2288DPPE   C1A49313  11.900  16.200  27.060
 2288DPPE   C2A49314  12.170  16.000  26.750
 2288DPPE   C3A49315  12.270  16.040  26.310
 2288DPPE   C4A49316  12.560  15.810  25.960
 2288DPPE   C1B49317  11.620  16.860  26.960
 2288DPPE   C2B49318  11.430  17.110  26.700
 2288DPPE   C3B49319  11.090  16.950  26.490
 2288DPPE   C4B49320  10.670  16.890  26.430
 2289DPPE   NH349321  13.240  11.590  15.210
 2289DPPE   PO449322  13.310  11.970  15.310
 2289DPPE   GL149323  12.950  12.030  15.380
 2289DPPE   GL249324  12.820  12.300  15.250
 2289DPPE   C1A49325  12.850  11.740  15.700
 2289DPPE   C2A49326  12.980  11.600  16.090
 2289DPPE   C3A49327  13.000  11.450  16.570
 2289DPPE   C4A49328  12.700  11.260  16.770
 2289DPPE   C1B49329  12.490  12.030  15.400
 2289DPPE   C2B49330  12.150  11.830  15.590
 2289DPPE   C3B49331  11.770  11.670  15.670
 2289DPPE   C4B49332  11.560  11.500  15.890
 2290DPPE   NH349333  14.410   6.720  23.580
 2290DPPE   PO449334  13.950   6.650  23.730
 2290DPPE   GL149335  14.010   6.700  23.240
 2290DPPE   GL249336  13.890   6.480  23.010
 2290DPPE   C1A49337  14.040   6.970  22.930
 2290DPPE   C2A49338  13.780   6.820  22.570
 2290DPPE   C3A49339  13.760   6.650  22.140
 2290DPPE   C4A49340  13.580   6.550  21.690
 2290DPPE   C1B49341  13.520   6.710  23.020
 2290DPPE   C2B49342  13.290   7.130  23.000
 2290DPPE   C3B49343  13.140   7.590  22.940
 2290DPPE   C4B49344  12.910   7.940  22.620
 2291DPPE   NH349345  11.040   4.980  17.770
 2291DPPE   PO449346  11.240   5.280  17.610
 2291DPPE   GL149347  11.540   5.370  17.970
 2291DPPE   GL249348  11.240   5.280  18.250
 2291DPPE   C1A49349  11.840   5.570  18.170
 2291DPPE   C2A49350  12.250   5.730  18.330
 2291DPPE   C3A49351  12.520   5.960  18.010
 2291DPPE   C4A49352  12.690   6.390  18.100
 2291DPPE   C1B49353  11.310   5.750  18.320
 2291DPPE   C2B49354  11.300   6.010  18.600
 2291DPPE   C3B49355  11.560   6.400  18.680
 2291DPPE   C4B49356  11.810   6.660  18.930
 2292DPPE   NH349357  11.020  14.520  14.770
 2292DPPE   PO449358  11.040  14.470  15.180
 2292DPPE   GL149359  10.820  14.120  15.220
 2292DPPE   GL249360  10.630  14.200  14.870
 2292DPPE   C1A49361  10.500  14.080  15.510
 2292DPPE   C2A49362  10.310  13.890  15.870
 2292DPPE   C3A49363  10.090  13.520  16.070
 2292DPPE   C4A49364  10.260  13.110  16.140
 2292DPPE   C1B49365  10.320  14.280  15.100
 2292DPPE   C2B49366   9.990  14.120  15.450
 2292DPPE   C3B49367   9.820  13.830  15.750
 2292DPPE   C4B49368   9.520  13.550  15.500
 2293DPPE   NH349369  11.740  18.760  15.890
 2293DPPE   PO449370  11.250  18.810  15.900
 2293DPPE   GL149371  11.030  19.070  16.180
 2293DPPE   GL249372  11.070  18.920  16.540
 2293DPPE   C1A49373  10.580  19.220  16.290
 2293DPPE   C2A49374  10.130  19.100  16.430
 2293DPPE   C3A49375   9.760  18.870  16.510
 2293DPPE   C4A49376   9.520  18.700  16.890
 2293DPPE   C1B49377  10.910  18.800  16.930
 2293DPPE   C2B49378  10.760  18.920  17.300
 2293DPPE   C3B49379  10.340  19.230  17.400
 2293DPPE   C4B49380   9.940  19.500  17.280
 2294DPPE   NH349381   7.270  24.770   9.540
 2294DPPE   PO449382   7.520  24.810   9.170
 2294DPPE   GL149383   7.510  24.370   9.180
 2294DPPE   GL249384   7.420  24.350   8.850
 2294DPPE   C1A49385   7.890  24.140   8.850
 2294DPPE   C2A49386   8.200  23.900   8.640
 2294DPPE   C3A49387   8.340  23.440   8.650
 2294DPPE   C4A49388   8.420  22.960   8.600
 2294DPPE   C1B49389   7.360  23.950   8.880
 2294DPPE   C2B49390   7.160  23.680   9.070
 2294DPPE   C3B49391   7.270  23.430   9.340
 2294DPPE   C4B49392   7.600  23.160   9.480
 2295DPPE   NH349393  15.840   4.950  11.660
 2295DPPE   PO449394  16.270   4.790  11.830
 2295DPPE   GL149395  16.410   5.160  11.710
 2295DPPE   GL249396  16.180   5.380  11.500
 2295DPPE   C1A49397  16.660   5.530  11.880
 2295DPPE   C2A49398  16.800   5.980  11.950
 2295DPPE   C3A49399  16.680   6.300  11.700
 2295DPPE   C4A49400  16.770   6.530  11.360
 2295DPPE   C1B49401  15.840   5.540  11.720
 2295DPPE   C2B49402  15.720   5.930  11.970
 2295DPPE   C3B49403  15.770   6.190  12.240
 2295DPPE   C4B49404  15.750   6.680  12.340
 2296DPPE   NH349405  13.430   5.940  23.140
 2296DPPE   PO449406  13.690   6.080  22.860
 2296DPPE   GL149407  13.500   6.270  22.510
 2296DPPE   GL249408  13.480   6.070  22.210
 2296DPPE   C1A49409  13.240   6.550  22.150
 2296DPPE   C2A49410  13.150   6.710  21.700
 2296DPPE   C3A49411  13.110   7.100  21.420
 2296DPPE   C4A49412  13.080   7.430  21.180
 2296DPPE   C1B49413  13.290   6.170  21.830
 2296DPPE   C2B49414  13.230   6.330  21.410
 2296DPPE   C3B49415  13.080   6.630  21.160
 2296DPPE   C4B49416  12.820   7.040  20.970
 2297DPPE   NH349417  12.410  12.320   0.400
 2297DPPE   PO449418  12.550  12.430   0.830
 2297DPPE   GL149419  12.600  12.510   1.190
 2297DPPE   GL249420  12.880  12.440   1.360
 2297DPPE   C1A49421  12.580  12.650   1.650
 2297DPPE   C2A49422  12.650  12.770   2.050
 2297DPPE   C3A49423  12.740  12.770   2.460
 2297DPPE   C4A49424  12.550  12.880   2.940
 2297DPPE   C1B49425  13.030  12.550   1.800
 2297DPPE   C2B49426  13.150  12.710   2.130
 2297DPPE   C3B49427  13.640  12.750   2.250
 2297DPPE   C4B49428  14.000  12.990   2.470
 2298DPPE   NH349429  16.730  19.240  26.300
 2298DPPE   PO449430  16.850  19.020  25.960
 2298DPPE   GL149431  16.740  18.870  25.590
 2298DPPE   GL249432  17.020  18.540  25.470
 2298DPPE   C1A49433  16.820  18.890  25.110
 2298DPPE   C2A49434  17.040  18.650  24.880
 2298DPPE   C3A49435  16.940  18.270  25.020
 2298DPPE   C4A49436  17.300  17.840  24.970
 2298DPPE   C1B49437  16.600  18.370  25.560
 2298DPPE   C2B49438  16.420  18.030  25.350
 2298DPPE   C3B49439  16.130  17.880  25.040
 2298DPPE   C4B49440  15.940  18.000  24.740
 2299DPPE   NH349441  10.870  22.680  16.160
 2299DPPE   PO449442  10.680  22.290  16.190
 2299DPPE   GL149443  10.410  22.520  16.500
 2299DPPE   GL249444  10.610  22.620  16.700
 2299DPPE   C1A49445  10.090  22.670  16.550
 2299DPPE   C2A49446   9.710  22.770  16.640
 2299DPPE   C3A49447   9.350  22.700  16.250
 2299DPPE   C4A49448   9.090  22.640  15.880
 2299DPPE   C1B49449  10.340  22.470  16.990
 2299DPPE   C2B49450  10.340  22.760  17.330
 2299DPPE   C3B49451  10.570  22.840  17.600
 2299DPPE   C4B49452  10.970  23.090  17.740
 2300DPPE   NH349453   5.530  10.980  10.190
 2300DPPE   PO449454   5.740  10.660  10.250
 2300DPPE   GL149455   5.860  10.980  10.610
 2300DPPE   GL249456   5.780  11.300  10.580
 2300DPPE   C1A49457   6.160  11.230  10.900
 2300DPPE   C2A49458   6.370  11.370  11.270
 2300DPPE   C3A49459   6.740  11.570  11.280
 2300DPPE   C4A49460   7.180  11.420  11.500
 2300DPPE   C1B49461   5.710  11.350  11.090
 2300DPPE   C2B49462   5.750  11.550  11.450
 2300DPPE   C3B49463   6.070  11.510  11.820
 2300DPPE   C4B49464   5.990  11.390  12.200
 2301DPPE   NH349465  15.720   5.910  19.190
 2301DPPE   PO449466  15.840   6.170  18.710
 2301DPPE   GL149467  15.940   6.540  18.690
 2301DPPE   GL249468  16.150   6.720  18.940
 2301DPPE   C1A49469  15.800   6.990  18.810
 2301DPPE   C2A49470  15.500   7.240  18.970
 2301DPPE   C3A49471  15.210   7.500  18.930
 2301DPPE   C4A49472  14.900   7.770  18.820
 2301DPPE   C1B49473  15.730   6.660  19.270
 2301DPPE   C2B49474  15.470   6.890  19.370
 2301DPPE   C3B49475  15.200   7.260  19.480
 2301DPPE   C4B49476  14.960   7.600  19.330
 2302DPPE   NH349477  12.140  22.600  17.520
 2302DPPE   PO449478  12.100  22.170  17.340
 2302DPPE   GL149479  11.700  21.840  17.400
 2302DPPE   GL249480  11.720  21.470  17.300
 2302DPPE   C1A49481  11.330  21.690  17.500
 2302DPPE   C2A49482  11.050  21.620  17.700
 2302DPPE   C3A49483  10.780  21.390  17.760
 2302DPPE   C4A49484  10.370  21.490  17.900
 2302DPPE   C1B49485  11.470  21.250  17.500
 2302DPPE   C2B49486  11.100  21.170  17.390
 2302DPPE   C3B49487  10.870  20.770  17.280
 2302DPPE   C4B49488  10.410  20.690  17.370
 2303DPPE   NH349489  14.690  25.460  22.740
 2303DPPE   PO449490  14.830  25.520  22.440
 2303DPPE   GL149491  14.780  25.160  22.310
 2303DPPE   GL249492  15.010  25.040  22.070
 2303DPPE   C1A49493  14.480  24.970  22.040
 2303DPPE   C2A49494  14.320  24.500  21.940
 2303DPPE   C3A49495  14.330  24.220  21.740
 2303DPPE   C4A49496  14.480  23.870  21.510
 2303DPPE   C1B49497  15.100  24.830  21.700
 2303DPPE   C2B49498  15.020  24.560  21.360
 2303DPPE   C3B49499  15.140  24.370  20.990
 2303DPPE   C4B49500  15.240  24.530  20.610
 2304DPPE   NH349501  13.930  13.110  16.930
 2304DPPE   PO449502  14.090  12.770  16.530
 2304DPPE   GL149503  13.840  12.620  17.010
 2304DPPE   GL249504  13.520  12.710  16.910
 2304DPPE   C1A49505  13.650  12.460  17.430
 2304DPPE   C2A49506  13.320  12.520  17.760
 2304DPPE   C3A49507  13.370  12.200  18.190
 2304DPPE   C4A49508  13.170  11.830  18.440
 2304DPPE   C1B49509  13.250  12.520  17.090
 2304DPPE   C2B49510  12.920  12.300  17.290
 2304DPPE   C3B49511  12.810  12.000  17.640
 2304DPPE   C4B49512  12.390  11.980  17.780
 2305DPPE   NH349513   2.780  10.240  15.440
 2305DPPE   PO449514   2.670  10.320  15.920
 2305DPPE   GL149515   3.060  10.510  15.750
 2305DPPE   GL249516   3.260  10.400  15.700
 2305DPPE   C1A49517   2.970  10.990  15.540
 2305DPPE   C2A49518   3.170  11.140  15.160
 2305DPPE   C3A49519   3.440  11.550  14.990
 2305DPPE   C4A49520   3.390  12.010  14.930
 2305DPPE   C1B49521   3.680  10.570  15.940
 2305DPPE   C2B49522   3.830  10.870  16.240
 2305DPPE   C3B49523   4.110  11.250  16.320
 2305DPPE   C4B49524   4.290  11.660  16.260
 2306DPPE   NH349525  14.230  23.300   8.870
 2306DPPE   PO449526  14.210  22.900   8.760
 2306DPPE   GL149527  14.250  23.150   8.340
 2306DPPE   GL249528  14.510  23.190   8.120
 2306DPPE   C1A49529  13.950  23.380   8.030
 2306DPPE   C2A49530  13.690  23.540   7.670
 2306DPPE   C3A49531  13.740  23.850   7.320
 2306DPPE   C4A49532  13.530  23.990   7.050
 2306DPPE   C1B49533  14.430  23.350   7.750
 2306DPPE   C2B49534  14.190  23.760   7.530
 2306DPPE   C3B49535  14.040  24.190   7.620
 2306DPPE   C4B49536  14.330  24.540   7.750
 2307DPPE   NH349537  14.830  20.500   0.930
 2307DPPE   PO449538  14.650  20.190   1.120
 2307DPPE   GL149539  14.600  20.070   1.490
 2307DPPE   GL249540  14.550  20.330   1.720
 2307DPPE   C1A49541  14.710  19.920   1.930
 2307DPPE   C2A49542  14.840  19.660   2.410
 2307DPPE   C3A49543  15.010  19.160   2.480
 2307DPPE   C4A49544  15.360  18.920   2.420
 2307DPPE   C1B49545  14.220  20.590   1.860
 2307DPPE   C2B49546  13.810  20.400   2.030
 2307DPPE   C3B49547  13.760  20.360   2.450
 2307DPPE   C4B49548  13.970  20.530   2.820
 2308DPPE   NH349549   7.390  19.600  17.570
 2308DPPE   PO449550   7.470  20.020  17.710
 2308DPPE   GL149551   7.890  19.850  17.630
 2308DPPE   GL249552   7.720  19.890  17.250
 2308DPPE   C1A49553   8.170  19.570  17.580
 2308DPPE   C2A49554   8.570  19.660  17.430
 2308DPPE   C3A49555   8.880  19.590  17.070
 2308DPPE   C4A49556   9.140  19.720  16.790
 2308DPPE   C1B49557   7.770  19.970  16.830
 2308DPPE   C2B49558   8.150  19.810  16.570
 2308DPPE   C3B49559   8.560  19.630  16.630
 2308DPPE   C4B49560   8.780  19.250  16.600
 2309DPPE   NH349561  14.570   9.250  20.590
 2309DPPE   PO449562  14.410   8.810  20.410
 2309DPPE   GL149563  14.520   8.440  20.550
 2309DPPE   GL249564  14.800   8.360  20.560
 2309DPPE   C1A49565  14.340   8.060  20.670
 2309DPPE   C2A49566  14.520   7.810  21.100
 2309DPPE   C3A49567  14.600   7.460  21.200
 2309DPPE   C4A49568  14.900   7.130  21.300
 2309DPPE   C1B49569  14.740   8.250  20.960
 2309DPPE   C2B49570  14.720   8.320  21.370
 2309DPPE   C3B49571  14.790   8.650  21.720
 2309DPPE   C4B49572  14.870   8.700  22.110
 2310DPPE   NH349573  10.740  22.580  20.100
 2310DPPE   PO449574  11.020  22.410  20.390
 2310DPPE   GL149575  11.290  22.520  20.090
 2310DPPE   GL249576  11.580  22.350  20.080
 2310DPPE   C1A49577  11.680  22.780  19.860
 2310DPPE   C2A49578  11.960  23.110  19.710
 2310DPPE   C3A49579  12.430  23.100  19.660
 2310DPPE   C4A49580  12.770  22.780  19.610
 2310DPPE   C1B49581  11.790  22.320  19.610
 2310DPPE   C2B49582  12.210  22.460  19.440
 2310DPPE   C3B49583  12.540  22.620  19.120
 2310DPPE   C4B49584  12.590  22.980  18.710
 2311DPPE   NH349585   9.600   9.250  17.690
 2311DPPE   PO449586   9.380   9.530  17.870
 2311DPPE   GL149587   9.350   9.190  18.180
 2311DPPE   GL249588   9.460   8.760  18.070
 2311DPPE   C1A49589   9.220   8.890  18.520
 2311DPPE   C2A49590   9.030   8.610  18.700
 2311DPPE   C3A49591   8.790   8.270  18.760
 2311DPPE   C4A49592   8.840   7.960  19.110
 2311DPPE   C1B49593   9.200   8.410  18.010
 2311DPPE   C2B49594   9.060   8.230  18.220
 2311DPPE   C3B49595   8.680   8.020  18.240
 2311DPPE   C4B49596   8.280   8.020  18.410
 2312DPPE   NH349597  11.530  14.200  23.190
 2312DPPE   PO449598  11.640  14.630  23.310
 2312DPPE   GL149599  11.220  14.540  23.660
 2312DPPE   GL249600  11.180  14.870  23.790
 2312DPPE   C1A49601  10.990  14.390  24.040
 2312DPPE   C2A49602  10.600  14.570  24.210
 2312DPPE   C3A49603  10.360  14.450  24.570
 2312DPPE   C4A49604  10.010  14.250  24.920
 2312DPPE   C1B49605  10.870  15.030  24.190
 2312DPPE   C2B49606  10.930  15.130  24.640
 2312DPPE   C3B49607  10.910  15.040  25.100
 2312DPPE   C4B49608  10.860  15.300  25.430
 2313DPPE   NH349609  11.570  23.300  21.520
 2313DPPE   PO449610  11.140  23.130  21.640
 2313DPPE   GL149611  11.220  23.510  21.930
 2313DPPE   GL249612  11.380  23.410  22.320
 2313DPPE   C1A49613  11.150  23.910  22.150
 2313DPPE   C2A49614  11.420  24.080  22.410
 2313DPPE   C3A49615  11.770  24.420  22.370
 2313DPPE   C4A49616  11.910  24.900  22.620
 2313DPPE   C1B49617  11.110  23.660  22.580
 2313DPPE   C2B49618  10.890  23.690  22.930
 2313DPPE   C3B49619  10.660  24.110  23.030
 2313DPPE   C4B49620  10.420  24.320  22.820
 2314DPPE   NH349621   6.050  16.830  18.650
 2314DPPE   PO449622   5.810  16.830  18.200
 2314DPPE   GL149623   5.480  16.710  18.460
 2314DPPE   GL249624   5.580  16.480  18.640
 2314DPPE   C1A49625   5.100  16.920  18.750
 2314DPPE   C2A49626   4.670  16.890  18.910
 2314DPPE   C3A49627   4.170  16.940  18.840
 2314DPPE   C4A49628   3.870  17.150  19.060
 2314DPPE   C1B49629   5.170  16.370  18.690
 2314DPPE   C2B49630   4.700  16.370  18.640
 2314DPPE   C3B49631   4.370  16.410  18.900
 2314DPPE   C4B49632   4.020  16.510  19.090
 2315DPPE   NH349633  13.200  12.630  21.830
 2315DPPE   PO449634  12.950  12.300  21.690
 2315DPPE   GL149635  12.880  12.580  21.320
 2315DPPE   GL249636  13.010  12.790  21.260
 2315DPPE   C1A49637  12.830  12.560  20.820
 2315DPPE   C2A49638  12.820  12.850  20.620
 2315DPPE   C3A49639  13.000  13.150  20.910
 2315DPPE   C4A49640  13.000  13.330  21.350
 2315DPPE   C1B49641  13.420  12.850  20.960
 2315DPPE   C2B49642  13.340  12.940  20.570
 2315DPPE   C3B49643  13.290  13.190  20.130
 2315DPPE   C4B49644  13.410  13.340  19.750
 2316DPPE   NH349645   7.620   9.920  15.990
 2316DPPE   PO449646   7.960   9.900  16.200
 2316DPPE   GL149647   7.800   9.530  16.190
 2316DPPE   GL249648   8.030   9.240  16.340
 2316DPPE   C1A49649   7.530   9.180  16.140
 2316DPPE   C2A49650   7.370   8.840  16.180
 2316DPPE   C3A49651   7.040   8.540  16.390
 2316DPPE   C4A49652   6.850   8.380  16.770
 2316DPPE   C1B49653   7.790   8.890  16.410
 2316DPPE   C2B49654   7.650   8.450  16.320
 2316DPPE   C3B49655   7.630   8.000  16.220
 2316DPPE   C4B49656   7.730   7.620  15.990
 2317DPPE   NH349657   8.390  12.620  17.760
 2317DPPE   PO449658   8.590  12.760  18.110
 2317DPPE   GL149659   8.890  12.540  17.780
 2317DPPE   GL249660   9.020  12.250  17.730
 2317DPPE   C1A49661   9.280  12.640  17.700
 2317DPPE   C2A49662   9.570  12.840  17.280
 2317DPPE   C3A49663   9.820  13.060  17.010
 2317DPPE   C4A49664   9.960  13.370  16.740
 2317DPPE   C1B49665   9.280  12.330  17.300
 2317DPPE   C2B49666   9.510  12.490  16.880
 2317DPPE   C3B49667   9.600  12.860  16.600
 2317DPPE   C4B49668   9.780  13.250  16.290
 2318DPPE   NH349669   7.030  11.850  15.710
 2318DPPE   PO449670   7.120  12.170  15.510
 2318DPPE   GL149671   7.230  12.490  15.330
 2318DPPE   GL249672   7.470  12.650  15.480
 2318DPPE   C1A49673   7.460  12.630  14.990
 2318DPPE   C2A49674   7.660  12.720  14.640
 2318DPPE   C3A49675   7.610  12.970  14.250
 2318DPPE   C4A49676   7.700  13.270  13.880
 2318DPPE   C1B49677   7.580  13.100  15.250
 2318DPPE   C2B49678   7.910  13.350  15.410
 2318DPPE   C3B49679   8.240  13.720  15.380
 2318DPPE   C4B49680   8.300  14.220  15.390
 2319DPPE   NH349681  10.210   9.590  18.540
 2319DPPE   PO449682  10.270   9.820  18.850
 2319DPPE   GL149683  10.020   9.760  19.240
 2319DPPE   GL249684   9.770   9.920  19.190
 2319DPPE   C1A49685   9.730   9.480  19.580
 2319DPPE   C2A49686   9.600   9.160  19.700
 2319DPPE   C3A49687   9.320   8.720  19.680
 2319DPPE   C4A49688   9.380   8.330  19.760
 2319DPPE   C1B49689   9.420   9.790  19.500
 2319DPPE   C2B49690   9.270   9.600  19.770
 2319DPPE   C3B49691   9.200   9.310  20.050
 2319DPPE   C4B49692   9.300   8.960  20.270
 2320DPPE   NH349693   9.970  13.640  21.860
 2320DPPE   PO449694   9.870  13.260  21.490
 2320DPPE   GL149695   9.700  13.180  21.920
 2320DPPE   GL249696   9.470  12.890  21.820
 2320DPPE   C1A49697   9.430  13.150  22.270
 2320DPPE   C2A49698   9.470  13.060  22.670
 2320DPPE   C3A49699   9.450  12.750  22.820
 2320DPPE   C4A49700   9.340  12.500  23.070
 2320DPPE   C1B49701   9.050  12.760  22.060
 2320DPPE   C2B49702   8.590  12.920  22.010
 2320DPPE   C3B49703   8.160  12.850  22.170
 2320DPPE   C4B49704   7.770  12.730  22.000
 2321DPPE   NH349705   6.700  12.810  14.360
 2321DPPE   PO449706   6.550  12.870  13.820
 2321DPPE   GL149707   6.870  12.840  13.550
 2321DPPE   GL249708   6.890  13.200  13.740
 2321DPPE   C1A49709   7.300  12.680  13.320
 2321DPPE   C2A49710   7.730  12.610  13.300
 2321DPPE   C3A49711   8.020  12.830  13.040
 2321DPPE   C4A49712   7.940  13.150  12.740
 2321DPPE   C1B49713   7.030  13.390  13.400
 2321DPPE   C2B49714   7.410  13.560  13.120
 2321DPPE   C3B49715   7.520  13.950  12.880
 2321DPPE   C4B49716   7.690  14.350  12.880
 2322DPPE   NH349717  14.880  11.230  22.580
 2322DPPE   PO449718  15.340  11.260  22.620
 2322DPPE   GL149719  15.670  10.980  22.610
 2322DPPE   GL249720  15.630  10.960  22.980
 2322DPPE   C1A49721  15.980  10.740  22.580
 2322DPPE   C2A49722  16.460  10.710  22.640
 2322DPPE   C3A49723  16.890  10.920  22.750
 2322DPPE   C4A49724  17.080  11.250  22.900
 2322DPPE   C1B49725  15.940  10.850  23.060
 2322DPPE   C2B49726  16.170  10.450  23.010
 2322DPPE   C3B49727  16.360  10.170  22.820
 2322DPPE   C4B49728  16.220  10.050  22.370
 2323DPPE   NH349729   6.270  20.850  18.420
 2323DPPE   PO449730   6.280  21.190  18.290
 2323DPPE   GL149731   5.860  21.460  18.360
 2323DPPE   GL249732   5.880  21.800  18.460
 2323DPPE   C1A49733   5.540  21.460  18.380
 2323DPPE   C2A49734   5.230  21.620  18.780
 2323DPPE   C3A49735   4.950  21.630  19.070
 2323DPPE   C4A49736   4.880  21.720  19.490
 2323DPPE   C1B49737   5.650  21.860  18.850
 2323DPPE   C2B49738   5.410  21.750  19.240
 2323DPPE   C3B49739   5.330  21.500  19.400
 2323DPPE   C4B49740   5.240  21.450  19.910
 2324DPPE   NH349741   6.930  13.150  16.210
 2324DPPE   PO449742   7.250  12.890  16.330
 2324DPPE   GL149743   7.500  13.110  16.060
 2324DPPE   GL249744   7.730  12.960  16.080
 2324DPPE   C1A49745   7.530  13.460  15.770
 2324DPPE   C2A49746   7.850  13.710  15.690
 2324DPPE   C3A49747   7.850  13.990  15.320
 2324DPPE   C4A49748   7.460  14.130  15.160
 2324DPPE   C1B49749   7.960  13.270  16.190
 2324DPPE   C2B49750   8.330  13.570  15.980
 2324DPPE   C3B49751   8.610  13.770  15.720
 2324DPPE   C4B49752   8.790  14.030  15.430
 2325DPPE   NH349753  13.910  19.670  22.640
 2325DPPE   PO449754  13.710  19.380  22.920
 2325DPPE   GL149755  13.770  19.200  22.550
 2325DPPE   GL249756  13.550  19.260  22.280
 2325DPPE   C1A49757  14.180  19.090  22.450
 2325DPPE   C2A49758  14.320  18.660  22.180
 2325DPPE   C3A49759  14.380  18.200  22.060
 2325DPPE   C4A49760  14.570  17.790  21.900
 2325DPPE   C1B49761  13.900  19.140  22.010
 2325DPPE   C2B49762  14.290  19.050  21.820
 2325DPPE   C3B49763  14.500  18.660  21.750
 2325DPPE   C4B49764  14.870  18.470  21.420
 2326DPPE   NH349765   4.900  16.140  15.000
 2326DPPE   PO449766   4.920  16.260  14.560
 2326DPPE   GL149767   4.490  16.360  14.740
 2326DPPE   GL249768   4.530  16.550  14.930
 2326DPPE   C1A49769   3.950  16.310  14.640
 2326DPPE   C2A49770   3.510  16.300  14.500
 2326DPPE   C3A49771   3.090  16.200  14.460
 2326DPPE   C4A49772   2.690  16.360  14.330
 2326DPPE   C1B49773   4.120  16.490  15.110
 2326DPPE   C2B49774   3.610  16.410  15.050
 2326DPPE   C3B49775   3.230  16.570  14.880
 2326DPPE   C4B49776   3.080  16.770  14.450
 2327DPPE   NH349777  11.980  13.600  22.880
 2327DPPE   PO449778  11.760  13.330  22.680
 2327DPPE   GL149779  11.460  13.110  22.930
 2327DPPE   GL249780  11.320  13.270  23.070
 2327DPPE   C1A49781  11.140  12.820  23.120
 2327DPPE   C2A49782  10.730  12.730  23.280
 2327DPPE   C3A49783  10.560  12.340  23.200
 2327DPPE   C4A49784  10.250  12.160  22.950
 2327DPPE   C1B49785  11.380  13.030  23.590
 2327DPPE   C2B49786  11.320  12.850  23.960
 2327DPPE   C3B49787  10.960  12.860  24.250
 2327DPPE   C4B49788  10.650  12.420  24.350
 2328DPPE   NH349789   9.730   9.790  16.320
 2328DPPE   PO449790   9.570   9.500  16.120
 2328DPPE   GL149791  10.040   9.680  15.960
 2328DPPE   GL249792  10.170   9.600  15.760
 2328DPPE   C1A49793  10.450   9.930  16.080
 2328DPPE   C2A49794  10.620  10.180  16.390
 2328DPPE   C3A49795  10.860  10.550  16.570
 2328DPPE   C4A49796  11.170  10.820  16.570
 2328DPPE   C1B49797  10.500   9.840  15.590
 2328DPPE   C2B49798  10.910  10.060  15.630
 2328DPPE   C3B49799  11.020  10.470  15.640
 2328DPPE   C4B49800  11.010  10.870  15.330
 2329DPPE   NH349801  12.700  19.490  23.110
 2329DPPE   PO449802  12.820  19.810  22.960
 2329DPPE   GL149803  12.810  19.540  22.570
 2329DPPE   GL249804  12.570  19.490  22.190
 2329DPPE   C1A49805  13.060  19.470  22.260
 2329DPPE   C2A49806  13.290  19.480  21.880
 2329DPPE   C3A49807  13.470  19.800  21.510
 2329DPPE   C4A49808  13.780  19.720  21.160
 2329DPPE   C1B49809  12.740  19.300  21.810
 2329DPPE   C2B49810  12.670  19.180  21.450
 2329DPPE   C3B49811  12.640  19.140  21.010
 2329DPPE   C4B49812  12.480  19.100  20.620
 2330DPPE   NH349813   9.590  23.030  19.830
 2330DPPE   PO449814  10.050  23.130  19.980
 2330DPPE   GL149815  10.230  23.500  19.930
 2330DPPE   GL249816  10.490  23.560  20.090
 2330DPPE   C1A49817  10.180  23.950  19.940
 2330DPPE   C2A49818  10.330  24.280  19.900
 2330DPPE   C3A49819  10.210  24.750  19.990
 2330DPPE   C4A49820  10.130  24.980  20.200
 2330DPPE   C1B49821  10.700  23.910  19.850
 2330DPPE   C2B49822  10.770  24.290  19.610
 2330DPPE   C3B49823  10.610  24.620  19.610
 2330DPPE   C4B49824  10.370  24.890  19.500
 2331DPPE   NH349825   9.260  21.850  21.060
 2331DPPE   PO449826   9.130  22.270  21.070
 2331DPPE   GL149827   8.910  22.460  21.230
 2331DPPE   GL249828   8.780  22.770  21.110
 2331DPPE   C1A49829   8.560  22.500  21.540
 2331DPPE   C2A49830   8.290  22.640  21.940
 2331DPPE   C3A49831   8.140  22.990  22.240
 2331DPPE   C4A49832   7.960  23.390  22.270
 2331DPPE   C1B49833   8.790  22.960  21.450
 2331DPPE   C2B49834   8.520  23.220  21.720
 2331DPPE   C3B49835   8.170  23.600  21.740
 2331DPPE   C4B49836   7.980  24.020  21.600
 2332DPPE   NH349837   8.070  22.840  18.410
 2332DPPE   PO449838   8.470  23.100  18.280
 2332DPPE   GL149839   8.850  23.240  18.110
 2332DPPE   GL249840   8.960  23.530  18.100
 2332DPPE   C1A49841   8.890  23.330  17.720
 2332DPPE   C2A49842   8.690  23.610  17.430
 2332DPPE   C3A49843   8.720  23.770  16.980
 2332DPPE   C4A49844   8.770  23.530  16.600
 2332DPPE   C1B49845   9.010  23.870  17.820
 2332DPPE   C2B49846   8.880  24.250  17.670
 2332DPPE   C3B49847   8.670  24.170  17.290
 2332DPPE   C4B49848   8.700  24.260  16.860
 2333DPPE   NH349849  14.100  15.160  23.230
 2333DPPE   PO449850  14.440  14.800  23.330
 2333DPPE   GL149851  14.430  14.920  22.900
 2333DPPE   GL249852  14.620  14.690  22.650
 2333DPPE   C1A49853  14.330  15.200  22.620
 2333DPPE   C2A49854  14.260  15.330  22.100
 2333DPPE   C3A49855  14.230  15.430  21.650
 2333DPPE   C4A49856  14.660  15.420  21.330
 2333DPPE   C1B49857  14.940  14.810  22.400
 2333DPPE   C2B49858  15.150  14.960  22.070
 2333DPPE   C3B49859  15.390  15.190  21.990
 2333DPPE   C4B49860  15.550  15.560  22.180
 2334DPPE   NH349861   6.430  12.540  13.290
 2334DPPE   PO449862   6.790  12.370  13.360
 2334DPPE   GL149863   6.830  12.430  13.010
 2334DPPE   GL249864   6.540  12.470  12.790
 2334DPPE   C1A49865   7.100  12.720  12.730
 2334DPPE   C2A49866   7.270  13.030  12.400
 2334DPPE   C3A49867   7.670  13.260  12.300
 2334DPPE   C4A49868   8.070  13.250  12.200
 2334DPPE   C1B49869   6.450  12.450  12.310
 2334DPPE   C2B49870   6.340  12.680  11.980
 2334DPPE   C3B49871   6.290  12.490  11.630
 2334DPPE   C4B49872   6.280  12.330  11.250
 2335DPPE   NH349873  15.830  15.490  23.940
 2335DPPE   PO449874  15.630  15.680  24.220
 2335DPPE   GL149875  16.000  15.770  24.430
 2335DPPE   GL249876  16.090  16.010  24.240
 2335DPPE   C1A49877  16.320  15.970  24.700
 2335DPPE   C2A49878  16.610  16.210  24.980
 2335DPPE   C3A49879  16.850  16.570  25.100
 2335DPPE   C4A49880  16.680  16.920  25.310
 2335DPPE   C1B49881  16.440  15.760  24.120
 2335DPPE   C2B49882  16.820  15.870  23.920
 2335DPPE   C3B49883  17.270  15.920  23.760
 2335DPPE   C4B49884  17.580  16.100  23.650
 2336DPPE   NH349885   8.890  15.750  19.810
 2336DPPE   PO449886   8.880  15.390  19.750
 2336DPPE   GL149887   9.070  15.490  19.390
 2336DPPE   GL249888   9.380  15.620  19.560
 2336DPPE   C1A49889   9.320  15.590  19.080
 2336DPPE   C2A49890   9.570  15.610  18.760
 2336DPPE   C3A49891   9.950  15.670  18.470
 2336DPPE   C4A49892  10.360  15.900  18.610
 2336DPPE   C1B49893   9.850  15.680  19.470
 2336DPPE   C2B49894  10.300  15.730  19.500
 2336DPPE   C3B49895  10.690  15.780  19.430
 2336DPPE   C4B49896  11.110  15.850  19.290
 2337DPPE   NH349897  13.470  14.630  22.870
 2337DPPE   PO449898  13.680  14.260  22.740
 2337DPPE   GL149899  13.550  14.150  22.310
 2337DPPE   GL249900  13.970  14.190  22.220
 2337DPPE   C1A49901  13.590  14.290  21.900
 2337DPPE   C2A49902  13.810  14.610  21.590
 2337DPPE   C3A49903  13.970  14.850  21.420
 2337DPPE   C4A49904  14.120  15.150  21.230
 2337DPPE   C1B49905  14.060  14.470  21.960
 2337DPPE   C2B49906  14.220  14.900  21.810
 2337DPPE   C3B49907  14.490  14.930  21.480
 2337DPPE   C4B49908  14.640  14.950  21.140
 2338DPPE   NH349909   8.150   9.670  16.710
 2338DPPE   PO449910   8.510   9.440  16.700
 2338DPPE   GL149911   8.480   9.170  16.970
 2338DPPE   GL249912   8.160   9.130  16.850
 2338DPPE   C1A49913   8.490   8.960  17.390
 2338DPPE   C2A49914   8.330   8.710  17.800
 2338DPPE   C3A49915   8.130   8.420  18.140
 2338DPPE   C4A49916   7.770   8.170  18.280
 2338DPPE   C1B49917   7.820   9.050  17.020
 2338DPPE   C2B49918   7.640   8.630  17.010
 2338DPPE   C3B49919   7.380   8.330  16.690
 2338DPPE   C4B49920   7.410   7.830  16.880
 2339DPPE   NH349921   7.290  13.370  16.630
 2339DPPE   PO449922   7.020  13.640  16.320
 2339DPPE   GL149923   7.410  13.850  16.180
 2339DPPE   GL249924   7.280  13.900  15.940
 2339DPPE   C1A49925   7.830  14.080  16.020
 2339DPPE   C2A49926   8.270  14.150  15.940
 2339DPPE   C3A49927   8.610  14.280  15.950
 2339DPPE   C4A49928   8.990  14.310  15.810
 2339DPPE   C1B49929   7.530  14.160  15.660
 2339DPPE   C2B49930   7.920  14.410  15.600
 2339DPPE   C3B49931   8.300  14.600  15.750
 2339DPPE   C4B49932   8.650  14.830  15.620
 2340DPPE   NH349933  12.890  12.680  23.160
 2340DPPE   PO449934  12.870  13.090  23.070
 2340DPPE   GL149935  12.950  13.050  23.530
 2340DPPE   GL249936  12.730  12.890  23.760
 2340DPPE   C1A49937  13.230  12.740  23.740
 2340DPPE   C2A49938  13.340  12.630  24.190
 2340DPPE   C3A49939  13.420  12.460  24.510
 2340DPPE   C4A49940  13.210  12.400  24.840
 2340DPPE   C1B49941  12.870  12.700  24.120
 2340DPPE   C2B49942  12.970  12.760  24.500
 2340DPPE   C3B49943  13.170  12.860  24.850
 2340DPPE   C4B49944  13.280  12.760  25.250
 2341DPPE   NH349945   9.320  19.370  20.790
 2341DPPE   PO449946   9.230  18.920  20.860
 2341DPPE   GL149947   9.440  18.770  20.540
 2341DPPE   GL249948   9.280  18.530  20.290
 2341DPPE   C1A49949   9.740  18.760  20.270
 2341DPPE   C2A49950  10.040  18.590  19.940
 2341DPPE   C3A49951  10.180  18.470  19.570
 2341DPPE   C4A49952  10.010  18.290  19.170
 2341DPPE   C1B49953   9.410  18.590  19.870
 2341DPPE   C2B49954   9.670  18.470  19.520
 2341DPPE   C3B49955   9.450  18.320  19.150
 2341DPPE   C4B49956   9.690  18.270  18.770
 2342DPPE   NH349957  14.230  14.300  24.090
 2342DPPE   PO449958  14.140  13.890  23.960
 2342DPPE   GL149959  13.970  13.470  24.320
 2342DPPE   GL249960  14.130  13.260  24.410
 2342DPPE   C1A49961  13.550  13.400  24.580
 2342DPPE   C2A49962  13.500  13.220  24.980
 2342DPPE   C3A49963  13.540  13.190  25.380
 2342DPPE   C4A49964  13.340  12.870  25.780
 2342DPPE   C1B49965  13.970  13.330  24.820
 2342DPPE   C2B49966  13.770  13.600  25.230
 2342DPPE   C3B49967  13.700  13.730  25.680
 2342DPPE   C4B49968  13.690  13.930  26.020
 2343DPPE   NH349969   9.960  23.350  19.520
 2343DPPE   PO449970   9.930  22.890  19.500
 2343DPPE   GL149971  10.010  22.910  19.050
 2343DPPE   GL249972   9.880  23.310  19.010
 2343DPPE   C1A49973  10.310  23.160  18.840
 2343DPPE   C2A49974  10.220  23.500  18.470
 2343DPPE   C3A49975  10.170  23.950  18.370
 2343DPPE   C4A49976  10.280  24.270  18.010
 2343DPPE   C1B49977  10.090  23.710  18.950
 2343DPPE   C2B49978  10.550  23.790  18.750
 2343DPPE   C3B49979  10.740  24.050  18.340
 2343DPPE   C4B49980  10.680  23.950  17.980
 2344DPPE   NH349981   8.900  21.640  19.320
 2344DPPE   PO449982   8.920  22.120  19.170
 2344DPPE   GL149983   9.180  22.140  18.880
 2344DPPE   GL249984   9.190  21.790  18.800
 2344DPPE   C1A49985   9.440  22.360  18.530
 2344DPPE   C2A49986   9.860  22.370  18.380
 2344DPPE   C3A49987  10.180  22.490  18.140
 2344DPPE   C4A49988  10.620  22.520  18.000
 2344DPPE   C1B49989   9.390  21.540  18.450
 2344DPPE   C2B49990   9.410  21.320  18.070
 2344DPPE   C3B49991   9.580  21.120  17.680
 2344DPPE   C4B49992   9.480  20.960  17.240
 2345DPPE   NH349993   5.650  13.530  15.610
 2345DPPE   PO449994   5.800  13.410  15.160
 2345DPPE   GL149995   5.270  13.420  15.110
 2345DPPE   GL249996   5.200  13.190  15.280
 2345DPPE   C1A49997   4.830  13.600  15.110
 2345DPPE   C2A49998   4.500  13.370  15.050
 2345DPPE   C3A49999   4.070  13.260  14.960
 2345DPPE   C4A50000   3.770  12.870  15.110
 2345DPPE   C1B50001   4.880  12.780  15.350
 2345DPPE   C2B50002   4.520  12.390  15.320
 2345DPPE   C3B50003   4.100  12.220  15.370
 2345DPPE   C4B50004   3.730  12.410  15.300
 2346DPPE   NH350005  15.570  13.380  22.360
 2346DPPE   PO450006  15.740  13.660  22.650
 2346DPPE   GL150007  16.040  13.710  22.310
 2346DPPE   GL250008  15.990  13.480  22.090
 2346DPPE   C1A50009  16.330  13.920  22.130
 2346DPPE   C2A50010  16.590  14.100  22.010
 2346DPPE   C3A50011  16.840  14.270  21.710
 2346DPPE   C4A50012  17.080  14.380  21.360
 2346DPPE   C1B50013  16.370  13.390  21.930
 2346DPPE   C2B50014  16.740  13.660  21.840
 2346DPPE   C3B50015  17.160  13.910  21.880
 2346DPPE   C4B50016  17.510  13.990  21.760
 2347DPPE   NH350017   6.450  12.990  16.250
 2347DPPE   PO450018   6.170  13.280  16.410
 2347DPPE   GL150019   5.760  13.150  16.560
 2347DPPE   GL250020   5.630  13.350  16.730
 2347DPPE   C1A50021   5.390  12.840  16.590
 2347DPPE   C2A50022   5.160  12.510  16.740
 2347DPPE   C3A50023   5.030  12.200  17.050
 2347DPPE   C4A50024   4.780  12.030  17.400
 2347DPPE   C1B50025   5.510  13.270  17.110
 2347DPPE   C2B50026   5.120  13.180  17.340
 2347DPPE   C3B50027   4.760  13.250  17.650
 2347DPPE   C4B50028   4.360  13.220  17.970
 2348DPPE   NH350029   7.870  11.020  14.990
 2348DPPE   PO450030   8.020  10.670  15.300
 2348DPPE   GL150031   8.360  10.940  15.090
 2348DPPE   GL250032   8.310  10.880  14.720
 2348DPPE   C1A50033   8.700  11.210  15.010
 2348DPPE   C2A50034   9.070  11.430  14.810
 2348DPPE   C3A50035   9.490  11.330  14.860
 2348DPPE   C4A50036   9.880  11.450  14.770
 2348DPPE   C1B50037   8.570  11.300  14.470
 2348DPPE   C2B50038   8.680  11.730  14.560
 2348DPPE   C3B50039   9.060  11.910  14.400
 2348DPPE   C4B50040   9.450  11.790  14.640
 2349DPPE   NH350041   5.040  17.750  13.760
 2349DPPE   PO450042   4.710  17.670  14.120
 2349DPPE   GL150043   4.290  17.540  14.270
 2349DPPE   GL250044   4.290  17.470  14.670
 2349DPPE   C1A50045   4.040  17.330  14.020
 2349DPPE   C2A50046   3.710  17.100  14.010
 2349DPPE   C3A50047   3.480  16.850  13.790
 2349DPPE   C4A50048   3.330  16.620  13.440
 2349DPPE   C1B50049   3.970  17.560  14.960
 2349DPPE   C2B50050   3.570  17.480  15.000
 2349DPPE   C3B50051   3.260  17.440  14.750
 2349DPPE   C4B50052   3.350  17.190  14.330
 2350DPPE   NH350053  14.380  21.290  22.620
 2350DPPE   PO450054  14.210  20.840  22.600
 2350DPPE   GL150055  14.560  20.850  22.830
 2350DPPE   GL250056  14.520  20.480  22.790
 2350DPPE   C1A50057  15.050  20.680  22.940
 2350DPPE   C2A50058  15.480  20.760  22.970
 2350DPPE   C3A50059  15.720  20.480  23.220
 2350DPPE   C4A50060  16.170  20.400  23.250
 2350DPPE   C1B50061  14.880  20.700  22.480
 2350DPPE   C2B50062  15.190  21.090  22.200
 2350DPPE   C3B50063  15.650  21.290  22.190
 2350DPPE   C4B50064  15.850  21.730  22.300
 2351DPPE   NH350065  12.730  20.100  23.410
 2351DPPE   PO450066  12.940  19.820  23.670
 2351DPPE   GL150067  13.030  20.190  23.920
 2351DPPE   GL250068  13.340  20.410  24.010
 2351DPPE   C1A50069  12.920  20.370  24.350
 2351DPPE   C2A50070  12.960  20.430  24.790
 2351DPPE   C3A50071  12.670  20.520  25.240
 2351DPPE   C4A50072  12.790  20.780  25.520
 2351DPPE   C1B50073  13.370  20.300  24.470
 2351DPPE   C2B50074  13.360  20.120  24.880
 2351DPPE   C3B50075  13.450  20.280  25.320
 2351DPPE   C4B50076  13.540  20.280  25.810
 2352DPPE   NH350077  13.050  17.200  24.340
 2352DPPE   PO450078  13.400  16.990  24.530
 2352DPPE   GL150079  13.710  17.150  24.900
 2352DPPE   GL250080  13.640  16.830  24.950
 2352DPPE   C1A50081  13.860  17.260  25.320
 2352DPPE   C2A50082  13.710  17.350  25.790
 2352DPPE   C3A50083  13.690  17.240  26.220
 2352DPPE   C4A50084  13.880  17.290  26.560
 2352DPPE   C1B50085  13.690  16.690  25.320
 2352DPPE   C2B50086  13.960  16.350  25.610
 2352DPPE   C3B50087  14.150  16.440  26.080
 2352DPPE   C4B50088  14.230  16.520  26.550
 2353DPPE   NH350089   9.610  11.440  19.070
 2353DPPE   PO450090   9.560  11.070  19.160
 2353DPPE   GL150091   9.400  10.910  19.460
 2353DPPE   GL250092   9.110  10.900  19.510
 2353DPPE   C1A50093   9.430  10.420  19.720
 2353DPPE   C2A50094   9.240  10.180  20.100
 2353DPPE   C3A50095   9.100   9.700  20.400
 2353DPPE   C4A50096   8.750   9.730  20.730
 2353DPPE   C1B50097   8.860  10.530  19.740
 2353DPPE   C2B50098   8.750  10.370  20.010
 2353DPPE   C3B50099   8.430  10.160  20.080
 2353DPPE   C4B50100   8.370   9.860  20.340
 2354DPPE   NH350101   7.710  13.750  19.490
 2354DPPE   PO450102   7.830  13.310  19.660
 2354DPPE   GL150103   7.510  13.010  19.620
 2354DPPE   GL250104   7.150  12.920  19.530
 2354DPPE   C1A50105   7.190  12.990  20.020
 2354DPPE   C2A50106   7.000  13.010  20.450
 2354DPPE   C3A50107   6.680  12.980  20.740
 2354DPPE   C4A50108   6.500  13.270  20.920
 2354DPPE   C1B50109   6.900  12.730  19.770
 2354DPPE   C2B50110   6.760  12.510  20.150
 2354DPPE   C3B50111   6.350  12.330  20.200
 2354DPPE   C4B50112   5.950  12.450  20.250
 2355DPPE   NH350113   9.290  10.250  18.520
 2355DPPE   PO450114   9.790   9.950  18.600
 2355DPPE   GL150115   9.780   9.600  18.790
 2355DPPE   GL250116  10.030   9.300  19.000
 2355DPPE   C1A50117   9.520   9.430  19.120
 2355DPPE   C2A50118   9.280   9.230  19.320
 2355DPPE   C3A50119   9.060   9.190  19.570
 2355DPPE   C4A50120   8.900   8.940  19.900
 2355DPPE   C1B50121   9.890   9.070  19.310
 2355DPPE   C2B50122   9.790   8.570  19.390
 2355DPPE   C3B50123   9.840   8.310  19.730
 2355DPPE   C4B50124   9.670   8.030  19.940
 2356DPPE   NH350125   5.750  14.910  16.550
 2356DPPE   PO450126   5.610  15.040  16.120
 2356DPPE   GL150127   5.250  14.950  16.480
 2356DPPE   GL250128   5.350  14.830  16.860
 2356DPPE   C1A50129   4.880  15.020  16.740
 2356DPPE   C2A50130   4.430  14.970  16.720
 2356DPPE   C3A50131   3.970  14.790  16.710
 2356DPPE   C4A50132   3.820  14.430  16.750
 2356DPPE   C1B50133   5.060  14.510  16.920
 2356DPPE   C2B50134   4.660  14.480  17.120
 2356DPPE   C3B50135   4.300  14.320  17.390
 2356DPPE   C4B50136   3.990  14.550  17.680
 2357DPPE   NH350137  10.680   9.550  17.970
 2357DPPE   PO450138  10.500   9.870  17.760
 2357DPPE   GL150139  10.870  10.040  17.710
 2357DPPE   GL250140  11.250  10.040  17.830
 2357DPPE   C1A50141  10.980  10.430  17.560
 2357DPPE   C2A50142  11.250  10.500  17.240
 2357DPPE   C3A50143  11.590  10.500  16.940
 2357DPPE   C4A50144  11.870  10.860  16.880
 2357DPPE   C1B50145  11.360  10.450  18.060
 2357DPPE   C2B50146  11.660  10.770  17.960
 2357DPPE   C3B50147  12.060  10.730  17.840
 2357DPPE   C4B50148  12.500  10.490  17.780
 2358DPPE   NH350149  13.730  19.090  24.060
 2358DPPE   PO450150  14.190  19.190  24.260
 2358DPPE   GL150151  14.460  19.020  24.460
 2358DPPE   GL250152  14.810  19.180  24.560
 2358DPPE   C1A50153  14.450  18.960  24.920
 2358DPPE   C2A50154  14.240  19.060  25.310
 2358DPPE   C3A50155  14.110  19.430  25.590
 2358DPPE   C4A50156  14.090  19.600  26.010
 2358DPPE   C1B50157  14.850  19.310  24.950
 2358DPPE   C2B50158  14.720  19.260  25.430
 2358DPPE   C3B50159  14.920  19.280  25.870
 2358DPPE   C4B50160  15.230  19.010  26.210
 2359DPPE   NH350161  13.070  11.900  21.370
 2359DPPE   PO450162  12.840  11.710  21.050
 2359DPPE   GL150163  13.260  11.850  20.840
 2359DPPE   GL250164  13.140  11.900  20.520
 2359DPPE   C1A50165  13.630  11.930  20.470
 2359DPPE   C2A50166  13.710  11.990  20.010
 2359DPPE   C3A50167  13.980  12.190  19.670
 2359DPPE   C4A50168  14.150  12.390  19.380
 2359DPPE   C1B50169  13.210  12.150  20.130
 2359DPPE   C2B50170  13.490  12.420  19.950
 2359DPPE   C3B50171  13.680  12.540  19.610
 2359DPPE   C4B50172  14.030  12.840  19.440
 2360DPPE   NH350173   7.560  11.410  17.290
 2360DPPE   PO450174   7.740  10.940  17.090
 2360DPPE   GL150175   7.430  10.750  17.360
 2360DPPE   GL250176   7.560  10.570  17.460
 2360DPPE   C1A50177   7.040  10.570  17.320
 2360DPPE   C2A50178   6.730  10.240  17.380
 2360DPPE   C3A50179   6.540  10.090  17.660
 2360DPPE   C4A50180   6.410   9.660  17.860
 2360DPPE   C1B50181   7.330  10.290  17.580
 2360DPPE   C2B50182   7.040  10.000  17.740
 2360DPPE   C3B50183   6.860   9.920  18.020
 2360DPPE   C4B50184   6.630   9.810  18.360
 2361DPPE   NH350185  10.720  21.220  21.320
 2361DPPE   PO450186  10.560  21.490  21.180
 2361DPPE   GL150187  10.760  21.290  20.810
 2361DPPE   GL250188  10.510  21.270  20.630
 2361DPPE   C1A50189  11.160  21.190  20.540
 2361DPPE   C2A50190  11.390  21.330  20.260
 2361DPPE   C3A50191  11.530  21.350  19.870
 2361DPPE   C4A50192  11.900  21.430  19.650
 2361DPPE   C1B50193  10.710  21.000  20.340
 2361DPPE   C2B50194  11.020  20.760  20.360
 2361DPPE   C3B50195  11.360  20.730  20.590
 2361DPPE   C4B50196  11.830  20.650  20.680
 2362DPPE   NH350197   8.650  11.090  18.630
 2362DPPE   PO450198   8.760  11.530  18.460
 2362DPPE   GL150199   8.550  11.590  18.770
 2362DPPE   GL250200   8.260  11.690  18.800
 2362DPPE   C1A50201   8.480  11.730  19.260
 2362DPPE   C2A50202   8.350  11.830  19.690
 2362DPPE   C3A50203   7.940  11.630  19.880
 2362DPPE   C4A50204   7.800  11.430  20.220
 2362DPPE   C1B50205   8.270  11.290  19.100
 2362DPPE   C2B50206   8.100  10.880  19.260
 2362DPPE   C3B50207   7.920  10.720  19.600
 2362DPPE   C4B50208   7.620  10.510  19.670
 2363DPPE   NH350209  14.280   9.940  20.020
 2363DPPE   PO450210  14.020   9.620  19.900
 2363DPPE   GL150211  14.240   9.770  19.530
 2363DPPE   GL250212  14.520   9.700  19.500
 2363DPPE   C1A50213  14.310  10.020  19.130
 2363DPPE   C2A50214  14.710  10.160  18.930
 2363DPPE   C3A50215  15.000   9.940  18.750
 2363DPPE   C4A50216  15.260   9.740  18.470
 2363DPPE   C1B50217  14.740   9.670  19.160
 2363DPPE   C2B50218  14.900   9.410  18.860
 2363DPPE   C3B50219  15.160   9.170  18.560
 2363DPPE   C4B50220  15.430   8.770  18.670
 2364DPPE   NH350221  14.730  17.230  23.620
 2364DPPE   PO450222  14.560  17.580  23.420
 2364DPPE   GL150223  14.900  17.570  23.240
 2364DPPE   GL250224  15.110  17.270  23.330
 2364DPPE   C1A50225  15.360  17.630  23.060
 2364DPPE   C2A50226  15.740  17.760  23.140
 2364DPPE   C3A50227  16.190  17.720  23.090
 2364DPPE   C4A50228  16.490  17.520  22.960
 2364DPPE   C1B50229  15.540  17.110  23.170
 2364DPPE   C2B50230  15.790  16.910  22.820
 2364DPPE   C3B50231  15.970  16.650  22.520
 2364DPPE   C4B50232  16.270  16.800  22.270
 2365DPPE   NH350233  11.540   9.530  19.630
 2365DPPE   PO450234  11.760   9.690  19.800
 2365DPPE   GL150235  11.570   9.670  20.100
 2365DPPE   GL250236  11.370   9.460  20.190
 2365DPPE   C1A50237  11.440   9.540  20.670
 2365DPPE   C2A50238  11.310   9.260  20.910
 2365DPPE   C3A50239  11.170   9.070  21.210
 2365DPPE   C4A50240  11.050   8.900  21.600
 2365DPPE   C1B50241  11.050   9.340  20.460
 2365DPPE   C2B50242  10.800   9.210  20.700
 2365DPPE   C3B50243  10.670   8.820  20.880
 2365DPPE   C4B50244  10.380   8.690  21.240
 2366DPPE   NH350245   9.400  13.810  21.510
 2366DPPE   PO450246   9.720  14.060  21.700
 2366DPPE   GL150247   9.400  13.970  22.000
 2366DPPE   GL250248   9.520  13.710  22.110
 2366DPPE   C1A50249   9.040  13.700  22.190
 2366DPPE   C2A50250   8.680  13.530  22.320
 2366DPPE   C3A50251   8.380  13.320  22.430
 2366DPPE   C4A50252   8.160  13.080  22.670
 2366DPPE   C1B50253   9.440  13.850  22.470
 2366DPPE   C2B50254   9.120  13.530  22.690
 2366DPPE   C3B50255   9.010  13.540  23.170
 2366DPPE   C4B50256   8.830  13.300  23.440
 2367DPPE   NH350257   8.910  22.550  20.650
 2367DPPE   PO450258   9.230  22.840  20.450
 2367DPPE   GL150259   9.070  23.110  20.840
 2367DPPE   GL250260   9.220  23.300  20.690
 2367DPPE   C1A50261   8.690  23.220  21.060
 2367DPPE   C2A50262   8.320  23.360  21.290
 2367DPPE   C3A50263   7.850  23.430  21.410
 2367DPPE   C4A50264   7.570  23.890  21.400
 2367DPPE   C1B50265   9.250  23.600  20.920
 2367DPPE   C2B50266   9.060  23.900  21.190
 2367DPPE   C3B50267   8.790  24.080  21.500
 2367DPPE   C4B50268   8.450  24.230  21.610
 2368DPPE   NH350269  14.370   9.660  21.080
 2368DPPE   PO450270  14.390   9.200  21.040
 2368DPPE   GL150271  14.180   8.900  21.290
 2368DPPE   GL250272  14.420   8.660  21.220
 2368DPPE   C1A50273  13.790   8.710  21.500
 2368DPPE   C2A50274  13.710   8.380  21.800
 2368DPPE   C3A50275  13.890   8.090  22.030
 2368DPPE   C4A50276  13.900   7.740  22.190
 2368DPPE   C1B50277  14.090   8.280  21.120
 2368DPPE   C2B50278  14.010   7.840  21.400
 2368DPPE   C3B50279  14.100   7.660  21.740
 2368DPPE   C4B50280  14.390   7.580  22.130
 2369DPPE   NH350281  11.960  22.090  22.860
 2369DPPE   PO450282  12.290  22.040  22.700
 2369DPPE   GL150283  12.300  22.420  23.010
 2369DPPE   GL250284  12.520  22.710  22.940
 2369DPPE   C1A50285  12.110  22.590  23.220
 2369DPPE   C2A50286  12.100  22.510  23.690
 2369DPPE   C3A50287  12.020  22.310  24.060
 2369DPPE   C4A50288  12.070  22.390  24.510
 2369DPPE   C1B50289  12.880  22.930  23.020
 2369DPPE   C2B50290  13.100  22.840  23.280
 2369DPPE   C3B50291  13.430  23.050  23.340
 2369DPPE   C4B50292  13.290  23.370  23.410
 2370DPPE   NH350293  10.300  19.590  22.730
 2370DPPE   PO450294  10.160  20.030  22.630
 2370DPPE   GL150295   9.890  20.100  22.940
 2370DPPE   GL250296   9.550  20.080  22.930
 2370DPPE   C1A50297   9.880  20.220  23.310
 2370DPPE   C2A50298   9.610  20.310  23.560
 2370DPPE   C3A50299   9.350  20.360  23.830
 2370DPPE   C4A50300   8.900  20.460  24.120
 2370DPPE   C1B50301   9.240  20.210  23.240
 2370DPPE   C2B50302   8.950  20.410  23.560
 2370DPPE   C3B50303   8.630  20.640  23.750
 2370DPPE   C4B50304   8.210  20.900  23.870
 2371DPPE   NH350305   8.500   9.780  15.470
 2371DPPE   PO450306   8.430   9.380  15.430
 2371DPPE   GL150307   8.140   8.980  15.570
 2371DPPE   GL250308   7.920   9.070  15.890
 2371DPPE   C1A50309   8.070   8.510  15.580
 2371DPPE   C2A50310   8.210   8.190  15.430
 2371DPPE   C3A50311   8.210   7.830  15.320
 2371DPPE   C4A50312   8.260   7.450  14.940
 2371DPPE   C1B50313   7.780   8.720  15.890
 2371DPPE   C2B50314   7.460   8.430  15.860
 2371DPPE   C3B50315   7.120   8.110  15.910
 2371DPPE   C4B50316   7.320   7.840  15.710
 2372DPPE   NH350317   7.060  17.720  18.760
 2372DPPE   PO450318   7.370  17.340  18.690
 2372DPPE   GL150319   7.810  17.220  18.500
 2372DPPE   GL250320   7.910  17.560  18.550
 2372DPPE   C1A50321   7.990  17.140  18.120
 2372DPPE   C2A50322   8.410  17.160  17.900
 2372DPPE   C3A50323   8.690  17.010  17.570
 2372DPPE   C4A50324   9.030  16.990  17.390
 2372DPPE   C1B50325   8.250  17.540  18.270
 2372DPPE   C2B50326   8.600  17.590  17.900
 2372DPPE   C3B50327   8.800  17.480  17.450
 2372DPPE   C4B50328   9.060  17.430  17.150
 2373DPPE   NH350329   7.790  19.090  18.380
 2373DPPE   PO450330   7.660  19.470  17.960
 2373DPPE   GL150331   7.900  19.110  17.820
 2373DPPE   GL250332   7.820  19.100  17.540
 2373DPPE   C1A50333   8.270  18.990  17.800
 2373DPPE   C2A50334   8.480  18.610  17.960
 2373DPPE   C3A50335   8.810  18.310  17.930
 2373DPPE   C4A50336   9.310  18.300  17.910
 2373DPPE   C1B50337   8.170  19.010  17.320
 2373DPPE   C2B50338   8.390  18.760  16.960
 2373DPPE   C3B50339   8.600  18.790  16.550
 2373DPPE   C4B50340   8.340  19.030  16.230
 2374DPPE   NH350341   8.780  21.220  19.940
 2374DPPE   PO450342   9.160  20.930  19.720
 2374DPPE   GL150343   9.370  20.630  19.470
 2374DPPE   GL250344   9.300  20.400  19.680
 2374DPPE   C1A50345   9.770  20.680  19.180
 2374DPPE   C2A50346  10.110  20.670  18.870
 2374DPPE   C3A50347  10.440  20.660  18.640
 2374DPPE   C4A50348  10.730  20.840  18.500
 2374DPPE   C1B50349   9.760  20.330  19.500
 2374DPPE   C2B50350  10.090  20.290  19.310
 2374DPPE   C3B50351  10.490  20.330  19.090
 2374DPPE   C4B50352  10.620  20.060  18.960
 2375DPPE   NH350353   6.220  12.790  14.320
 2375DPPE   PO450354   5.840  12.930  14.430
 2375DPPE   GL150355   5.500  12.610  14.550
 2375DPPE   GL250356   5.640  12.350  14.770
 2375DPPE   C1A50357   5.180  12.470  14.570
 2375DPPE   C2A50358   4.790  12.300  14.360
 2375DPPE   C3A50359   4.490  12.060  14.220
 2375DPPE   C4A50360   4.150  11.730  14.000
 2375DPPE   C1B50361   5.330  12.100  14.900
 2375DPPE   C2B50362   4.980  11.940  14.820
 2375DPPE   C3B50363   4.610  11.790  14.610
 2375DPPE   C4B50364   4.270  11.530  14.450
 2376DPPE   NH350365  10.400  13.050  20.220
 2376DPPE   PO450366  10.130  13.490  20.320
 2376DPPE   GL150367  10.380  13.450  19.920
 2376DPPE   GL250368  10.170  13.460  19.640
 2376DPPE   C1A50369  10.670  13.330  19.550
 2376DPPE   C2A50370  10.900  13.450  19.190
 2376DPPE   C3A50371  11.100  13.640  18.840
 2376DPPE   C4A50372  11.090  13.920  18.520
 2376DPPE   C1B50373  10.330  13.730  19.310
 2376DPPE   C2B50374  10.620  13.870  18.890
 2376DPPE   C3B50375  10.620  14.290  19.150
 2376DPPE   C4B50376  10.340  14.550  19.430
 2377DPPE   NH350377   6.290  16.060  15.300
 2377DPPE   PO450378   6.100  16.400  15.260
 2377DPPE   GL150379   6.370  16.510  14.990
 2377DPPE   GL250380   6.560  16.300  14.780
 2377DPPE   C1A50381   6.820  16.740  14.810
 2377DPPE   C2A50382   7.250  16.890  14.700
 2377DPPE   C3A50383   7.690  16.760  14.590
 2377DPPE   C4A50384   8.060  16.720  14.290
 2377DPPE   C1B50385   6.900  16.200  14.620
 2377DPPE   C2B50386   7.290  16.460  14.380
 2377DPPE   C3B50387   7.560  16.390  14.140
 2377DPPE   C4B50388   7.930  16.370  13.910
 2378DPPE   NH350389  12.680  10.150  19.550
 2378DPPE   PO450390  12.410  10.420  19.840
 2378DPPE   GL150391  12.400  10.520  19.360
 2378DPPE   GL250392  12.600  10.720  19.290
 2378DPPE   C1A50393  12.350  10.650  18.890
 2378DPPE   C2A50394  12.670  10.610  18.540
 2378DPPE   C3A50395  13.020  10.630  18.230
 2378DPPE   C4A50396  12.950  10.820  17.840
 2378DPPE   C1B50397  12.870  10.810  19.000
 2378DPPE   C2B50398  13.020  10.970  18.690
 2378DPPE   C3B50399  13.220  11.300  18.350
 2378DPPE   C4B50400  13.470  11.210  18.070
 2379DPPE   NH350401  12.710  18.560  23.520
 2379DPPE   PO450402  12.790  18.910  23.690
 2379DPPE   GL150403  12.770  19.060  24.080
 2379DPPE   GL250404  12.580  18.950  24.340
 2379DPPE   C1A50405  12.880  19.240  24.590
 2379DPPE   C2A50406  12.870  19.550  24.820
 2379DPPE   C3A50407  13.140  19.770  25.170
 2379DPPE   C4A50408  13.250  19.610  25.550
 2379DPPE   C1B50409  12.580  18.490  24.560
 2379DPPE   C2B50410  12.550  18.330  24.980
 2379DPPE   C3B50411  12.470  18.380  25.450
 2379DPPE   C4B50412  12.460  18.390  25.860
 2380DPPE   NH350413   7.920  10.190  16.670
 2380DPPE   PO450414   7.810  10.680  16.590
 2380DPPE   GL150415   7.490  10.400  16.830
 2380DPPE   GL250416   7.360  10.360  17.040
 2380DPPE   C1A50417   6.950  10.240  16.810
 2380DPPE   C2A50418   6.800   9.860  16.570
 2380DPPE   C3A50419   6.570   9.470  16.710
 2380DPPE   C4A50420   6.260   9.180  16.870
 2380DPPE   C1B50421   7.130  10.050  17.230
 2380DPPE   C2B50422   6.890   9.760  17.280
 2380DPPE   C3B50423   6.720   9.450  17.540
 2380DPPE   C4B50424   6.770   9.100  17.840
 2381DPPE   NH350425   5.460  13.220  13.710
 2381DPPE   PO450426   5.220  12.800  13.830
 2381DPPE   GL150427   5.130  12.580  13.450
 2381DPPE   GL250428   4.920  12.780  13.310
 2381DPPE   C1A50429   4.690  12.200  13.380
 2381DPPE   C2A50430   4.470  11.980  13.200
 2381DPPE   C3A50431   4.210  11.610  13.320
 2381DPPE   C4A50432   4.410  11.250  13.580
 2381DPPE   C1B50433   4.550  12.690  13.380
 2381DPPE   C2B50434   4.260  12.460  13.230
 2381DPPE   C3B50435   4.010  12.310  12.930
 2381DPPE   C4B50436   3.810  12.340  12.500
 2382DPPE   NH350437   7.950  18.960  19.250
 2382DPPE   PO450438   7.910  19.260  18.870
 2382DPPE   GL150439   8.210  19.010  18.790
 2382DPPE   GL250440   8.400  19.220  18.730
 2382DPPE   C1A50441   8.410  18.970  18.310
 2382DPPE   C2A50442   8.760  19.010  18.020
 2382DPPE   C3A50443   9.100  18.880  17.820
 2382DPPE   C4A50444   9.460  18.820  17.710
 2382DPPE   C1B50445   8.820  19.080  18.620
 2382DPPE   C2B50446   9.110  18.970  18.390
 2382DPPE   C3B50447   9.460  19.000  18.210
 2382DPPE   C4B50448   9.830  18.900  18.120
 2383DPPE   NH350449   9.250  21.860  20.140
 2383DPPE   PO450450   8.990  21.990  20.580
 2383DPPE   GL150451   8.690  22.090  20.900
 2383DPPE   GL250452   8.490  22.300  21.040
 2383DPPE   C1A50453   8.520  22.040  21.410
 2383DPPE   C2A50454   8.430  22.090  21.850
 2383DPPE   C3A50455   8.160  22.140  22.160
 2383DPPE   C4A50456   7.950  22.520  22.440
 2383DPPE   C1B50457   8.110  22.330  21.350
 2383DPPE   C2B50458   7.880  22.350  21.690
 2383DPPE   C3B50459   7.620  22.190  22.120
 2383DPPE   C4B50460   7.490  22.330  22.470
 2384DPPE   NH350461   6.420  18.140  19.240
 2384DPPE   PO450462   6.270  18.080  18.960
 2384DPPE   GL150463   5.860  17.880  19.300
 2384DPPE   GL250464   6.050  17.830  19.560
 2384DPPE   C1A50465   5.680  17.580  19.500
 2384DPPE   C2A50466   5.240  17.440  19.530
 2384DPPE   C3A50467   5.010  17.230  19.750
 2384DPPE   C4A50468   4.740  17.050  20.010
 2384DPPE   C1B50469   5.850  17.730  19.960
 2384DPPE   C2B50470   5.400  17.640  19.960
 2384DPPE   C3B50471   5.090  17.420  20.200
 2384DPPE   C4B50472   5.230  17.350  20.650
 2385DPPE   NH350473  13.030  15.850  23.980
 2385DPPE   PO450474  13.270  15.480  23.890
 2385DPPE   GL150475  13.230  15.500  24.310
 2385DPPE   GL250476  12.990  15.730  24.490
 2385DPPE   C1A50477  13.120  15.190  24.600
 2385DPPE   C2A50478  12.780  15.050  24.870
 2385DPPE   C3A50479  12.530  14.960  25.090
 2385DPPE   C4A50480  12.370  15.080  25.500
 2385DPPE   C1B50481  12.800  15.570  24.810
 2385DPPE   C2B50482  12.550  15.640  25.140
 2385DPPE   C3B50483  12.430  15.620  25.440
 2385DPPE   C4B50484  12.020  15.460  25.390
 2386DPPE   NH350485   6.800  11.720  14.980
 2386DPPE   PO450486   6.930  11.970  14.690
 2386DPPE   GL150487   7.320  12.270  14.720
 2386DPPE   GL250488   7.420  12.260  14.440
 2386DPPE   C1A50489   7.820  12.290  14.820
 2386DPPE   C2A50490   8.130  12.570  14.750
 2386DPPE   C3A50491   8.510  12.760  14.790
 2386DPPE   C4A50492   9.030  12.790  14.710
 2386DPPE   C1B50493   7.890  12.490  14.240
 2386DPPE   C2B50494   8.080  12.990  14.150
 2386DPPE   C3B50495   8.180  13.330  13.880
 2386DPPE   C4B50496   8.390  13.650  13.750
 2387DPPE   NH350497  12.120  17.060  23.260
 2387DPPE   PO450498  11.850  16.820  22.860
 2387DPPE   GL150499  12.200  16.940  22.760
 2387DPPE   GL250500  12.480  16.610  22.700
 2387DPPE   C1A50501  12.370  17.060  22.310
 2387DPPE   C2A50502  12.680  17.130  22.030
 2387DPPE   C3A50503  12.910  17.520  21.940
 2387DPPE   C4A50504  13.120  17.790  21.670
 2387DPPE   C1B50505  12.770  16.360  22.610
 2387DPPE   C2B50506  13.240  16.380  22.560
 2387DPPE   C3B50507  13.420  16.190  22.210
 2387DPPE   C4B50508  13.680  16.220  21.900
 2388DPPE   NH350509   5.430  14.770  14.140
 2388DPPE   PO450510   5.740  14.600  13.760
 2388DPPE   GL150511   6.040  14.660  13.620
 2388DPPE   GL250512   6.080  15.010  13.470
 2388DPPE   C1A50513   6.350  14.570  13.130
 2388DPPE   C2A50514   6.570  14.740  12.760
 2388DPPE   C3A50515   6.540  14.930  12.310
 2388DPPE   C4A50516   6.180  14.790  11.950
 2388DPPE   C1B50517   6.230  15.100  13.050
 2388DPPE   C2B50518   6.290  15.200  12.670
 2388DPPE   C3B50519   6.000  15.140  12.360
 2388DPPE   C4B50520   5.650  15.000  12.100
 2389DPPE   NH350521   6.540  10.630  14.050
 2389DPPE   PO450522   6.800  10.570  13.790
 2389DPPE   GL150523   6.930  10.260  13.430
 2389DPPE   GL250524   6.850  10.420  13.260
 2389DPPE   C1A50525   6.830   9.930  13.340
 2389DPPE   C2A50526   6.450   9.920  13.290
 2389DPPE   C3A50527   6.210  10.010  12.950
 2389DPPE   C4A50528   5.890  10.140  12.640
 2389DPPE   C1B50529   6.480  10.370  13.100
 2389DPPE   C2B50530   6.020  10.480  13.040
 2389DPPE   C3B50531   5.830  10.730  12.660
 2389DPPE   C4B50532   5.820  10.880  12.210
 2390DPPE   NH350533   7.540  18.650  20.100
 2390DPPE   PO450534   7.320  18.980  20.090
 2390DPPE   GL150535   7.060  19.170  20.380
 2390DPPE   GL250536   7.120  19.420  20.650
 2390DPPE   C1A50537   6.690  19.180  20.650
 2390DPPE   C2A50538   6.410  19.160  21.000
 2390DPPE   C3A50539   6.010  19.180  21.380
 2390DPPE   C4A50540   5.800  19.550  21.610
 2390DPPE   C1B50541   6.850  19.480  21.040
 2390DPPE   C2B50542   6.580  19.570  21.370
 2390DPPE   C3B50543   6.250  19.520  21.730
 2390DPPE   C4B50544   6.000  19.580  22.030
 2391DPPE   NH350545   6.390  14.930  18.160
 2391DPPE   PO450546   6.550  15.040  18.540
 2391DPPE   GL150547   6.260  14.580  18.500
 2391DPPE   GL250548   6.340  14.270  18.600
 2391DPPE   C1A50549   5.890  14.480  18.510
 2391DPPE   C2A50550   5.510  14.300  18.560
 2391DPPE   C3A50551   5.410  13.820  18.640
 2391DPPE   C4A50552   5.180  13.500  18.870
 2391DPPE   C1B50553   6.240  14.340  19.000
 2391DPPE   C2B50554   6.060  14.340  19.410
 2391DPPE   C3B50555   5.660  14.210  19.630
 2391DPPE   C4B50556   5.230  14.060  19.550
 2392DPPE   NH350557   9.060  10.120  18.010
 2392DPPE   PO450558   8.840  10.320  17.730
 2392DPPE   GL150559   8.620  10.270  18.120
 2392DPPE   GL250560   8.570  10.100  18.420
 2392DPPE   C1A50561   8.170  10.240  18.160
 2392DPPE   C2A50562   7.850   9.840  18.260
 2392DPPE   C3A50563   7.500   9.780  18.420
 2392DPPE   C4A50564   7.120   9.820  18.600
 2392DPPE   C1B50565   8.240   9.870  18.620
 2392DPPE   C2B50566   7.980  10.050  18.780
 2392DPPE   C3B50567   7.750   9.790  18.960
 2392DPPE   C4B50568   7.380   9.560  18.940
 2393DPPE   NH350569   5.880  11.880  14.640
 2393DPPE   PO450570   6.070  11.640  14.350
 2393DPPE   GL150571   5.670  11.430  14.480
 2393DPPE   GL250572   5.880  11.090  14.630
 2393DPPE   C1A50573   5.420  11.450  14.740
 2393DPPE   C2A50574   4.990  11.470  14.590
 2393DPPE   C3A50575   4.710  11.040  14.390
 2393DPPE   C4A50576   4.910  10.680  14.360
 2393DPPE   C1B50577   5.530  10.740  14.720
 2393DPPE   C2B50578   5.130  10.510  14.780
 2393DPPE   C3B50579   4.740  10.390  15.060
 2393DPPE   C4B50580   4.560  10.190  15.360
 2394DPPE   NH350581  14.720   8.820  20.840
 2394DPPE   PO450582  15.000   9.070  20.840
 2394DPPE   GL150583  15.410   9.060  20.780
 2394DPPE   GL250584  15.700   9.230  20.750
 2394DPPE   C1A50585  15.760   8.700  20.660
 2394DPPE   C2A50586  16.120   8.550  20.660
 2394DPPE   C3A50587  16.030   8.140  20.550
 2394DPPE   C4A50588  16.280   7.650  20.600
 2394DPPE   C1B50589  16.000   9.140  20.810
 2394DPPE   C2B50590  16.300   9.070  20.620
 2394DPPE   C3B50591  16.760   9.120  20.660
 2394DPPE   C4B50592  16.870   9.110  21.110
 2395DPPE   NH350593   7.330  23.260  17.690
 2395DPPE   PO450594   7.590  22.950  17.700
 2395DPPE   GL150595   7.660  23.210  17.300
 2395DPPE   GL250596   7.310  23.330  17.180
 2395DPPE   C1A50597   7.830  23.420  16.920
 2395DPPE   C2A50598   8.250  23.400  16.720
 2395DPPE   C3A50599   8.600  23.230  16.970
 2395DPPE   C4A50600   9.020  23.300  17.190
 2395DPPE   C1B50601   7.350  23.120  16.920
 2395DPPE   C2B50602   7.820  22.920  16.840
 2395DPPE   C3B50603   7.910  22.830  16.450
 2395DPPE   C4B50604   8.050  22.930  15.930
 2396DPPE   NH350605   8.100  13.740  19.920
 2396DPPE   PO450606   7.820  14.130  19.820
 2396DPPE   GL150607   7.630  13.700  19.990
 2396DPPE   GL250608   7.700  13.750  20.280
 2396DPPE   C1A50609   7.290  13.570  20.000
 2396DPPE   C2A50610   7.020  13.540  20.340
 2396DPPE   C3A50611   7.040  13.480  20.820
 2396DPPE   C4A50612   6.980  13.190  21.070
 2396DPPE   C1B50613   7.370  13.880  20.400
 2396DPPE   C2B50614   7.220  14.300  20.590
 2396DPPE   C3B50615   6.920  14.600  20.660
 2396DPPE   C4B50616   6.510  14.600  20.720
 2397DPPE   NH350617  11.040  23.110  21.120
 2397DPPE   PO450618  10.620  23.130  20.950
 2397DPPE   GL150619  10.580  23.550  20.960
 2397DPPE   GL250620  10.670  23.800  20.630
 2397DPPE   C1A50621  10.550  23.880  21.200
 2397DPPE   C2A50622  10.500  24.280  21.470
 2397DPPE   C3A50623  10.450  24.630  21.890
 2397DPPE   C4A50624  10.710  24.950  22.160
 2397DPPE   C1B50625  10.590  24.030  20.310
 2397DPPE   C2B50626  10.800  24.400  20.090
 2397DPPE   C3B50627  11.210  24.490  20.230
 2397DPPE   C4B50628  11.530  24.510  19.880
 2398DPPE   NH350629   7.800  22.550  17.500
 2398DPPE   PO450630   7.560  22.330  17.250
 2398DPPE   GL150631   7.440  22.560  16.910
 2398DPPE   GL250632   7.150  22.460  16.660
 2398DPPE   C1A50633   7.620  22.400  16.580
 2398DPPE   C2A50634   7.780  22.490  16.140
 2398DPPE   C3A50635   8.110  22.420  15.730
 2398DPPE   C4A50636   8.320  22.360  15.330
 2398DPPE   C1B50637   7.300  22.880  16.410
 2398DPPE   C2B50638   7.560  23.210  16.420
 2398DPPE   C3B50639   7.960  23.280  16.330
 2398DPPE   C4B50640   8.420  23.160  16.240
 2399DPPE   NH350641  10.560  13.850  21.170
 2399DPPE   PO450642  10.610  14.310  21.300
 2399DPPE   GL150643  10.750  14.430  20.800
 2399DPPE   GL250644  10.470  14.400  20.580
 2399DPPE   C1A50645  10.910  14.500  20.430
 2399DPPE   C2A50646  11.090  14.430  19.950
 2399DPPE   C3A50647  11.430  14.490  19.740
 2399DPPE   C4A50648  11.460  14.290  19.380
 2399DPPE   C1B50649  10.490  14.810  20.570
 2399DPPE   C2B50650  10.840  14.980  20.340
 2399DPPE   C3B50651  11.170  15.310  20.180
 2399DPPE   C4B50652  11.350  15.520  19.800
 2400DPPE   NH350653   5.730  19.320  17.570
 2400DPPE   PO450654   5.420  19.560  17.370
 2400DPPE   GL150655   5.110  19.810  17.460
 2400DPPE   GL250656   4.970  20.090  17.210
 2400DPPE   C1A50657   4.700  19.810  17.780
 2400DPPE   C2A50658   4.310  19.830  18.040
 2400DPPE   C3A50659   3.870  19.830  18.210
 2400DPPE   C4A50660   3.690  19.860  18.530
 2400DPPE   C1B50661   4.600  20.130  17.280
 2400DPPE   C2B50662   4.290  20.200  17.600
 2400DPPE   C3B50663   4.030  20.280  17.960
 2400DPPE   C4B50664   3.740  20.330  18.250
 2401DPPE   NH350665   9.690  14.090  20.990
 2401DPPE   PO450666   9.930  14.400  20.660
 2401DPPE   GL150667  10.020  14.490  20.300
 2401DPPE   GL250668  10.250  14.390  20.090
 2401DPPE   C1A50669  10.220  14.910  20.230
 2401DPPE   C2A50670  10.360  15.290  20.360
 2401DPPE   C3A50671  10.210  15.690  20.560
 2401DPPE   C4A50672  10.040  16.140  20.510
 2401DPPE   C1B50673  10.630  14.650  19.880
 2401DPPE   C2B50674  10.990  14.910  19.830
 2401DPPE   C3B50675  11.480  14.990  19.870
 2401DPPE   C4B50676  11.720  15.160  19.590
 2402DPPE   NH350677   9.670  23.100  20.700
 2402DPPE   PO450678  10.060  23.210  20.900
 2402DPPE   GL150679   9.910  23.420  21.240
 2402DPPE   GL250680  10.240  23.520  21.350
 2402DPPE   C1A50681   9.900  23.790  21.530
 2402DPPE   C2A50682   9.670  24.030  21.780
 2402DPPE   C3A50683   9.820  24.250  22.150
 2402DPPE   C4A50684   9.980  24.200  22.550
 2402DPPE   C1B50685  10.410  23.690  21.710
 2402DPPE   C2B50686  10.720  24.160  21.870
 2402DPPE   C3B50687  11.050  24.420  22.000
 2402DPPE   C4B50688  11.490  24.440  21.950
 2403DPPE   NH350689   7.940  11.770  15.870
 2403DPPE   PO450690   7.500  11.990  15.960
 2403DPPE   GL150691   7.800  12.280  15.790
 2403DPPE   GL250692   7.820  12.580  15.830
 2403DPPE   C1A50693   8.090  12.440  15.320
 2403DPPE   C2A50694   8.150  12.900  15.190
 2403DPPE   C3A50695   8.360  13.250  15.100
 2403DPPE   C4A50696   8.690  13.510  15.330
 2403DPPE   C1B50697   8.040  12.940  15.690
 2403DPPE   C2B50698   8.380  13.190  15.610
 2403DPPE   C3B50699   8.750  13.120  15.680
 2403DPPE   C4B50700   9.070  13.290  15.550
 2404DPPE   NH350701  10.350  10.840  19.800
 2404DPPE   PO450702  10.520  10.660  20.140
 2404DPPE   GL150703  10.450  10.330  20.530
 2404DPPE   GL250704  10.710  10.160  20.560
 2404DPPE   C1A50705   9.980  10.350  20.660
 2404DPPE   C2A50706   9.760  10.180  20.960
 2404DPPE   C3A50707   9.510   9.990  21.290
 2404DPPE   C4A50708   9.070   9.950  21.480
 2404DPPE   C1B50709  10.420   9.940  20.790
 2404DPPE   C2B50710  10.160   9.770  21.030
 2404DPPE   C3B50711   9.830   9.610  21.330
 2404DPPE   C4B50712   9.400   9.490  21.500
 2405DPPE   NH350713   6.660  22.200  16.940
 2405DPPE   PO450714   6.840  22.100  16.490
 2405DPPE   GL150715   6.770  22.500  16.290
 2405DPPE   GL250716   7.060  22.580  16.100
 2405DPPE   C1A50717   6.460  22.850  16.160
 2405DPPE   C2A50718   6.390  23.250  16.210
 2405DPPE   C3A50719   6.260  23.750  16.100
 2405DPPE   C4A50720   6.130  23.970  15.770
 2405DPPE   C1B50721   7.420  22.480  15.780
 2405DPPE   C2B50722   7.670  22.590  15.530
 2405DPPE   C3B50723   7.900  22.970  15.440
 2405DPPE   C4B50724   8.120  23.300  15.470
 2406DPPE   NH350725   7.110  16.880  18.480
 2406DPPE   PO450726   7.590  16.850  18.790
 2406DPPE   GL150727   7.940  16.750  18.590
 2406DPPE   GL250728   7.720  16.760  18.320
 2406DPPE   C1A50729   8.270  16.660  18.320
 2406DPPE   C2A50730   8.250  16.700  17.930
 2406DPPE   C3A50731   8.170  16.890  17.540
 2406DPPE   C4A50732   7.870  16.960  17.290
 2406DPPE   C1B50733   7.870  16.420  18.110
 2406DPPE   C2B50734   8.230  16.190  18.010
 2406DPPE   C3B50735   8.640  16.370  17.980
 2406DPPE   C4B50736   8.970  16.270  17.910
 2407DPPE   NH350737  16.290  13.160  23.050
 2407DPPE   PO450738  16.490  12.940  23.370
 2407DPPE   GL150739  16.770  12.940  23.670
 2407DPPE   GL250740  16.600  12.960  23.930
 2407DPPE   C1A50741  17.110  13.170  23.970
 2407DPPE   C2A50742  17.010  13.520  24.240
 2407DPPE   C3A50743  16.890  13.890  24.550
 2407DPPE   C4A50744  16.830  14.210  24.870
 2407DPPE   C1B50745  16.540  13.210  24.300
 2407DPPE   C2B50746  16.410  13.670  24.280
 2407DPPE   C3B50747  16.640  13.960  24.080
 2407DPPE   C4B50748  17.080  14.010  24.060
 2408DPPE   NH350749   6.070  13.580  16.820
 2408DPPE   PO450750   6.470  13.410  17.040
 2408DPPE   GL150751   6.180  13.240  17.230
 2408DPPE   GL250752   5.960  13.080  17.010
 2408DPPE   C1A50753   5.930  13.330  17.640
 2408DPPE   C2A50754   5.490  13.250  17.700
 2408DPPE   C3A50755   5.180  13.180  17.920
 2408DPPE   C4A50756   4.830  13.170  18.110
 2408DPPE   C1B50757   5.640  12.850  17.020
 2408DPPE   C2B50758   5.280  12.760  17.140
 2408DPPE   C3B50759   4.900  12.610  17.340
 2408DPPE   C4B50760   4.480  12.490  17.370
 2409DPPE   NH350761  14.950  14.190  22.760
 2409DPPE   PO450762  15.120  14.290  23.110
 2409DPPE   GL150763  15.500  14.450  22.890
 2409DPPE   GL250764  15.300  14.650  22.730
 2409DPPE   C1A50765  15.920  14.650  22.740
 2409DPPE   C2A50766  16.220  14.770  22.610
 2409DPPE   C3A50767  16.690  14.880  22.440
 2409DPPE   C4A50768  17.110  15.090  22.290
 2409DPPE   C1B50769  15.520  14.760  22.430
 2409DPPE   C2B50770  15.850  14.710  22.220
 2409DPPE   C3B50771  16.160  14.420  22.040
 2409DPPE   C4B50772  16.140  14.210  21.770
 2410DPPE   NH350773   7.070  17.490  17.970
 2410DPPE   PO450774   7.270  17.640  18.300
 2410DPPE   GL150775   7.700  17.550  17.980
 2410DPPE   GL250776   7.900  17.840  17.910
 2410DPPE   C1A50777   8.050  17.450  17.750
 2410DPPE   C2A50778   8.280  17.380  17.410
 2410DPPE   C3A50779   8.390  17.130  17.140
 2410DPPE   C4A50780   8.820  16.910  17.000
 2410DPPE   C1B50781   8.350  18.030  17.760
 2410DPPE   C2B50782   8.730  17.970  17.570
 2410DPPE   C3B50783   9.160  18.010  17.490
 2410DPPE   C4B50784   9.430  17.790  17.110
 2411DPPE   NH350785   9.900  13.370  21.010
 2411DPPE   PO450786   9.560  13.520  21.140
 2411DPPE   GL150787   9.350  13.260  21.520
 2411DPPE   GL250788   9.260  13.400  21.790
 2411DPPE   C1A50789   8.980  12.970  21.610
 2411DPPE   C2A50790   8.800  12.490  21.730
 2411DPPE   C3A50791   8.680  12.330  21.990
 2411DPPE   C4A50792   8.620  12.570  22.350
 2411DPPE   C1B50793   8.960  13.220  22.090
 2411DPPE   C2B50794   8.910  13.120  22.500
 2411DPPE   C3B50795   8.660  12.990  22.830
 2411DPPE   C4B50796   8.300  12.950  23.110
 2412DPPE   NH350797  10.870  21.330  22.050
 2412DPPE   PO450798  11.020  20.970  21.730
 2412DPPE   GL150799  11.210  20.930  21.270
 2412DPPE   GL250800  11.170  21.230  21.080
 2412DPPE   C1A50801  11.480  20.830  21.080
 2412DPPE   C2A50802  11.940  21.080  21.130
 2412DPPE   C3A50803  12.240  21.310  20.940
 2412DPPE   C4A50804  12.560  21.320  20.550
 2412DPPE   C1B50805  11.510  21.330  20.910
 2412DPPE   C2B50806  11.780  21.100  20.580
 2412DPPE   C3B50807  11.820  21.000  20.200
 2412DPPE   C4B50808  12.170  20.940  19.840
 2413DPPE   NH350809   7.680  20.370  19.940
 2413DPPE   PO450810   7.930  20.170  20.340
 2413DPPE   GL150811   7.660  20.350  20.660
 2413DPPE   GL250812   7.640  20.150  20.880
 2413DPPE   C1A50813   7.190  20.510  20.750
 2413DPPE   C2A50814   6.920  20.910  20.800
 2413DPPE   C3A50815   6.460  20.990  20.930
 2413DPPE   C4A50816   5.990  20.730  20.670
 2413DPPE   C1B50817   7.410  20.360  21.250
 2413DPPE   C2B50818   7.160  20.360  21.540
 2413DPPE   C3B50819   6.930  20.610  21.700
 2413DPPE   C4B50820   6.450  20.640  21.620
 2414DPPE   NH350821   6.250  14.230  17.510
 2414DPPE   PO450822   5.900  14.220  17.270
 2414DPPE   GL150823   5.750  14.180  17.650
 2414DPPE   GL250824   5.680  14.510  17.740
 2414DPPE   C1A50825   5.330  14.100  17.740
 2414DPPE   C2A50826   4.940  14.270  17.820
 2414DPPE   C3A50827   4.650  14.010  17.700
 2414DPPE   C4A50828   4.470  13.620  17.600
 2414DPPE   C1B50829   5.370  14.640  17.980
 2414DPPE   C2B50830   5.000  14.700  18.120
 2414DPPE   C3B50831   4.650  14.710  18.340
 2414DPPE   C4B50832   4.570  14.530  18.690
 2415DPPE   NH350833   7.750  13.020  17.580
 2415DPPE   PO450834   7.890  12.630  17.630
 2415DPPE   GL150835   8.200  12.640  17.330
 2415DPPE   GL250836   8.260  12.420  17.000
 2415DPPE   C1A50837   8.440  12.980  17.140
 2415DPPE   C2A50838   8.590  13.170  16.800
 2415DPPE   C3A50839   8.870  13.440  16.550
 2415DPPE   C4A50840   9.060  13.810  16.520
 2415DPPE   C1B50841   8.560  12.620  16.830
 2415DPPE   C2B50842   8.770  12.780  16.440
 2415DPPE   C3B50843   9.180  12.870  16.330
 2415DPPE   C4B50844   9.580  12.830  16.110
 2416DPPE   NH350845   5.060  15.110  13.950
 2416DPPE   PO450846   4.690  15.270  14.160
 2416DPPE   GL150847   4.330  15.140  13.960
 2416DPPE   GL250848   4.490  14.870  13.640
 2416DPPE   C1A50849   3.980  15.470  13.910
 2416DPPE   C2A50850   3.550  15.340  13.960
 2416DPPE   C3A50851   3.130  15.060  13.950
 2416DPPE   C4A50852   2.780  14.840  13.640
 2416DPPE   C1B50853   4.240  14.950  13.310
 2416DPPE   C2B50854   3.990  14.900  12.860
 2416DPPE   C3B50855   3.530  14.930  12.580
 2416DPPE   C4B50856   3.070  15.130  12.320
 2417DPPE   NH350857  13.850   8.810  19.470
 2417DPPE   PO450858  14.300   8.810  19.410
 2417DPPE   GL150859  14.380   8.390  19.390
 2417DPPE   GL250860  14.220   8.340  19.590
 2417DPPE   C1A50861  14.630   8.150  19.440
 2417DPPE   C2A50862  14.850   7.930  19.760
 2417DPPE   C3A50863  15.150   8.110  20.060
 2417DPPE   C4A50864  15.530   8.040  19.990
 2417DPPE   C1B50865  14.310   8.130  19.880
 2417DPPE   C2B50866  14.580   7.990  20.140
 2417DPPE   C3B50867  14.680   7.810  20.380
 2417DPPE   C4B50868  14.950   7.880  20.730
 2418DPPE   NH350869  14.280  20.050  23.920
 2418DPPE   PO450870  14.280  20.410  23.730
 2418DPPE   GL150871  14.670  20.250  23.590
 2418DPPE   GL250872  14.740  20.310  23.210
 2418DPPE   C1A50873  15.060  20.110  23.680
 2418DPPE   C2A50874  15.310  19.780  23.710
 2418DPPE   C3A50875  15.760  19.590  23.700
 2418DPPE   C4A50876  16.120  19.450  23.440
 2418DPPE   C1B50877  15.150  20.200  23.110
 2418DPPE   C2B50878  15.590  20.150  22.930
 2418DPPE   C3B50879  15.820  20.520  22.720
 2418DPPE   C4B50880  16.210  20.890  22.890
 2419DPPE   NH350881  12.020  20.020  21.880
 2419DPPE   PO450882  12.110  19.720  22.180
 2419DPPE   GL150883  12.460  19.940  22.130
 2419DPPE   GL250884  12.840  19.920  22.250
 2419DPPE   C1A50885  12.780  19.790  21.830
 2419DPPE   C2A50886  12.990  19.600  21.440
 2419DPPE   C3A50887  13.080  19.560  21.090
 2419DPPE   C4A50888  13.340  19.500  20.820
 2419DPPE   C1B50889  13.000  20.200  21.950
 2419DPPE   C2B50890  13.230  20.240  21.520
 2419DPPE   C3B50891  13.640  20.230  21.270
 2419DPPE   C4B50892  14.080  20.130  21.080
 2420DPPE   NH350893  11.870  22.070  21.090
 2420DPPE   PO450894  12.090  21.980  21.410
 2420DPPE   GL150895  12.350  22.320  21.240
 2420DPPE   GL250896  12.400  22.620  21.140
 2420DPPE   C1A50897  12.570  22.220  20.800
 2420DPPE   C2A50898  12.720  21.910  20.380
 2420DPPE   C3A50899  12.990  21.900  20.020
 2420DPPE   C4A50900  12.840  21.810  19.720
 2420DPPE   C1B50901  12.810  22.770  20.850
 2420DPPE   C2B50902  13.010  23.100  20.570
 2420DPPE   C3B50903  13.350  23.330  20.460
 2420DPPE   C4B50904  13.740  23.310  20.410
 2421DPPE   NH350905   9.070  12.760  19.600
 2421DPPE   PO450906   9.010  13.240  19.540
 2421DPPE   GL150907   9.330  13.080  19.300
 2421DPPE   GL250908   9.400  12.760  19.190
 2421DPPE   C1A50909   9.670  13.220  18.970
 2421DPPE   C2A50910  10.020  13.370  18.620
 2421DPPE   C3A50911  10.280  13.600  18.330
 2421DPPE   C4A50912  10.630  13.830  18.210
 2421DPPE   C1B50913   9.650  12.690  18.840
 2421DPPE   C2B50914   9.660  12.900  18.460
 2421DPPE   C3B50915   9.540  13.420  18.450
 2421DPPE   C4B50916   9.190  13.520  18.280
 2422DPPE   NH350917  10.880  11.400  20.420
 2422DPPE   PO450918  11.200  11.330  20.130
 2422DPPE   GL150919  11.320  11.640  20.000
 2422DPPE   GL250920  11.680  11.670  20.010
 2422DPPE   C1A50921  11.310  11.860  19.610
 2422DPPE   C2A50922  11.560  12.150  19.280
 2422DPPE   C3A50923  11.670  12.430  18.920
 2422DPPE   C4A50924  11.600  12.680  18.550
 2422DPPE   C1B50925  11.840  11.710  19.600
 2422DPPE   C2B50926  12.160  12.020  19.290
 2422DPPE   C3B50927  12.160  12.260  18.940
 2422DPPE   C4B50928  12.440  12.420  18.560
 2423DPPE   NH350929  11.410  22.370  21.090
 2423DPPE   PO450930  11.820  22.570  21.060
 2423DPPE   GL150931  12.070  22.860  20.880
 2423DPPE   GL250932  11.870  23.110  20.740
 2423DPPE   C1A50933  12.400  22.980  20.590
 2423DPPE   C2A50934  12.610  23.310  20.300
 2423DPPE   C3A50935  12.970  23.560  20.260
 2423DPPE   C4A50936  13.100  23.840  19.950
 2423DPPE   C1B50937  12.170  23.390  20.770
 2423DPPE   C2B50938  12.410  23.780  20.630
 2423DPPE   C3B50939  12.710  24.050  20.370
 2423DPPE   C4B50940  12.880  24.350  20.190
 2424DPPE   NH350941   8.910  11.610  17.160
 2424DPPE   PO450942   8.880  11.290  16.940
 2424DPPE   GL150943   9.420  11.540  16.870
 2424DPPE   GL250944   9.400  11.680  17.120
 2424DPPE   C1A50945   9.850  11.600  16.740
 2424DPPE   C2A50946  10.250  11.860  16.810
 2424DPPE   C3A50947  10.600  11.950  16.600
 2424DPPE   C4A50948  11.150  11.990  16.700
 2424DPPE   C1B50949   9.700  12.000  17.170
 2424DPPE   C2B50950   9.900  12.380  17.160
 2424DPPE   C3B50951  10.220  12.800  17.190
 2424DPPE   C4B50952  10.300  13.240  17.170
 2425DPPE   NH350953  10.380  16.360  22.580
 2425DPPE   PO450954  10.090  16.520  22.840
 2425DPPE   GL150955   9.950  16.670  23.270
 2425DPPE   GL250956   9.870  16.960  23.400
 2425DPPE   C1A50957   9.800  16.480  23.690
 2425DPPE   C2A50958   9.880  16.250  24.170
 2425DPPE   C3A50959   9.630  16.040  24.520
 2425DPPE   C4A50960   9.330  15.960  24.860
 2425DPPE   C1B50961   9.670  17.010  23.740
 2425DPPE   C2B50962   9.440  16.960  24.130
 2425DPPE   C3B50963   9.100  16.870  24.460
 2425DPPE   C4B50964   8.690  16.840  24.430
 2426DPPE   NH350965  14.230   9.290  20.200
 2426DPPE   PO450966  14.590   9.560  20.060
 2426DPPE   GL150967  14.890   9.460  19.810
 2426DPPE   GL250968  14.840   9.290  19.620
 2426DPPE   C1A50969  15.120   9.720  19.520
 2426DPPE   C2A50970  15.360   9.710  19.130
 2426DPPE   C3A50971  15.580   9.440  18.790
 2426DPPE   C4A50972  15.690   9.130  18.420
 2426DPPE   C1B50973  14.990   9.290  19.340
 2426DPPE   C2B50974  15.200   9.060  19.130
 2426DPPE   C3B50975  15.510   8.670  19.220
 2426DPPE   C4B50976  15.970   8.720  19.320
 2427DPPE   NH350977  15.240  11.370  23.160
 2427DPPE   PO450978  14.750  11.380  23.020
 2427DPPE   GL150979  14.790  11.060  23.340
 2427DPPE   GL250980  14.470  11.120  23.410
 2427DPPE   C1A50981  14.970  10.750  23.620
 2427DPPE   C2A50982  15.260  10.460  23.770
 2427DPPE   C3A50983  15.530  10.010  23.560
 2427DPPE   C4A50984  15.920  10.070  23.230
 2427DPPE   C1B50985  14.640  11.030  23.910
 2427DPPE   C2B50986  14.910  10.870  24.130
 2427DPPE   C3B50987  15.230  10.550  24.290
 2427DPPE   C4B50988  15.700  10.550  24.400
 2428DPPE   NH350989   5.140  16.010  13.680
 2428DPPE   PO450990   5.120  16.130  13.290
 2428DPPE   GL150991   5.230  16.010  12.810
 2428DPPE   GL250992   4.980  15.850  12.680
 2428DPPE   C1A50993   5.440  16.020  12.390
 2428DPPE   C2A50994   5.500  15.990  11.950
 2428DPPE   C3A50995   5.490  15.910  11.570
 2428DPPE   C4A50996   5.400  15.520  11.260
 2428DPPE   C1B50997   4.740  15.580  12.400
 2428DPPE   C2B50998   4.740  15.370  11.960
 2428DPPE   C3B50999   4.900  15.110  11.700
 2428DPPE   C4B51000   5.410  15.040  11.640
 2429DPPE   NH351001  11.850  13.440  21.850
 2429DPPE   PO451002  12.190  13.440  22.050
 2429DPPE   GL151003  12.410  13.660  21.620
 2429DPPE   GL251004  12.870  13.750  21.590
 2429DPPE   C1A51005  12.220  13.860  21.270
 2429DPPE   C2A51006  12.320  14.050  20.830
 2429DPPE   C3A51007  12.580  14.310  20.530
 2429DPPE   C4A51008  12.750  14.430  20.100
 2429DPPE   C1B51009  13.110  13.840  21.240
 2429DPPE   C2B51010  13.460  13.880  20.960
 2429DPPE   C3B51011  13.660  14.020  20.590
 2429DPPE   C4B51012  13.510  14.090  20.210
 2430DPPE   NH351013   6.810  14.570  18.560
 2430DPPE   PO451014   6.870  14.150  18.430
 2430DPPE   GL151015   6.580  13.910  18.380
 2430DPPE   GL251016   6.420  14.040  18.030
 2430DPPE   C1A51017   6.280  13.570  18.580
 2430DPPE   C2A51018   5.900  13.500  18.770
 2430DPPE   C3A51019   5.580  13.270  18.710
 2430DPPE   C4A51020   5.230  13.040  19.030
 2430DPPE   C1B51021   6.050  13.980  18.320
 2430DPPE   C2B51022   5.970  13.990  18.770
 2430DPPE   C3B51023   5.690  13.950  19.100
 2430DPPE   C4B51024   5.320  13.680  19.250
 2431DPPE   NH351025  11.440  10.880  19.410
 2431DPPE   PO451026  11.620  10.450  19.320
 2431DPPE   GL151027  11.980  10.750  19.220
 2431DPPE   GL251028  11.860  10.780  18.840
 2431DPPE   C1A51029  12.160  11.080  19.030
 2431DPPE   C2A51030  12.580  11.210  18.960
 2431DPPE   C3A51031  12.850  11.500  18.630
 2431DPPE   C4A51032  12.770  11.740  18.160
 2431DPPE   C1B51033  12.230  11.010  18.530
 2431DPPE   C2B51034  12.720  11.100  18.280
 2431DPPE   C3B51035  12.820  11.300  17.830
 2431DPPE   C4B51036  12.590  11.500  17.420
 2432DPPE   NH351037  11.570  19.430  23.130
 2432DPPE   PO451038  11.560  19.470  23.530
 2432DPPE   GL151039  11.350  19.130  23.740
 2432DPPE   GL251040  11.290  18.830  23.570
 2432DPPE   C1A51041  11.190  19.190  24.130
 2432DPPE   C2A51042  10.900  19.190  24.470
 2432DPPE   C3A51043  10.610  19.380  24.790
 2432DPPE   C4A51044  10.360  19.400  25.180
 2432DPPE   C1B51045  11.330  18.680  24.050
 2432DPPE   C2B51046  11.180  18.780  24.430
 2432DPPE   C3B51047  10.990  18.850  24.880
 2432DPPE   C4B51048  10.530  18.920  25.060
 2433DPPE   NH351049  10.060  19.920  21.160
 2433DPPE   PO451050   9.680  19.720  20.930
 2433DPPE   GL151051   9.850  19.450  20.640
 2433DPPE   GL251052   9.730  19.220  20.440
 2433DPPE   C1A51053  10.170  19.130  20.570
 2433DPPE   C2A51054  10.160  18.760  20.510
 2433DPPE   C3A51055  10.430  18.450  20.230
 2433DPPE   C4A51056  10.430  18.050  19.910
 2433DPPE   C1B51057  10.050  19.190  20.110
 2433DPPE   C2B51058  10.390  18.980  20.080
 2433DPPE   C3B51059  10.700  18.830  20.430
 2433DPPE   C4B51060  10.880  18.900  20.830
 2434DPPE   NH351061   6.050  20.710  15.680
 2434DPPE   PO451062   5.720  20.730  15.370
 2434DPPE   GL151063   5.860  21.130  15.220
 2434DPPE   GL251064   5.560  21.390  15.100
 2434DPPE   C1A51065   6.240  21.410  15.080
 2434DPPE   C2A51066   6.370  21.680  14.790
 2434DPPE   C3A51067   6.800  21.640  14.610
 2434DPPE   C4A51068   7.000  21.280  14.630
 2434DPPE   C1B51069   5.800  21.640  14.820
 2434DPPE   C2B51070   5.770  22.010  14.770
 2434DPPE   C3B51071   5.740  22.340  14.420
 2434DPPE   C4B51072   5.930  22.680  14.130
 2435DPPE   NH351073   8.740  16.950  21.610
 2435DPPE   PO451074   8.270  17.070  21.470
 2435DPPE   GL151075   7.840  17.290  21.670
 2435DPPE   GL251076   8.010  17.590  21.670
 2435DPPE   C1A51077   7.400  17.160  21.810
 2435DPPE   C2A51078   6.990  17.130  21.960
 2435DPPE   C3A51079   6.760  16.790  22.130
 2435DPPE   C4A51080   6.520  16.510  22.510
 2435DPPE   C1B51081   7.910  17.870  22.120
 2435DPPE   C2B51082   7.610  17.920  22.390
 2435DPPE   C3B51083   7.250  17.880  22.740
 2435DPPE   C4B51084   7.050  17.840  23.150
 2436DPPE   NH351085  10.050  12.850  21.740
 2436DPPE   PO451086  10.440  12.850  21.990
 2436DPPE   GL151087  10.100  12.680  22.310
 2436DPPE   GL251088   9.820  12.780  22.220
 2436DPPE   C1A51089   9.930  12.590  22.760
 2436DPPE   C2A51090   9.800  12.440  23.190
 2436DPPE   C3A51091   9.450  12.350  23.510
 2436DPPE   C4A51092   9.430  12.300  23.930
 2436DPPE   C1B51093   9.500  12.580  22.300
 2436DPPE   C2B51094   9.060  12.440  22.550
 2436DPPE   C3B51095   8.970  12.660  22.820
 2436DPPE   C4B51096   9.120  13.060  23.000
 2437DPPE   NH351097  14.920  12.710  22.220
 2437DPPE   PO451098  15.260  13.000  22.230
 2437DPPE   GL151099  15.650  13.090  22.000
 2437DPPE   GL251100  15.910  12.990  22.230
 2437DPPE   C1A51101  16.060  13.130  21.660
 2437DPPE   C2A51102  16.460  13.400  21.430
 2437DPPE   C3A51103  16.610  13.550  21.080
 2437DPPE   C4A51104  16.410  14.000  20.960
 2437DPPE   C1B51105  16.290  12.980  22.130
 2437DPPE   C2B51106  16.530  12.880  21.760
 2437DPPE   C3B51107  16.780  13.200  21.710
 2437DPPE   C4B51108  17.170  13.080  21.560
 2438DPPE   NH351109   7.790  13.450  18.620
 2438DPPE   PO451110   7.610  13.450  19.120
 2438DPPE   GL151111   7.280  13.410  19.390
 2438DPPE   GL251112   6.970  13.280  19.200
 2438DPPE   C1A51113   6.900  13.280  19.710
 2438DPPE   C2A51114   6.680  13.130  20.020
 2438DPPE   C3A51115   6.440  13.390  20.350
 2438DPPE   C4A51116   6.060  13.370  20.600
 2438DPPE   C1B51117   6.690  12.980  19.360
 2438DPPE   C2B51118   6.380  12.930  19.640
 2438DPPE   C3B51119   6.200  12.790  19.970
 2438DPPE   C4B51120   6.270  12.890  20.450
 2439DPPE   NH351121   7.090  11.210  12.990
 2439DPPE   PO451122   7.400  11.240  13.300
 2439DPPE   GL151123   7.660  10.970  13.030
 2439DPPE   GL251124   7.610  11.110  12.730
 2439DPPE   C1A51125   8.100  11.120  12.960
 2439DPPE   C2A51126   8.650  11.210  12.960
 2439DPPE   C3A51127   9.050  11.280  12.880
 2439DPPE   C4A51128   9.290  11.510  12.580
 2439DPPE   C1B51129   8.000  11.080  12.450
 2439DPPE   C2B51130   8.320  10.920  12.140
 2439DPPE   C3B51131   8.360  10.710  11.710
 2439DPPE   C4B51132   8.050  10.590  11.500
 2440DPPE   NH351133   4.990  14.660  15.140
 2440DPPE   PO451134   5.140  14.920  15.570
 2440DPPE   GL151135   4.860  14.660  15.790
 2440DPPE   GL251136   4.950  14.890  16.040
 2440DPPE   C1A51137   4.500  14.430  16.010
 2440DPPE   C2A51138   4.330  14.010  15.960
 2440DPPE   C3A51139   4.090  13.660  15.990
 2440DPPE   C4A51140   3.820  13.410  16.170
 2440DPPE   C1B51141   4.640  14.880  16.280
 2440DPPE   C2B51142   4.220  14.860  16.320
 2440DPPE   C3B51143   3.750  14.820  16.270
 2440DPPE   C4B51144   3.200  14.690  16.430
 2441DPPE   NH351145   7.300  16.380  20.270
 2441DPPE   PO451146   7.310  16.470  19.780
 2441DPPE   GL151147   6.890  16.520  19.990
 2441DPPE   GL251148   6.810  16.180  19.740
 2441DPPE   C1A51149   6.670  16.470  20.400
 2441DPPE   C2A51150   6.350  16.480  20.770
 2441DPPE   C3A51151   6.180  16.410  21.040
 2441DPPE   C4A51152   5.950  16.260  21.290
 2441DPPE   C1B51153   6.570  16.060  20.110
 2441DPPE   C2B51154   6.410  16.050  20.530
 2441DPPE   C3B51155   6.010  16.020  20.730
 2441DPPE   C4B51156   5.810  15.790  20.770
 2442DPPE   NH351157  10.120  18.170  22.610
 2442DPPE   PO451158   9.670  18.010  22.720
 2442DPPE   GL151159   9.530  17.830  23.130
 2442DPPE   GL251160   9.650  17.890  23.470
 2442DPPE   C1A51161   9.160  17.810  23.420
 2442DPPE   C2A51162   8.920  17.940  23.610
 2442DPPE   C3A51163   8.590  18.070  23.830
 2442DPPE   C4A51164   8.200  18.240  23.940
 2442DPPE   C1B51165   9.470  17.920  23.870
 2442DPPE   C2B51166   9.120  18.010  24.050
 2442DPPE   C3B51167   8.840  18.010  24.280
 2442DPPE   C4B51168   8.630  18.190  24.640
 2443DPPE   NH351169  10.160  19.070  21.440
 2443DPPE   PO451170  10.130  19.410  21.150
 2443DPPE   GL151171  10.320  19.530  20.850
 2443DPPE   GL251172  10.200  19.770  20.730
 2443DPPE   C1A51173  10.600  19.330  20.450
 2443DPPE   C2A51174  10.820  19.190  20.050
 2443DPPE   C3A51175  11.300  19.030  19.900
 2443DPPE   C4A51176  11.740  19.030  19.920
 2443DPPE   C1B51177  10.240  19.630  20.310
 2443DPPE   C2B51178  10.450  19.560  19.890
 2443DPPE   C3B51179  10.850  19.450  19.580
 2443DPPE   C4B51180  11.050  19.130  19.460
 2444DPPE   NH351181  13.000   7.810  18.480
 2444DPPE   PO451182  13.150   7.920  18.850
 2444DPPE   GL151183  13.480   7.790  18.670
 2444DPPE   GL251184  13.610   8.050  18.490
 2444DPPE   C1A51185  13.740   7.350  18.590
 2444DPPE   C2A51186  14.130   7.170  18.710
 2444DPPE   C3A51187  14.090   7.020  19.180
 2444DPPE   C4A51188  14.000   7.250  19.530
 2444DPPE   C1B51189  13.900   7.790  18.200
 2444DPPE   C2B51190  14.150   7.530  17.870
 2444DPPE   C3B51191  14.540   7.590  17.640
 2444DPPE   C4B51192  14.710   7.760  17.360
 2445DPPE   NH351193  14.210  15.260  24.400
 2445DPPE   PO451194  14.070  14.930  24.160
 2445DPPE   GL151195  13.990  14.840  24.540
 2445DPPE   GL251196  14.290  14.830  24.750
 2445DPPE   C1A51197  13.720  14.650  24.950
 2445DPPE   C2A51198  13.430  14.390  25.260
 2445DPPE   C3A51199  13.430  14.130  25.690
 2445DPPE   C4A51200  13.210  13.850  25.720
 2445DPPE   C1B51201  14.150  14.740  25.210
 2445DPPE   C2B51202  14.030  14.740  25.650
 2445DPPE   C3B51203  13.700  14.550  25.820
 2445DPPE   C4B51204  13.360  14.510  26.010
 2446DPPE   NH351205   9.300  10.490  16.510
 2446DPPE   PO451206   9.300  10.020  16.430
 2446DPPE   GL151207   9.640  10.280  16.200
 2446DPPE   GL251208   9.780  10.090  15.900
 2446DPPE   C1A51209  10.100  10.310  16.190
 2446DPPE   C2A51210  10.200  10.780  16.030
 2446DPPE   C3A51211  10.430  11.140  16.140
 2446DPPE   C4A51212  10.690  11.340  15.840
 2446DPPE   C1B51213  10.220  10.220  15.710
 2446DPPE   C2B51214  10.550  10.390  15.890
 2446DPPE   C3B51215  10.780  10.800  16.030
 2446DPPE   C4B51216  11.100  11.190  16.080
 2447DPPE   NH351217   8.940  14.460  21.230
 2447DPPE   PO451218   8.970  14.060  21.200
 2447DPPE   GL151219   8.910  14.130  21.610
 2447DPPE   GL251220   8.950  13.930  21.790
 2447DPPE   C1A51221   8.580  14.250  21.840
 2447DPPE   C2A51222   8.340  14.190  22.090
 2447DPPE   C3A51223   8.230  14.010  22.500
 2447DPPE   C4A51224   8.140  13.650  22.740
 2447DPPE   C1B51225   8.640  13.690  21.870
 2447DPPE   C2B51226   8.340  13.360  21.830
 2447DPPE   C3B51227   8.030  13.070  21.720
 2447DPPE   C4B51228   7.540  13.090  21.730
 2448DPPE   NH351229   8.810  12.280  19.790
 2448DPPE   PO451230   8.410  12.570  19.950
 2448DPPE   GL151231   8.130  12.630  20.310
 2448DPPE   GL251232   8.080  12.890  20.460
 2448DPPE   C1A51233   7.830  12.350  20.310
 2448DPPE   C2A51234   7.460  12.220  20.600
 2448DPPE   C3A51235   7.140  11.930  20.750
 2448DPPE   C4A51236   7.110  11.700  21.020
 2448DPPE   C1B51237   7.770  12.630  20.780
 2448DPPE   C2B51238   7.580  12.350  21.100
 2448DPPE   C3B51239   7.300  12.080  21.250
 2448DPPE   C4B51240   7.040  12.260  21.570
 2449DPPE   NH351241  10.660   9.170  16.720
 2449DPPE   PO451242  10.690   8.690  16.920
 2449DPPE   GL151243  10.890   8.660  16.430
 2449DPPE   GL251244  11.010   8.920  16.390
 2449DPPE   C1A51245  11.200   8.490  16.140
 2449DPPE   C2A51246  11.400   8.360  15.780
 2449DPPE   C3A51247  11.570   7.980  15.760
 2449DPPE   C4A51248  11.640   7.510  15.710
 2449DPPE   C1B51249  10.990   9.110  15.940
 2449DPPE   C2B51250  10.890   8.690  15.790
 2449DPPE   C3B51251  11.130   8.550  15.390
 2449DPPE   C4B51252  11.280   8.540  14.880
 2450DPPE   NH351253   6.330  17.960  16.050
 2450DPPE   PO451254   6.360  18.350  16.350
 2450DPPE   GL151255   6.680  18.370  16.060
 2450DPPE   GL251256   6.680  18.220  15.720
 2450DPPE   C1A51257   7.130  18.430  16.130
 2450DPPE   C2A51258   7.460  18.330  16.130
 2450DPPE   C3A51259   7.770  18.200  15.830
 2450DPPE   C4A51260   8.050  18.240  15.690
 2450DPPE   C1B51261   6.910  18.520  15.450
 2450DPPE   C2B51262   7.190  18.680  15.130
 2450DPPE   C3B51263   7.510  18.640  14.820
 2450DPPE   C4B51264   7.580  18.610  14.430
 2451DPPE   NH351265  10.380   9.180  15.910
 2451DPPE   PO451266  10.420   8.960  16.310
 2451DPPE   GL151267  10.510   8.540  16.020
 2451DPPE   GL251268  10.730   8.300  16.090
 2451DPPE   C1A51269  10.550   8.360  15.560
 2451DPPE   C2A51270  10.680   7.900  15.350
 2451DPPE   C3A51271  10.780   7.590  15.040
 2451DPPE   C4A51272  10.980   7.190  15.060
 2451DPPE   C1B51273  10.920   8.090  15.800
 2451DPPE   C2B51274  11.140   8.060  15.420
 2451DPPE   C3B51275  11.550   8.070  15.300
 2451DPPE   C4B51276  11.620   8.440  15.270
 2452DPPE   NH351277  15.330   9.550  21.040
 2452DPPE   PO451278  15.280   9.870  20.910
 2452DPPE   GL151279  15.740   9.760  20.830
 2452DPPE   GL251280  15.960  10.040  20.810
 2452DPPE   C1A51281  16.160   9.560  20.640
 2452DPPE   C2A51282  16.470   9.480  20.380
 2452DPPE   C3A51283  16.650   9.740  20.080
 2452DPPE   C4A51284  16.920  10.030  20.100
 2452DPPE   C1B51285  16.340   9.870  21.010
 2452DPPE   C2B51286  16.430   9.880  21.340
 2452DPPE   C3B51287  16.160   9.640  21.620
 2452DPPE   C4B51288  16.160   9.630  22.040
 2453DPPE   NH351289   9.550  12.540  19.550
 2453DPPE   PO451290   9.560  12.940  19.740
 2453DPPE   GL151291   9.920  13.050  19.480
 2453DPPE   GL251292   9.970  12.750  19.240
 2453DPPE   C1A51293  10.180  13.230  19.220
 2453DPPE   C2A51294  10.430  13.370  18.870
 2453DPPE   C3A51295  10.670  13.450  18.560
 2453DPPE   C4A51296  10.940  13.420  18.270
 2453DPPE   C1B51297  10.100  12.950  18.820
 2453DPPE   C2B51298  10.210  12.930  18.520
 2453DPPE   C3B51299  10.540  13.010  18.270
 2453DPPE   C4B51300  10.480  13.400  17.960
 2454DPPE   NH351301   5.540  18.610  14.720
 2454DPPE   PO451302   5.700  18.410  14.980
 2454DPPE   GL151303   6.090  18.560  14.840
 2454DPPE   GL251304   6.090  18.820  14.920
 2454DPPE   C1A51305   6.440  18.430  14.580
 2454DPPE   C2A51306   6.800  18.680  14.460
 2454DPPE   C3A51307   7.190  18.700  14.170
 2454DPPE   C4A51308   7.480  18.500  13.860
 2454DPPE   C1B51309   6.410  18.990  14.650
 2454DPPE   C2B51310   6.670  19.270  14.500
 2454DPPE   C3B51311   6.780  19.610  14.230
 2454DPPE   C4B51312   6.800  19.860  13.890
 2455DPPE   NH351313   6.690  11.320  15.610
 2455DPPE   PO451314   6.580  11.680  15.860
 2455DPPE   GL151315   6.440  11.320  16.060
 2455DPPE   GL251316   6.260  11.530  16.370
 2455DPPE   C1A51317   6.200  10.930  16.170
 2455DPPE   C2A51318   5.980  10.740  16.370
 2455DPPE   C3A51319   5.590  10.620  16.300
 2455DPPE   C4A51320   5.190  10.700  16.330
 2455DPPE   C1B51321   5.820  11.280  16.470
 2455DPPE   C2B51322   5.390  11.270  16.480
 2455DPPE   C3B51323   5.080  11.190  16.530
 2455DPPE   C4B51324   4.840  10.800  16.720
 2456DPPE   NH351325  12.140   8.630  19.270
 2456DPPE   PO451326  12.560   8.560  19.120
 2456DPPE   GL151327  12.350   8.140  19.380
 2456DPPE   GL251328  12.620   7.960  19.600
 2456DPPE   C1A51329  12.150   7.780  19.540
 2456DPPE   C2A51330  12.020   7.660  19.870
 2456DPPE   C3A51331  11.760   7.480  20.270
 2456DPPE   C4A51332  11.600   7.340  20.660
 2456DPPE   C1B51333  12.250   8.100  19.870
 2456DPPE   C2B51334  12.180   7.910  20.320
 2456DPPE   C3B51335  12.300   7.670  20.660
 2456DPPE   C4B51336  12.060   7.460  20.910
 2457DPPE   NH351337  11.510  17.990  23.200
 2457DPPE   PO451338  11.060  17.930  23.410
 2457DPPE   GL151339  10.920  17.930  23.750
 2457DPPE   GL251340  10.630  18.060  23.650
 2457DPPE   C1A51341  10.770  17.910  24.200
 2457DPPE   C2A51342  10.640  17.930  24.650
 2457DPPE   C3A51343  10.550  17.990  25.030
 2457DPPE   C4A51344  10.170  18.270  25.090
 2457DPPE   C1B51345  10.330  18.100  23.900
 2457DPPE   C2B51346   9.970  18.220  24.200
 2457DPPE   C3B51347   9.660  18.250  24.480
 2457DPPE   C4B51348   9.230  18.270  24.510
 2458DPPE   NH351349  14.720  17.060  24.660
 2458DPPE   PO451350  14.420  16.750  24.500
 2458DPPE   GL151351  14.420  16.850  25.040
 2458DPPE   GL251352  14.150  16.850  25.050
 2458DPPE   C1A51353  14.590  16.670  25.460
 2458DPPE   C2A51354  14.850  17.120  25.790
 2458DPPE   C3A51355  14.790  17.540  25.910
 2458DPPE   C4A51356  14.520  17.830  26.120
 2458DPPE   C1B51357  14.120  16.770  25.460
 2458DPPE   C2B51358  14.180  16.910  25.840
 2458DPPE   C3B51359  14.530  16.840  26.150
 2458DPPE   C4B51360  14.870  16.750  26.410
 2459DPPE   NH351361  11.620  10.460  20.270
 2459DPPE   PO451362  11.350  10.440  20.550
 2459DPPE   GL151363  11.260  10.140  20.830
 2459DPPE   GL251364  11.510  10.290  21.020
 2459DPPE   C1A51365  11.340   9.820  21.150
 2459DPPE   C2A51366  11.080   9.530  21.350
 2459DPPE   C3A51367  10.840   9.350  21.760
 2459DPPE   C4A51368  10.650   8.970  21.980
 2459DPPE   C1B51369  11.260  10.400  21.420
 2459DPPE   C2B51370  11.070  10.140  21.790
 2459DPPE   C3B51371  10.870   9.840  21.870
 2459DPPE   C4B51372  10.440   9.680  21.930
 2460DPPE   NH351373   5.830  17.230  18.500
 2460DPPE   PO451374   5.620  17.560  18.270
 2460DPPE   GL151375   5.450  17.170  18.190
 2460DPPE   GL251376   5.480  16.920  17.860
 2460DPPE   C1A51377   5.050  16.920  18.250
 2460DPPE   C2A51378   4.570  16.890  18.380
 2460DPPE   C3A51379   4.240  16.540  18.450
 2460DPPE   C4A51380   3.850  16.430  18.580
 2460DPPE   C1B51381   4.940  16.950  17.790
 2460DPPE   C2B51382   4.560  16.780  17.850
 2460DPPE   C3B51383   4.130  16.670  17.870
 2460DPPE   C4B51384   3.680  16.520  17.870
 2461DPPE   NH351385  14.620  16.420  24.840
 2461DPPE   PO451386  14.980  16.740  24.930
 2461DPPE   GL151387  14.880  17.090  25.210
 2461DPPE   GL251388  15.050  17.300  24.940
 2461DPPE   C1A51389  15.230  16.860  25.500
 2461DPPE   C2A51390  15.450  16.630  25.740
 2461DPPE   C3A51391  15.680  16.610  26.190
 2461DPPE   C4A51392  15.810  16.470  26.600
 2461DPPE   C1B51393  15.480  17.220  25.180
 2461DPPE   C2B51394  15.720  17.010  25.610
 2461DPPE   C3B51395  15.950  16.710  25.630
 2461DPPE   C4B51396  16.070  16.410  25.970
 2462DPPE   NH351397  11.860   8.770  17.350
 2462DPPE   PO451398  11.500   8.430  17.290
 2462DPPE   GL151399  11.670   8.630  16.920
 2462DPPE   GL251400  12.000   8.850  16.870
 2462DPPE   C1A51401  11.610   8.470  16.520
 2462DPPE   C2A51402  11.770   8.540  16.120
 2462DPPE   C3A51403  11.880   8.480  15.730
 2462DPPE   C4A51404  12.360   8.390  15.550
 2462DPPE   C1B51405  12.070   8.760  16.460
 2462DPPE   C2B51406  12.310   8.600  16.210
 2462DPPE   C3B51407  12.650   8.610  15.930
 2462DPPE   C4B51408  13.050   8.930  15.860
 2463DPPE   NH351409  14.570  14.850  24.380
 2463DPPE   PO451410  14.760  15.330  24.290
 2463DPPE   GL151411  14.620  15.240  24.700
 2463DPPE   GL251412  14.960  15.110  24.920
 2463DPPE   C1A51413  14.480  15.160  25.150
 2463DPPE   C2A51414  14.470  15.060  25.560
 2463DPPE   C3A51415  14.310  15.290  25.830
 2463DPPE   C4A51416  14.080  15.640  25.790
 2463DPPE   C1B51417  14.850  15.420  25.210
 2463DPPE   C2B51418  14.670  15.600  25.680
 2463DPPE   C3B51419  14.520  15.880  25.980
 2463DPPE   C4B51420  14.770  16.200  26.310
 2464DPPE   NH351421   5.510  20.900  16.210
 2464DPPE   PO451422   5.060  20.980  16.360
 2464DPPE   GL151423   4.880  21.260  16.560
 2464DPPE   GL251424   4.650  20.950  16.710
 2464DPPE   C1A51425   4.590  21.420  16.760
 2464DPPE   C2A51426   4.150  21.300  16.800
 2464DPPE   C3A51427   3.780  21.320  16.660
 2464DPPE   C4A51428   3.620  21.720  16.660
 2464DPPE   C1B51429   4.250  20.770  16.790
 2464DPPE   C2B51430   3.890  20.890  16.980
 2464DPPE   C3B51431   3.460  21.170  17.040
 2464DPPE   C4B51432   3.250  21.620  16.960
 2465DPPE   NH351433  14.870  18.970  23.650
 2465DPPE   PO451434  14.820  19.050  24.040
 2465DPPE   GL151435  15.040  18.750  24.300
 2465DPPE   GL251436  14.800  18.670  24.580
 2465DPPE   C1A51437  15.480  18.700  24.510
 2465DPPE   C2A51438  15.790  18.460  24.510
 2465DPPE   C3A51439  16.190  18.690  24.570
 2465DPPE   C4A51440  16.570  18.740  24.670
 2465DPPE   C1B51441  15.060  18.870  24.830
 2465DPPE   C2B51442  15.170  19.050  25.210
 2465DPPE   C3B51443  15.180  19.440  25.370
 2465DPPE   C4B51444  15.190  19.690  25.740
 2466DPPE   NH351445  13.400   9.450  20.990
 2466DPPE   PO451446  13.500   9.600  21.340
 2466DPPE   GL151447  13.340   9.200  21.560
 2466DPPE   GL251448  13.340   8.980  21.290
 2466DPPE   C1A51449  13.330   9.060  22.010
 2466DPPE   C2A51450  13.160   8.850  22.370
 2466DPPE   C3A51451  13.470   8.700  22.660
 2466DPPE   C4A51452  13.490   8.620  23.100
 2466DPPE   C1B51453  13.330   8.620  21.510
 2466DPPE   C2B51454  13.200   8.170  21.600
 2466DPPE   C3B51455  13.150   7.740  21.500
 2466DPPE   C4B51456  12.770   7.520  21.610
 2467DPPE   NH351457   7.450   9.900  15.500
 2467DPPE   PO451458   7.290  10.160  15.630
 2467DPPE   GL151459   6.940  10.010  15.580
 2467DPPE   GL251460   6.770  10.290  15.840
 2467DPPE   C1A51461   6.570   9.970  15.480
 2467DPPE   C2A51462   6.260   9.950  15.800
 2467DPPE   C3A51463   5.900   9.950  15.860
 2467DPPE   C4A51464   5.580   9.760  15.640
 2467DPPE   C1B51465   6.740   9.860  15.990
 2467DPPE   C2B51466   6.670   9.440  16.270
 2467DPPE   C3B51467   6.280   9.180  16.370
 2467DPPE   C4B51468   5.940   9.240  16.470
 2468DPPE   NH351469   6.060  14.170  16.180
 2468DPPE   PO451470   6.560  14.300  16.110
 2468DPPE   GL151471   6.880  14.370  15.800
 2468DPPE   GL251472   7.220  14.400  15.950
 2468DPPE   C1A51473   7.130  14.500  15.430
 2468DPPE   C2A51474   7.490  14.550  15.430
 2468DPPE   C3A51475   7.850  14.510  15.140
 2468DPPE   C4A51476   8.240  14.720  15.250
 2468DPPE   C1B51477   7.510  14.630  15.910
 2468DPPE   C2B51478   7.880  15.000  15.850
 2468DPPE   C3B51479   8.330  15.080  16.010
 2468DPPE   C4B51480   8.790  15.300  15.990
 2469DPPE   NH351481   9.630  17.240  21.900
 2469DPPE   PO451482   9.420  17.090  22.290
 2469DPPE   GL151483   9.170  17.190  22.650
 2469DPPE   GL251484   9.250  17.380  22.940
 2469DPPE   C1A51485   8.740  17.170  22.890
 2469DPPE   C2A51486   8.470  17.160  23.200
 2469DPPE   C3A51487   8.190  17.170  23.570
 2469DPPE   C4A51488   8.290  17.330  24.030
 2469DPPE   C1B51489   9.020  17.290  23.290
 2469DPPE   C2B51490   8.770  17.390  23.620
 2469DPPE   C3B51491   8.780  17.630  23.990
 2469DPPE   C4B51492   8.380  17.820  24.220
 2470DPPE   NH351493  11.000  12.360  20.350
 2470DPPE   PO451494  10.620  12.230  20.030
 2470DPPE   GL151495  10.690  12.560  19.920
 2470DPPE   GL251496  10.930  12.800  20.100
 2470DPPE   C1A51497  10.880  12.820  19.640
 2470DPPE   C2A51498  11.170  13.090  19.430
 2470DPPE   C3A51499  11.450  13.380  19.280
 2470DPPE   C4A51500  11.580  13.420  18.890
 2470DPPE   C1B51501  11.340  12.860  19.860
 2470DPPE   C2B51502  11.690  12.830  19.590
 2470DPPE   C3B51503  11.880  13.070  19.320
 2470DPPE   C4B51504  12.270  13.240  19.070
 2471DPPE   NH351505   7.120  12.960  18.200
 2471DPPE   PO451506   7.500  12.610  18.130
 2471DPPE   GL151507   7.060  12.440  18.290
 2471DPPE   GL251508   7.080  12.620  18.550
 2471DPPE   C1A51509   6.690  12.250  18.200
 2471DPPE   C2A51510   6.270  11.990  18.370
 2471DPPE   C3A51511   5.940  11.790  18.510
 2471DPPE   C4A51512   5.470  11.600  18.540
 2471DPPE   C1B51513   6.800  12.310  18.660
 2471DPPE   C2B51514   6.590  12.190  19.010
 2471DPPE   C3B51515   6.370  12.080  19.410
 2471DPPE   C4B51516   6.040  12.140  19.820
 2472DPPE   NH351517   6.280  12.300  16.630
 2472DPPE   PO451518   6.300  12.490  16.170
 2472DPPE   GL151519   6.070  12.090  16.020
 2472DPPE   GL251520   5.970  12.110  16.280
 2472DPPE   C1A51521   5.660  11.970  15.810
 2472DPPE   C2A51522   5.530  11.680  16.080
 2472DPPE   C3A51523   5.130  11.640  16.260
 2472DPPE   C4A51524   4.760  11.580  16.490
 2472DPPE   C1B51525   5.850  11.810  16.400
 2472DPPE   C2B51526   5.520  11.790  16.620
 2472DPPE   C3B51527   5.200  11.590  16.780
 2472DPPE   C4B51528   4.830  11.610  17.000
 2473DPPE   NH351529   5.760  20.810  17.070
 2473DPPE   PO451530   5.480  20.630  17.410
 2473DPPE   GL151531   4.990  20.610  17.370
 2473DPPE   GL251532   4.770  20.520  16.980
 2473DPPE   C1A51533   4.630  20.800  17.590
 2473DPPE   C2A51534   4.190  20.800  17.780
 2473DPPE   C3A51535   3.900  20.940  17.990
 2473DPPE   C4A51536   3.510  20.910  18.380
 2473DPPE   C1B51537   4.370  20.570  17.240
 2473DPPE   C2B51538   3.940  20.640  17.380
 2473DPPE   C3B51539   3.550  20.690  17.330
 2473DPPE   C4B51540   3.170  20.580  17.140
 2474DPPE   NH351541  15.740  14.660  23.910
 2474DPPE   PO451542  15.350  14.610  24.020
 2474DPPE   GL151543  15.610  14.400  24.310
 2474DPPE   GL251544  15.660  14.540  24.620
 2474DPPE   C1A51545  16.090  14.340  24.350
 2474DPPE   C2A51546  16.440  14.230  24.420
 2474DPPE   C3A51547  16.810  14.420  24.270
 2474DPPE   C4A51548  16.880  14.760  24.060
 2474DPPE   C1B51549  16.060  14.780  24.520
 2474DPPE   C2B51550  16.460  14.810  24.330
 2474DPPE   C3B51551  16.750  15.070  24.630
 2474DPPE   C4B51552  16.670  15.310  25.060
 2475DPPE   NH351553  16.100  12.930  23.680
 2475DPPE   PO451554  15.770  13.010  23.950
 2475DPPE   GL151555  16.020  12.880  24.190
 2475DPPE   GL251556  16.070  12.620  24.060
 2475DPPE   C1A51557  16.000  12.810  24.610
 2475DPPE   C2A51558  16.020  12.840  25.050
 2475DPPE   C3A51559  15.990  13.060  25.370
 2475DPPE   C4A51560  15.600  13.360  25.430
 2475DPPE   C1B51561  16.040  12.390  24.350
 2475DPPE   C2B51562  16.230  12.470  24.800
 2475DPPE   C3B51563  16.270  12.290  25.210
 2475DPPE   C4B51564  16.290  11.910  25.490
 2476DPPE   NH351565  16.110  12.730  22.720
 2476DPPE   PO451566  16.300  12.590  23.110
 2476DPPE   GL151567  16.650  12.760  22.920
 2476DPPE   GL251568  16.940  12.880  23.150
 2476DPPE   C1A51569  17.060  12.400  23.040
 2476DPPE   C2A51570  17.430  12.160  23.290
 2476DPPE   C3A51571  17.760  11.870  23.290
 2476DPPE   C4A51572  18.040  11.850  23.060
 2476DPPE   C1B51573  17.280  12.930  22.860
 2476DPPE   C2B51574  17.660  12.880  22.660
 2476DPPE   C3B51575  18.050  12.880  22.900
 2476DPPE   C4B51576  18.230  12.520  23.120
 2477DPPE   NH351577   6.170  11.520  13.300
 2477DPPE   PO451578   6.220  11.100  13.110
 2477DPPE   GL151579   5.850  11.120  13.260
 2477DPPE   GL251580   5.690  11.410  13.130
 2477DPPE   C1A51581   5.410  11.010  13.390
 2477DPPE   C2A51582   5.340  10.710  13.750
 2477DPPE   C3A51583   4.950  10.600  13.850
 2477DPPE   C4A51584   4.570  10.370  13.730
 2477DPPE   C1B51585   5.320  11.430  13.010
 2477DPPE   C2B51586   5.090  11.410  12.650
 2477DPPE   C3B51587   4.800  11.130  12.500
 2477DPPE   C4B51588   4.420  11.150  12.290
 2478DPPE   NH351589   8.550  18.650  19.790
 2478DPPE   PO451590   8.330  18.970  19.610
 2478DPPE   GL151591   8.520  18.740  19.270
 2478DPPE   GL251592   8.460  18.510  19.080
 2478DPPE   C1A51593   8.940  18.820  18.990
 2478DPPE   C2A51594   9.290  18.600  18.790
 2478DPPE   C3A51595   9.690  18.730  18.650
 2478DPPE   C4A51596  10.170  18.700  18.670
 2478DPPE   C1B51597   8.570  18.640  18.700
 2478DPPE   C2B51598   8.760  18.540  18.420
 2478DPPE   C3B51599   9.080  18.470  18.320
 2478DPPE   C4B51600   9.510  18.520  18.280
 2479DPPE   NH351601  13.690  17.990  24.360
 2479DPPE   PO451602  13.990  18.290  24.400
 2479DPPE   GL151603  13.900  18.270  24.820
 2479DPPE   GL251604  13.540  18.240  24.750
 2479DPPE   C1A51605  13.880  18.280  25.220
 2479DPPE   C2A51606  13.900  18.360  25.660
 2479DPPE   C3A51607  13.840  18.440  26.150
 2479DPPE   C4A51608  13.760  18.640  26.520
 2479DPPE   C1B51609  13.280  18.480  25.030
 2479DPPE   C2B51610  13.390  18.410  25.460
 2479DPPE   C3B51611  13.420  18.310  25.890
 2479DPPE   C4B51612  13.210  18.380  26.270
 2480DPPE   NH351613  13.520  15.950  24.090
 2480DPPE   PO451614  13.680  16.150  24.530
 2480DPPE   GL151615  13.470  16.010  24.850
 2480DPPE   GL251616  13.670  16.230  25.110
 2480DPPE   C1A51617  13.610  15.750  25.200
 2480DPPE   C2A51618  13.800  15.850  25.480
 2480DPPE   C3A51619  13.750  15.980  25.990
 2480DPPE   C4A51620  13.740  15.840  26.440
 2480DPPE   C1B51621  13.300  16.150  25.390
 2480DPPE   C2B51622  13.300  15.840  25.810
 2480DPPE   C3B51623  13.530  15.530  26.060
 2480DPPE   C4B51624  13.640  15.090  25.910
 2481DPPE   NH351625  10.770  21.710  22.540
 2481DPPE   PO451626  10.730  21.910  22.160
 2481DPPE   GL151627  10.690  22.190  22.560
 2481DPPE   GL251628  10.730  22.530  22.650
 2481DPPE   C1A51629  10.520  22.260  22.970
 2481DPPE   C2A51630  10.350  22.720  23.070
 2481DPPE   C3A51631  10.610  23.110  23.110
 2481DPPE   C4A51632  10.400  23.530  23.340
 2481DPPE   C1B51633  10.870  22.730  23.030
 2481DPPE   C2B51634  11.120  22.960  23.320
 2481DPPE   C3B51635  11.280  23.110  23.700
 2481DPPE   C4B51636  11.260  23.150  24.160
 2482DPPE   NH351637  10.870  14.970  22.890
 2482DPPE   PO451638  10.940  14.610  22.690
 2482DPPE   GL151639  10.670  14.420  22.890
 2482DPPE   GL251640  10.480  14.700  23.060
 2482DPPE   C1A51641  10.590  14.220  23.170
 2482DPPE   C2A51642  10.340  13.900  23.270
 2482DPPE   C3A51643  10.260  13.920  23.670
 2482DPPE   C4A51644  10.220  13.690  23.900
 2482DPPE   C1B51645  10.200  14.620  23.390
 2482DPPE   C2B51646   9.910  14.610  23.720
 2482DPPE   C3B51647   9.560  14.510  23.720
 2482DPPE   C4B51648   9.220  14.390  23.990
 2483DPPE   NH351649   5.840  17.940  18.630
 2483DPPE   PO451650   6.020  17.570  18.810
 2483DPPE   GL151651   5.610  17.620  18.920
 2483DPPE   GL251652   5.450  17.410  18.750
 2483DPPE   C1A51653   5.200  17.640  19.120
 2483DPPE   C2A51654   4.810  17.480  19.030
 2483DPPE   C3A51655   4.370  17.230  19.170
 2483DPPE   C4A51656   4.150  17.750  19.300
 2483DPPE   C1B51657   5.010  17.320  18.550
 2483DPPE   C2B51658   4.540  17.280  18.620
 2483DPPE   C3B51659   4.100  17.500  18.730
 2483DPPE   C4B51660   3.720  17.580  19.120
 2484DPPE   NH351661   4.710  16.640  14.190
 2484DPPE   PO451662   4.410  16.860  14.050
 2484DPPE   GL151663   4.290  16.990  13.670
 2484DPPE   GL251664   4.340  16.770  13.470
 2484DPPE   C1A51665   4.190  17.270  13.350
 2484DPPE   C2A51666   4.320  17.680  13.110
 2484DPPE   C3A51667   4.060  17.830  12.740
 2484DPPE   C4A51668   3.860  18.050  12.400
 2484DPPE   C1B51669   4.190  16.790  13.030
 2484DPPE   C2B51670   3.990  16.460  12.640
 2484DPPE   C3B51671   4.010  15.980  12.540
 2484DPPE   C4B51672   4.240  15.560  12.470
 2485DPPE   NH351673  11.020  17.280  22.160
 2485DPPE   PO451674  11.010  16.880  22.400
 2485DPPE   GL151675  11.440  16.880  22.230
 2485DPPE   GL251676  11.660  17.050  22.460
 2485DPPE   C1A51677  11.520  16.870  21.830
 2485DPPE   C2A51678  11.840  16.960  21.520
 2485DPPE   C3A51679  12.170  17.120  21.280
 2485DPPE   C4A51680  12.440  17.400  21.120
 2485DPPE   C1B51681  11.940  17.020  22.020
 2485DPPE   C2B51682  12.320  16.980  21.770
 2485DPPE   C3B51683  12.610  17.050  21.530
 2485DPPE   C4B51684  12.920  16.980  21.160
 2486DPPE   NH351685   4.960  20.240  15.740
 2486DPPE   PO451686   5.140  20.560  15.570
 2486DPPE   GL151687   4.800  20.760  15.570
 2486DPPE   GL251688   4.850  21.040  15.460
 2486DPPE   C1A51689   4.400  20.760  15.630
 2486DPPE   C2A51690   4.060  20.690  15.900
 2486DPPE   C3A51691   3.690  20.360  15.850
 2486DPPE   C4A51692   3.260  20.330  15.770
 2486DPPE   C1B51693   4.420  20.900  15.130
 2486DPPE   C2B51694   4.060  20.890  14.950
 2486DPPE   C3B51695   3.700  20.580  15.080
 2486DPPE   C4B51696   3.590  20.220  15.390
 2487DPPE   NH351697   5.580  14.340  14.230
 2487DPPE   PO451698   5.460  13.980  13.900
 2487DPPE   GL151699   4.940  14.000  13.920
 2487DPPE   GL251700   4.840  13.750  14.170
 2487DPPE   C1A51701   4.540  13.800  13.700
 2487DPPE   C2A51702   4.440  13.400  13.440
 2487DPPE   C3A51703   4.360  13.050  13.640
 2487DPPE   C4A51704   3.960  12.980  13.690
 2487DPPE   C1B51705   4.390  13.740  14.160
 2487DPPE   C2B51706   3.950  13.730  14.120
 2487DPPE   C3B51707   3.660  14.050  14.150
 2487DPPE   C4B51708   3.340  13.900  14.010
 2488DPPE   NH351709   9.600  22.300  21.060
 2488DPPE   PO451710   9.730  21.910  21.250
 2488DPPE   GL151711   9.410  22.130  21.500
 2488DPPE   GL251712   9.540  22.280  21.700
 2488DPPE   C1A51713   9.010  22.300  21.700
 2488DPPE   C2A51714   8.750  22.450  22.100
 2488DPPE   C3A51715   8.490  22.670  22.380
 2488DPPE   C4A51716   8.370  22.920  22.800
 2488DPPE   C1B51717   9.390  22.170  22.110
 2488DPPE   C2B51718   9.160  22.350  22.410
 2488DPPE   C3B51719   9.020  22.570  22.610
 2488DPPE   C4B51720   8.720  22.420  22.910
 2489DPPE   NH351721   5.520  13.280  14.680
 2489DPPE   PO451722   5.580  13.690  14.630
 2489DPPE   GL151723   5.140  13.640  14.660
 2489DPPE   GL251724   5.050  13.390  14.610
 2489DPPE   C1A51725   4.690  13.870  14.620
 2489DPPE   C2A51726   4.310  13.670  14.700
 2489DPPE   C3A51727   3.940  13.510  14.530
 2489DPPE   C4A51728   3.510  13.480  14.440
 2489DPPE   C1B51729   4.680  13.370  14.520
 2489DPPE   C2B51730   4.420  13.110  14.540
 2489DPPE   C3B51731   4.100  13.010  14.510
 2489DPPE   C4B51732   3.690  12.860  14.590
 2490DPPE   NH351733   6.150  16.270  17.220
 2490DPPE   PO451734   5.730  16.450  17.030
 2490DPPE   GL151735   5.270  16.270  17.190
 2490DPPE   GL251736   5.160  16.620  17.080
 2490DPPE   C1A51737   4.890  16.100  17.120
 2490DPPE   C2A51738   4.550  15.880  17.160
 2490DPPE   C3A51739   4.210  15.900  17.410
 2490DPPE   C4A51740   3.750  15.950  17.380
 2490DPPE   C1B51741   4.740  16.670  17.360
 2490DPPE   C2B51742   4.420  16.460  17.430
 2490DPPE   C3B51743   3.890  16.440  17.400
 2490DPPE   C4B51744   3.440  16.410  17.360
 2491DPPE   NH351745  13.160  15.240  23.240
 2491DPPE   PO451746  13.130  15.010  22.860
 2491DPPE   GL151747  13.120  15.180  22.530
 2491DPPE   GL251748  13.340  15.410  22.480
 2491DPPE   C1A51749  13.060  15.320  22.060
 2491DPPE   C2A51750  13.220  15.350  21.720
 2491DPPE   C3A51751  13.220  15.520  21.390
 2491DPPE   C4A51752  13.370  15.660  20.900
 2491DPPE   C1B51753  13.490  15.600  22.110
 2491DPPE   C2B51754  13.440  15.790  21.740
 2491DPPE   C3B51755  13.500  16.000  21.370
 2491DPPE   C4B51756  13.830  16.110  21.150
 2492DPPE   NH351757  15.010  17.600  23.770
 2492DPPE   PO451758  14.860  17.810  24.110
 2492DPPE   GL151759  15.120  18.030  24.410
 2492DPPE   GL251760  15.250  18.280  24.350
 2492DPPE   C1A51761  15.010  18.330  24.810
 2492DPPE   C2A51762  15.120  18.470  25.130
 2492DPPE   C3A51763  15.530  18.460  25.420
 2492DPPE   C4A51764  15.460  18.290  25.790
 2492DPPE   C1B51765  15.480  18.450  24.070
 2492DPPE   C2B51766  15.520  18.860  23.900
 2492DPPE   C3B51767  15.430  19.250  23.960
 2492DPPE   C4B51768  15.310  19.620  24.230
 2493DPPE   NH351769   5.910  18.640  17.630
 2493DPPE   PO451770   5.850  18.210  17.600
 2493DPPE   GL151771   5.430  18.200  17.700
 2493DPPE   GL251772   5.310  18.450  17.860
 2493DPPE   C1A51773   5.060  18.060  17.650
 2493DPPE   C2A51774   4.670  17.890  17.890
 2493DPPE   C3A51775   4.150  17.880  17.870
 2493DPPE   C4A51776   3.760  18.180  17.740
 2493DPPE   C1B51777   4.840  18.450  17.910
 2493DPPE   C2B51778   4.620  18.300  18.150
 2493DPPE   C3B51779   4.130  18.240  18.260
 2493DPPE   C4B51780   3.730  18.350  18.240
 2494DPPE   NH351781   8.740  23.570  18.530
 2494DPPE   PO451782   8.380  23.640  18.390
 2494DPPE   GL151783   8.580  23.960  18.190
 2494DPPE   GL251784   8.330  24.140  18.450
 2494DPPE   C1A51785   8.450  24.010  17.710
 2494DPPE   C2A51786   8.110  24.110  17.500
 2494DPPE   C3A51787   7.680  24.190  17.630
 2494DPPE   C4A51788   7.350  24.160  17.360
 2494DPPE   C1B51789   8.420  24.400  18.120
 2494DPPE   C2B51790   8.500  24.750  18.020
 2494DPPE   C3B51791   8.580  25.160  17.880
 2494DPPE   C4B51792   8.950  25.310  17.820
 2495DPPE   NH351793   8.400  21.580  20.100
 2495DPPE   PO451794   8.230  22.050  20.070
 2495DPPE   GL151795   8.060  22.440  20.330
 2495DPPE   GL251796   8.350  22.670  20.390
 2495DPPE   C1A51797   7.820  22.760  20.540
 2495DPPE   C2A51798   7.490  22.770  20.870
 2495DPPE   C3A51799   7.260  23.060  21.160
 2495DPPE   C4A51800   7.380  23.110  21.490
 2495DPPE   C1B51801   8.320  22.800  20.840
 2495DPPE   C2B51802   8.290  22.810  21.260
 2495DPPE   C3B51803   8.010  22.880  21.610
 2495DPPE   C4B51804   7.840  23.190  21.840
 2496DPPE   NH351805  15.240  10.800  22.470
 2496DPPE   PO451806  14.820  10.640  22.510
 2496DPPE   GL151807  15.200  10.440  22.790
 2496DPPE   GL251808  15.110  10.030  22.900
 2496DPPE   C1A51809  15.330  10.480  23.210
 2496DPPE   C2A51810  15.480  10.880  23.480
 2496DPPE   C3A51811  15.790  11.020  23.580
 2496DPPE   C4A51812  16.170  10.940  23.510
 2496DPPE   C1B51813  15.190   9.770  23.170
 2496DPPE   C2B51814  15.500   9.600  23.300
 2496DPPE   C3B51815  15.940   9.410  23.200
 2496DPPE   C4B51816  16.370   9.310  23.140
 2497DPPE   NH351817  10.210  15.040  22.380
 2497DPPE   PO451818  10.500  14.790  22.570
 2497DPPE   GL151819  10.130  14.690  22.700
 2497DPPE   GL251820   9.890  14.780  22.750
 2497DPPE   C1A51821  10.100  14.270  22.980
 2497DPPE   C2A51822   9.910  14.190  23.440
 2497DPPE   C3A51823   9.790  14.160  23.920
 2497DPPE   C4A51824   9.680  14.430  24.290
 2497DPPE   C1B51825   9.740  14.550  23.180
 2497DPPE   C2B51826   9.310  14.450  23.300
 2497DPPE   C3B51827   8.860  14.380  23.420
 2497DPPE   C4B51828   8.620  14.550  23.740
 2498DPPE   NH351829   7.990  11.690  17.920
 2498DPPE   PO451830   7.670  12.050  18.140
 2498DPPE   GL151831   7.290  11.850  18.180
 2498DPPE   GL251832   7.100  11.940  18.490
 2498DPPE   C1A51833   6.890  11.820  18.090
 2498DPPE   C2A51834   6.410  11.600  18.090
 2498DPPE   C3A51835   6.000  11.520  18.140
 2498DPPE   C4A51836   5.770  11.190  18.470
 2498DPPE   C1B51837   6.700  11.810  18.600
 2498DPPE   C2B51838   6.280  11.750  18.900
 2498DPPE   C3B51839   5.950  11.800  19.240
 2498DPPE   C4B51840   5.790  12.160  19.370
 2499DPPE   NH351841   8.140  10.460  14.050
 2499DPPE   PO451842   7.830  10.780  14.010
 2499DPPE   GL151843   8.130  10.870  13.680
 2499DPPE   GL251844   8.100  10.780  13.340
 2499DPPE   C1A51845   8.580  10.970  13.530
 2499DPPE   C2A51846   8.910  10.820  13.350
 2499DPPE   C3A51847   9.280  10.800  13.140
 2499DPPE   C4A51848   9.740  10.750  13.070
 2499DPPE   C1B51849   8.450  10.720  13.070
 2499DPPE   C2B51850   8.410  10.720  12.700
 2499DPPE   C3B51851   8.260  10.390  12.430
 2499DPPE   C4B51852   8.170  10.360  12.020
 2500DPPE   NH351853   7.400  14.400  19.110
 2500DPPE   PO451854   7.260  14.320  18.650
 2500DPPE   GL151855   7.650  14.250  18.410
 2500DPPE   GL251856   7.820  14.510  18.340
 2500DPPE   C1A51857   7.710  14.060  18.020
 2500DPPE   C2A51858   8.050  13.840  17.860
 2500DPPE   C3A51859   8.480  13.870  17.760
 2500DPPE   C4A51860   8.850  13.680  17.890
 2500DPPE   C1B51861   8.130  14.290  18.150
 2500DPPE   C2B51862   8.320  14.310  17.730
 2500DPPE   C3B51863   8.570  14.420  17.470
 2500DPPE   C4B51864   8.890  14.660  17.740
 2501DPPE   NH351865  13.210  12.080  22.500
 2501DPPE   PO451866  13.210  12.390  22.830
 2501DPPE   GL151867  13.050  12.160  23.210
 2501DPPE   GL251868  13.000  12.360  23.520
 2501DPPE   C1A51869  12.870  11.890  23.540
 2501DPPE   C2A51870  12.970  11.710  23.950
 2501DPPE   C3A51871  12.650  11.790  24.340
 2501DPPE   C4A51872  12.320  11.600  24.430
 2501DPPE   C1B51873  13.000  12.260  23.890
 2501DPPE   C2B51874  12.960  12.220  24.400
 2501DPPE   C3B51875  12.920  12.090  24.670
 2501DPPE   C4B51876  12.960  12.020  25.190
 2502DPPE   NH351877  14.290  10.770  22.480
 2502DPPE   PO451878  14.110  10.370  22.180
 2502DPPE   GL151879  14.280  10.100  22.490
 2502DPPE   GL251880  14.390  10.340  22.660
 2502DPPE   C1A51881  14.600   9.980  22.910
 2502DPPE   C2A51882  14.690   9.710  23.340
 2502DPPE   C3A51883  15.040   9.390  23.490
 2502DPPE   C4A51884  15.320   9.470  23.890
 2502DPPE   C1B51885  14.280  10.280  23.150
 2502DPPE   C2B51886  14.450  10.180  23.610
 2502DPPE   C3B51887  14.660   9.920  24.010
 2502DPPE   C4B51888  14.800   9.510  24.020
 2503DPPE   NH351889   5.810  17.870  14.770
 2503DPPE   PO451890   5.460  18.140  14.590
 2503DPPE   GL151891   5.940  18.220  14.460
 2503DPPE   GL251892   5.950  18.450  14.250
 2503DPPE   C1A51893   6.320  18.110  14.150
 2503DPPE   C2A51894   6.420  18.130  13.750
 2503DPPE   C3A51895   6.180  18.010  13.470
 2503DPPE   C4A51896   5.980  18.140  13.100
 2503DPPE   C1B51897   6.270  18.550  13.900
 2503DPPE   C2B51898   6.450  18.650  13.550
 2503DPPE   C3B51899   6.400  18.840  13.140
 2503DPPE   C4B51900   6.710  18.900  12.810
 2504DPPE   NH351901  14.350   9.240  19.670
 2504DPPE   PO451902  14.020   9.280  19.360
 2504DPPE   GL151903  14.280   9.450  19.060
 2504DPPE   GL251904  14.450   9.290  19.010
 2504DPPE   C1A51905  14.440   9.710  18.710
 2504DPPE   C2A51906  14.650   9.880  18.440
 2504DPPE   C3A51907  14.720  10.220  18.300
 2504DPPE   C4A51908  14.650  10.490  17.970
 2504DPPE   C1B51909  14.490   9.230  18.650
 2504DPPE   C2B51910  14.740   9.250  18.350
 2504DPPE   C3B51911  14.920   9.130  17.910
 2504DPPE   C4B51912  15.140   8.800  17.700
 2505DPPE   NH351913  11.110  22.880  20.370
 2505DPPE   PO451914  11.370  23.150  20.580
 2505DPPE   GL151915  11.610  23.050  20.250
 2505DPPE   GL251916  11.400  23.180  20.090
 2505DPPE   C1A51917  11.980  23.220  20.190
 2505DPPE   C2A51918  12.160  23.500  20.030
 2505DPPE   C3A51919  12.330  23.820  20.050
 2505DPPE   C4A51920  12.540  24.100  19.890
 2505DPPE   C1B51921  11.450  23.230  19.670
 2505DPPE   C2B51922  11.360  23.530  19.260
 2505DPPE   C3B51923  11.400  23.910  19.100
 2505DPPE   C4B51924  11.490  24.290  18.890
 2506DPPE   NH351925  10.060  11.170  18.460
 2506DPPE   PO451926  10.010  11.360  18.800
 2506DPPE   GL151927  10.320  11.730  18.600
 2506DPPE   GL251928  10.600  11.560  18.620
 2506DPPE   C1A51929  10.480  12.120  18.530
 2506DPPE   C2A51930  10.640  12.540  18.360
 2506DPPE   C3A51931  11.030  12.870  18.360
 2506DPPE   C4A51932  11.400  12.740  18.110
 2506DPPE   C1B51933  10.910  11.850  18.470
 2506DPPE   C2B51934  11.300  11.740  18.400
 2506DPPE   C3B51935  11.580  11.800  18.170
 2506DPPE   C4B51936  11.970  11.720  18.000
 2507DPPE   NH351937   5.200  19.130  13.980
 2507DPPE   PO451938   5.310  18.970  14.420
 2507DPPE   GL151939   5.720  18.890  14.290
 2507DPPE   GL251940   5.740  19.140  13.990
 2507DPPE   C1A51941   6.170  18.950  14.260
 2507DPPE   C2A51942   6.650  18.990  14.090
 2507DPPE   C3A51943   6.940  19.090  14.080
 2507DPPE   C4A51944   7.250  19.460  14.210
 2507DPPE   C1B51945   5.830  19.360  13.600
 2507DPPE   C2B51946   6.150  19.400  13.310
 2507DPPE   C3B51947   6.320  19.230  12.860
 2507DPPE   C4B51948   6.280  18.960  12.530
 2508DPPE   NH351949   5.610  13.900  15.190
 2508DPPE   PO451950   5.220  14.060  14.940
 2508DPPE   GL151951   4.790  14.100  15.070
 2508DPPE   GL251952   4.550  14.430  15.060
 2508DPPE   C1A51953   4.280  13.920  15.150
 2508DPPE   C2A51954   3.890  13.680  15.050
 2508DPPE   C3A51955   3.590  13.330  14.970
 2508DPPE   C4A51956   3.250  12.980  15.040
 2508DPPE   C1B51957   4.510  14.450  15.490
 2508DPPE   C2B51958   4.090  14.270  15.680
 2508DPPE   C3B51959   3.820  13.830  15.590
 2508DPPE   C4B51960   3.550  13.470  15.770
 2509DPPE   NH351961   4.640  18.560  14.920
 2509DPPE   PO451962   4.850  18.980  14.820
 2509DPPE   GL151963   4.420  19.030  14.730
 2509DPPE   GL251964   4.380  18.910  14.500
 2509DPPE   C1A51965   3.940  19.150  14.590
 2509DPPE   C2A51966   3.550  19.100  14.560
 2509DPPE   C3A51967   3.140  19.050  14.520
 2509DPPE   C4A51968   3.080  18.790  14.170
 2509DPPE   C1B51969   4.240  19.150  14.180
 2509DPPE   C2B51970   4.010  19.300  13.800
 2509DPPE   C3B51971   3.890  19.010  13.490
 2509DPPE   C4B51972   3.740  18.590  13.450
 2510DPPE   NH351973   5.820  16.330  18.110
 2510DPPE   PO451974   6.050  16.320  18.450
 2510DPPE   GL151975   5.830  16.000  18.640
 2510DPPE   GL251976   6.040  15.700  18.740
 2510DPPE   C1A51977   5.440  15.910  18.760
 2510DPPE   C2A51978   5.180  15.560  19.000
 2510DPPE   C3A51979   4.790  15.440  19.220
 2510DPPE   C4A51980   4.850  15.100  19.560
 2510DPPE   C1B51981   5.820  15.430  19.050
 2510DPPE   C2B51982   5.470  15.550  19.370
 2510DPPE   C3B51983   5.110  15.730  19.480
 2510DPPE   C4B51984   4.570  15.760  19.610
 2511DPPE   NH351985   6.840  16.880  17.170
 2511DPPE   PO451986   6.840  17.290  17.080
 2511DPPE   GL151987   7.220  17.210  17.090
 2511DPPE   GL251988   7.380  17.050  17.270
 2511DPPE   C1A51989   7.710  17.220  16.890
 2511DPPE   C2A51990   8.030  17.430  16.860
 2511DPPE   C3A51991   8.360  17.160  16.600
 2511DPPE   C4A51992   8.630  17.190  16.290
 2511DPPE   C1B51993   7.510  16.760  16.940
 2511DPPE   C2B51994   7.760  16.370  16.650
 2511DPPE   C3B51995   8.200  16.380  16.590
 2511DPPE   C4B51996   8.560  16.500  16.440
 2512DPPE   NH351997  13.290  18.840  23.870
 2512DPPE   PO451998  13.590  18.550  24.170
 2512DPPE   GL151999  13.650  18.670  24.520
 2512DPPE   GL252000  13.830  19.040  24.570
 2512DPPE   C1A52001  13.520  18.910  24.950
 2512DPPE   C2A52002  13.150  19.290  25.120
 2512DPPE   C3A52003  12.740  19.260  25.180
 2512DPPE   C4A52004  12.300  19.300  25.260
 2512DPPE   C1B52005  13.890  19.310  24.970
 2512DPPE   C2B52006  13.630  19.260  25.310
 2512DPPE   C3B52007  13.300  18.890  25.380
 2512DPPE   C4B52008  12.920  19.090  25.620
 2513DPPE   NH352009  12.170  16.330  23.590
 2513DPPE   PO452010  12.450  16.710  23.680
 2513DPPE   GL152011  12.090  16.570  24.060
 2513DPPE   GL252012  12.350  16.680  24.330
 2513DPPE   C1A52013  11.830  16.610  24.410
 2513DPPE   C2A52014  12.010  16.560  24.770
 2513DPPE   C3A52015  12.080  16.580  25.230
 2513DPPE   C4A52016  12.050  16.730  25.630
 2513DPPE   C1B52017  12.050  17.040  24.420
 2513DPPE   C2B52018  11.900  17.130  24.680
 2513DPPE   C3B52019  11.850  17.090  25.050
 2513DPPE   C4B52020  11.780  17.170  25.450
 2514DPPE   NH352021   5.720  19.040  18.490
 2514DPPE   PO452022   5.560  19.310  18.190
 2514DPPE   GL152023   5.240  19.230  18.480
 2514DPPE   GL252024   5.360  19.380  18.750
 2514DPPE   C1A52025   4.840  19.290  18.770
 2514DPPE   C2A52026   4.440  19.240  18.870
 2514DPPE   C3A52027   3.980  19.310  19.090
 2514DPPE   C4A52028   3.870  19.500  19.390
 2514DPPE   C1B52029   5.050  19.690  18.800
 2514DPPE   C2B52030   4.880  20.130  18.700
 2514DPPE   C3B52031   4.580  20.330  18.860
 2514DPPE   C4B52032   4.380  20.680  19.000
 2515DPPE   NH352033  15.030   9.280  20.310
 2515DPPE   PO452034  14.990   8.830  20.400
 2515DPPE   GL152035  15.150   8.780  19.960
 2515DPPE   GL252036  15.260   9.100  19.880
 2515DPPE   C1A52037  15.440   8.610  19.740
 2515DPPE   C2A52038  15.700   8.290  19.520
 2515DPPE   C3A52039  15.840   7.820  19.610
 2515DPPE   C4A52040  16.100   7.480  19.720
 2515DPPE   C1B52041  15.560   9.140  19.520
 2515DPPE   C2B52042  15.770   9.150  19.110
 2515DPPE   C3B52043  16.000   8.890  18.840
 2515DPPE   C4B52044  16.020   8.570  18.430
 2516DPPE   NH352045   9.040  20.030  20.330
 2516DPPE   PO452046   8.900  19.650  20.580
 2516DPPE   GL152047   9.150  19.470  20.300
 2516DPPE   GL252048   9.280  19.060  20.200
 2516DPPE   C1A52049   9.560  19.490  20.030
 2516DPPE   C2A52050   9.940  19.460  19.700
 2516DPPE   C3A52051  10.280  19.460  19.470
 2516DPPE   C4A52052  10.630  19.300  19.180
 2516DPPE   C1B52053   9.620  19.060  19.860
 2516DPPE   C2B52054  10.050  18.980  19.600
 2516DPPE   C3B52055  10.510  19.010  19.610
 2516DPPE   C4B52056  10.840  18.680  19.810
 2517DPPE   NH352057  10.670   9.810  19.160
 2517DPPE   PO452058  11.010   9.530  19.380
 2517DPPE   GL152059  11.100   9.280  19.780
 2517DPPE   GL252060  11.360   9.040  19.900
 2517DPPE   C1A52061  10.890   9.040  20.080
 2517DPPE   C2A52062  10.670   8.790  20.310
 2517DPPE   C3A52063  10.550   8.480  20.580
 2517DPPE   C4A52064  10.180   8.320  20.840
 2517DPPE   C1B52065  11.180   8.660  20.000
 2517DPPE   C2B52066  10.910   8.430  19.980
 2517DPPE   C3B52067  10.730   8.120  20.230
 2517DPPE   C4B52068  10.410   7.960  20.530
 2518DPPE   NH352069  11.730  15.570  23.460
 2518DPPE   PO452070  12.110  15.780  23.580
 2518DPPE   GL152071  11.930  15.760  23.850
 2518DPPE   GL252072  11.640  15.790  23.920
 2518DPPE   C1A52073  11.820  15.580  24.370
 2518DPPE   C2A52074  11.540  15.770  24.700
 2518DPPE   C3A52075  11.210  15.960  24.880
 2518DPPE   C4A52076  11.130  16.240  25.070
 2518DPPE   C1B52077  11.350  15.850  24.230
 2518DPPE   C2B52078  10.940  16.060  24.480
 2518DPPE   C3B52079  10.550  16.380  24.650
 2518DPPE   C4B52080  10.510  16.590  25.130
 2519DPPE   NH352081   7.600  21.200  18.490
 2519DPPE   PO452082   7.900  20.970  18.690
 2519DPPE   GL152083   8.340  20.730  18.670
 2519DPPE   GL252084   8.450  20.370  18.730
 2519DPPE   C1A52085   8.780  20.650  18.470
 2519DPPE   C2A52086   9.080  20.480  18.490
 2519DPPE   C3A52087   9.290  20.350  18.210
 2519DPPE   C4A52088   9.610  20.320  17.960
 2519DPPE   C1B52089   8.830  20.120  18.660
 2519DPPE   C2B52090   9.240  20.010  18.540
 2519DPPE   C3B52091   9.630  20.030  18.430
 2519DPPE   C4B52092   9.920  19.900  18.200
 2520DPPE   NH352093   6.930  12.290  14.330
 2520DPPE   PO452094   6.570  12.380  14.650
 2520DPPE   GL152095   6.970  12.680  14.750
 2520DPPE   GL252096   7.170  12.720  14.390
 2520DPPE   C1A52097   7.220  12.990  14.790
 2520DPPE   C2A52098   7.530  13.140  14.770
 2520DPPE   C3A52099   8.000  13.090  14.730
 2520DPPE   C4A52100   8.320  13.150  14.570
 2520DPPE   C1B52101   7.210  12.920  13.940
 2520DPPE   C2B52102   7.460  13.100  13.480
 2520DPPE   C3B52103   7.540  13.080  13.080
 2520DPPE   C4B52104   7.640  12.730  12.770
 2521DPPE   NH352105  12.930   9.120  20.300
 2521DPPE   PO452106  12.890   8.960  19.840
 2521DPPE   GL152107  12.980   8.680  20.170
 2521DPPE   GL252108  12.670   8.350  20.030
 2521DPPE   C1A52109  12.930   8.300  20.450
 2521DPPE   C2A52110  13.280   8.080  20.580
 2521DPPE   C3A52111  13.520   7.850  20.840
 2521DPPE   C4A52112  13.570   7.730  21.140
 2521DPPE   C1B52113  12.620   7.880  20.210
 2521DPPE   C2B52114  12.510   7.550  19.940
 2521DPPE   C3B52115  12.440   7.240  19.640
 2521DPPE   C4B52116  12.450   6.750  19.640
 2522DPPE   NH352117  14.800  11.390  21.250
 2522DPPE   PO452118  14.690  11.770  21.360
 2522DPPE   GL152119  14.950  11.840  21.010
 2522DPPE   GL252120  14.910  11.600  20.720
 2522DPPE   C1A52121  15.300  11.940  20.700
 2522DPPE   C2A52122  15.240  12.190  20.300
 2522DPPE   C3A52123  15.210  12.260  19.930
 2522DPPE   C4A52124  15.140  12.440  19.590
 2522DPPE   C1B52125  15.270  11.550  20.370
 2522DPPE   C2B52126  15.690  11.500  20.400
 2522DPPE   C3B52127  15.780  11.880  20.550
 2522DPPE   C4B52128  16.020  12.260  20.690
 2523DPPE   NH352129   9.710  18.690  22.690
 2523DPPE   PO452130  10.020  18.580  22.910
 2523DPPE   GL152131   9.860  18.710  23.180
 2523DPPE   GL252132   9.970  18.930  23.260
 2523DPPE   C1A52133   9.490  18.760  23.510
 2523DPPE   C2A52134   9.300  18.920  23.900
 2523DPPE   C3A52135   9.020  19.120  24.180
 2523DPPE   C4A52136   8.800  19.070  24.570
 2523DPPE   C1B52137   9.920  18.860  23.730
 2523DPPE   C2B52138   9.740  19.150  24.050
 2523DPPE   C3B52139   9.530  19.290  24.380
 2523DPPE   C4B52140   9.260  19.270  24.670
 2524DPPE   NH352141  10.790  12.650  22.310
 2524DPPE   PO452142  10.950  12.310  22.170
 2524DPPE   GL152143  10.990  11.990  22.350
 2524DPPE   GL252144  10.790  11.610  22.200
 2524DPPE   C1A52145  11.020  11.690  22.730
 2524DPPE   C2A52146  10.750  11.380  23.070
 2524DPPE   C3A52147  10.460  11.230  23.400
 2524DPPE   C4A52148  10.150  10.910  23.610
 2524DPPE   C1B52149  10.640  11.370  22.550
 2524DPPE   C2B52150  10.410  11.140  22.820
 2524DPPE   C3B52151  10.220  10.850  23.110
 2524DPPE   C4B52152   9.880  10.600  23.290
 2525DPPE   NH352153   7.150  20.620  17.040
 2525DPPE   PO452154   7.440  20.470  17.360
 2525DPPE   GL152155   7.800  20.430  17.170
 2525DPPE   GL252156   7.640  20.450  16.870
 2525DPPE   C1A52157   8.200  20.380  16.920
 2525DPPE   C2A52158   8.450  20.490  16.600
 2525DPPE   C3A52159   8.790  20.850  16.470
 2525DPPE   C4A52160   9.150  21.000  16.520
 2525DPPE   C1B52161   7.520  20.260  16.400
 2525DPPE   C2B52162   7.480  20.320  15.900
 2525DPPE   C3B52163   7.430  20.640  15.560
 2525DPPE   C4B52164   7.200  21.070  15.340
 2526DPPE   NH352165  11.280   9.430  17.290
 2526DPPE   PO452166  10.910   9.590  17.530
 2526DPPE   GL152167  11.140  10.010  17.310
 2526DPPE   GL252168  10.920  10.200  17.000
 2526DPPE   C1A52169  11.540  10.090  17.180
 2526DPPE   C2A52170  11.830  10.040  16.860
 2526DPPE   C3A52171  12.110   9.940  16.440
 2526DPPE   C4A52172  12.230   9.570  16.380
 2526DPPE   C1B52173  11.270  10.100  16.760
 2526DPPE   C2B52174  11.440  10.330  16.470
 2526DPPE   C3B52175  11.820  10.330  16.170
 2526DPPE   C4B52176  12.260  10.210  15.950
 2527DPPE   NH352177  13.380  13.330  22.420
 2527DPPE   PO452178  13.340  13.740  22.450
 2527DPPE   GL152179  13.090  13.970  22.070
 2527DPPE   GL252180  13.090  14.350  22.110
 2527DPPE   C1A52181  13.170  14.090  21.640
 2527DPPE   C2A52182  13.480  14.280  21.350
 2527DPPE   C3A52183  13.780  14.490  21.070
 2527DPPE   C4A52184  13.980  14.320  20.770
 2527DPPE   C1B52185  13.290  14.680  21.810
 2527DPPE   C2B52186  13.480  14.980  21.550
 2527DPPE   C3B52187  13.480  15.080  21.190
 2527DPPE   C4B52188  13.680  15.080  20.990
 2528DPPE   NH352189   6.280  12.090  14.980
 2528DPPE   PO452190   5.990  12.160  15.070
 2528DPPE   GL152191   5.690  11.970  15.270
 2528DPPE   GL252192   5.420  12.100  15.390
 2528DPPE   C1A52193   5.290  11.660  15.160
 2528DPPE   C2A52194   4.930  11.450  15.070
 2528DPPE   C3A52195   4.520  11.230  14.870
 2528DPPE   C4A52196   4.180  11.010  14.630
 2528DPPE   C1B52197   5.010  11.980  15.500
 2528DPPE   C2B52198   4.620  11.870  15.370
 2528DPPE   C3B52199   4.310  11.630  15.160
 2528DPPE   C4B52200   3.970  11.510  14.850
 2529DPPE   NH352201  10.820  18.390  23.270
 2529DPPE   PO452202  10.840  18.870  23.230
 2529DPPE   GL152203  10.800  18.920  23.680
 2529DPPE   GL252204  10.900  19.290  23.680
 2529DPPE   C1A52205  10.820  18.900  24.060
 2529DPPE   C2A52206  10.570  18.830  24.520
 2529DPPE   C3A52207  10.640  18.500  24.840
 2529DPPE   C4A52208  10.630  18.500  25.240
 2529DPPE   C1B52209  10.700  19.400  24.060
 2529DPPE   C2B52210  10.460  19.670  24.320
 2529DPPE   C3B52211  10.390  19.870  24.810
 2529DPPE   C4B52212  10.710  19.850  24.970
 2530DPPE   NH352213  10.790  22.750  21.770
 2530DPPE   PO452214  10.360  22.720  21.690
 2530DPPE   GL152215  10.220  23.110  21.800
 2530DPPE   GL252216   9.940  23.200  21.720
 2530DPPE   C1A52217  10.090  23.540  22.060
 2530DPPE   C2A52218   9.600  23.730  22.300
 2530DPPE   C3A52219   9.350  24.090  22.190
 2530DPPE   C4A52220   8.860  24.150  22.000
 2530DPPE   C1B52221   9.570  23.540  21.800
 2530DPPE   C2B52222   9.150  23.860  21.700
 2530DPPE   C3B52223   9.260  24.210  21.540
 2530DPPE   C4B52224   9.140  24.370  21.100
 2531DPPE   NH352225  11.520  20.780  21.690
 2531DPPE   PO452226  11.690  20.440  21.980
 2531DPPE   GL152227  11.770  20.360  21.600
 2531DPPE   GL252228  11.930  20.030  21.370
 2531DPPE   C1A52229  11.990  20.550  21.260
 2531DPPE   C2A52230  12.250  20.810  20.930
 2531DPPE   C3A52231  12.240  20.900  20.490
 2531DPPE   C4A52232  12.590  20.790  20.180
 2531DPPE   C1B52233  12.200  20.160  21.020
 2531DPPE   C2B52234  12.390  20.400  20.660
 2531DPPE   C3B52235  12.700  20.270  20.310
 2531DPPE   C4B52236  12.760  20.400  19.830
 2532DPPE   NH352237  12.660   8.490  18.010
 2532DPPE   PO452238  12.650   8.110  17.800
 2532DPPE   GL152239  12.960   8.020  17.480
 2532DPPE   GL252240  13.130   7.750  17.490
 2532DPPE   C1A52241  13.150   7.940  17.040
 2532DPPE   C2A52242  13.220   7.870  16.570
 2532DPPE   C3A52243  13.490   8.050  16.260
 2532DPPE   C4A52244  13.760   8.040  15.930
 2532DPPE   C1B52245  13.400   7.290  17.590
 2532DPPE   C2B52246  13.860   7.260  17.510
 2532DPPE   C3B52247  14.240   7.270  17.400
 2532DPPE   C4B52248  14.600   7.250  17.230
 2533DPPE   NH352249   7.400  21.590  19.910
 2533DPPE   PO452250   7.490  21.250  20.200
 2533DPPE   GL152251   7.120  21.160  20.320
 2533DPPE   GL252252   6.960  20.800  20.330
 2533DPPE   C1A52253   6.700  21.250  20.510
 2533DPPE   C2A52254   6.280  21.380  20.550
 2533DPPE   C3A52255   6.140  21.770  20.440
 2533DPPE   C4A52256   5.890  22.160  20.530
 2533DPPE   C1B52257   6.540  20.770  20.420
 2533DPPE   C2B52258   6.120  21.000  20.310
 2533DPPE   C3B52259   5.830  21.180  20.540
 2533DPPE   C4B52260   5.890  21.200  21.010
 2534DPPE   NH352261   8.670   9.060  16.380
 2534DPPE   PO452262   8.920   9.070  16.030
 2534DPPE   GL152263   8.760   8.660  16.050
 2534DPPE   GL252264   8.500   8.540  15.760
 2534DPPE   C1A52265   8.530   8.320  16.290
 2534DPPE   C2A52266   8.350   7.920  16.340
 2534DPPE   C3A52267   8.040   7.760  16.490
 2534DPPE   C4A52268   7.970   7.450  16.870
 2534DPPE   C1B52269   8.580   8.050  15.800
 2534DPPE   C2B52270   8.230   7.710  15.790
 2534DPPE   C3B52271   8.020   7.380  15.600
 2534DPPE   C4B52272   7.610   7.410  15.580
 2535DPPE   NH352273  10.220   8.600  17.030
 2535DPPE   PO452274   9.780   8.520  17.180
 2535DPPE   GL152275   9.660   8.170  17.500
 2535DPPE   GL252276   9.520   7.940  17.340
 2535DPPE   C1A52277   9.610   8.010  17.880
 2535DPPE   C2A52278   9.490   7.990  18.180
 2535DPPE   C3A52279   9.230   7.800  18.390
 2535DPPE   C4A52280   8.790   7.760  18.690
 2535DPPE   C1B52281   9.330   7.590  17.420
 2535DPPE   C2B52282   9.220   7.220  17.260
 2535DPPE   C3B52283   9.400   6.820  17.020
 2535DPPE   C4B52284   9.670   6.660  16.580
 2536DPPE   NH352285  12.400  20.980  21.960
 2536DPPE   PO452286  12.700  21.160  22.270
 2536DPPE   GL152287  12.900  20.990  21.980
 2536DPPE   GL252288  12.810  20.830  21.650
 2536DPPE   C1A52289  13.240  20.680  21.840
 2536DPPE   C2A52290  13.650  20.550  21.700
 2536DPPE   C3A52291  14.030  20.590  21.350
 2536DPPE   C4A52292  14.430  20.490  21.220
 2536DPPE   C1B52293  13.010  20.830  21.390
 2536DPPE   C2B52294  13.170  20.630  21.040
 2536DPPE   C3B52295  13.330  20.420  20.670
 2536DPPE   C4B52296  13.240  20.170  20.300
 2537DPPE   NH352297   8.300  12.020  16.690
 2537DPPE   PO452298   7.970  11.960  16.350
 2537DPPE   GL152299   8.160  12.330  16.270
 2537DPPE   GL252300   8.540  12.380  16.260
 2537DPPE   C1A52301   8.310  12.470  15.780
 2537DPPE   C2A52302   8.520  12.620  15.380
 2537DPPE   C3A52303   8.830  13.010  15.170
 2537DPPE   C4A52304   9.090  13.330  15.000
 2537DPPE   C1B52305   8.760  12.760  16.000
 2537DPPE   C2B52306   9.030  12.760  15.760
 2537DPPE   C3B52307   9.400  12.930  15.650
 2537DPPE   C4B52308   9.800  13.250  15.760
 2538DPPE   NH352309   9.140  10.380  15.350
 2538DPPE   PO452310   8.720  10.140  15.220
 2538DPPE   GL152311   8.820  10.460  14.880
 2538DPPE   GL252312   8.910  10.790  15.060
 2538DPPE   C1A52313   8.770  10.840  14.610
 2538DPPE   C2A52314   9.030  11.100  14.390
 2538DPPE   C3A52315   9.300  11.370  14.380
 2538DPPE   C4A52316   9.720  11.510  14.230
 2538DPPE   C1B52317   9.190  10.990  14.990
 2538DPPE   C2B52318   9.460  10.870  14.660
 2538DPPE   C3B52319   9.460  10.680  14.310
 2538DPPE   C4B52320   9.360  10.320  14.100
 2539DPPE   NH352321   5.620  17.870  14.240
 2539DPPE   PO452322   5.530  17.690  13.850
 2539DPPE   GL152323   5.730  17.760  13.440
 2539DPPE   GL252324   5.530  18.020  13.330
 2539DPPE   C1A52325   5.820  17.680  13.130
 2539DPPE   C2A52326   5.720  17.860  12.760
 2539DPPE   C3A52327   5.670  17.700  12.330
 2539DPPE   C4A52328   5.870  17.340  12.080
 2539DPPE   C1B52329   5.590  18.350  12.810
 2539DPPE   C2B52330   5.250  18.460  12.580
 2539DPPE   C3B52331   5.360  18.800  12.400
 2539DPPE   C4B52332   5.570  18.860  12.080
 2540DPPE   NH352333  14.130  14.350  22.680
 2540DPPE   PO452334  14.460  14.000  22.650
 2540DPPE   GL152335  14.630  14.190  22.330
 2540DPPE   GL252336  14.420  14.510  22.260
 2540DPPE   C1A52337  14.940  14.370  22.180
 2540DPPE   C2A52338  15.320  14.510  22.110
 2540DPPE   C3A52339  15.580  14.730  21.730
 2540DPPE   C4A52340  16.020  14.820  21.700
 2540DPPE   C1B52341  14.590  14.530  21.780
 2540DPPE   C2B52342  14.670  14.390  21.350
 2540DPPE   C3B52343  14.660  14.530  20.830
 2540DPPE   C4B52344  14.780  14.830  20.550
 2541DPPE   NH352345   5.180  16.890  16.120
 2541DPPE   PO452346   5.260  17.170  16.340
 2541DPPE   GL152347   4.800  17.120  16.500
 2541DPPE   GL252348   4.750  17.470  16.620
 2541DPPE   C1A52349   4.490  16.840  16.480
 2541DPPE   C2A52350   4.000  16.760  16.510
 2541DPPE   C3A52351   3.580  16.580  16.540
 2541DPPE   C4A52352   3.220  16.580  16.750
 2541DPPE   C1B52353   4.330  17.230  16.760
 2541DPPE   C2B52354   3.890  17.220  16.890
 2541DPPE   C3B52355   3.520  17.170  16.730
 2541DPPE   C4B52356   3.210  17.070  16.830
 2542DPPE   NH352357  13.250  21.100  22.290
 2542DPPE   PO452358  13.530  21.400  22.300
 2542DPPE   GL152359  13.830  21.570  22.080
 2542DPPE   GL252360  14.200  21.650  22.320
 2542DPPE   C1A52361  14.070  22.020  22.010
 2542DPPE   C2A52362  14.380  22.330  22.090
 2542DPPE   C3A52363  14.420  22.650  22.050
 2542DPPE   C4A52364  14.720  22.960  21.870
 2542DPPE   C1B52365  14.630  21.840  22.170
 2542DPPE   C2B52366  14.970  22.060  21.980
 2542DPPE   C3B52367  15.420  21.950  22.090
 2542DPPE   C4B52368  15.380  21.690  22.390
 2543DPPE   NH352369   7.830   9.940  13.570
 2543DPPE   PO452370   7.700   9.510  13.470
 2543DPPE   GL152371   7.760   9.620  13.170
 2543DPPE   GL252372   7.910   9.780  13.020
 2543DPPE   C1A52373   7.600   9.550  12.770
 2543DPPE   C2A52374   7.590   9.750  12.360
 2543DPPE   C3A52375   7.510   9.840  12.000
 2543DPPE   C4A52376   7.290   9.700  11.680
 2543DPPE   C1B52377   7.970   9.920  12.710
 2543DPPE   C2B52378   8.120   9.890  12.360
 2543DPPE   C3B52379   8.120   9.900  11.890
 2543DPPE   C4B52380   8.210  10.090  11.540
 2544DPPE   NH352381   4.640  16.030  13.520
 2544DPPE   PO452382   4.880  16.460  13.730
 2544DPPE   GL152383   4.770  16.470  13.310
 2544DPPE   GL252384   5.010  16.660  13.090
 2544DPPE   C1A52385   4.460  16.350  13.060
 2544DPPE   C2A52386   4.080  16.220  13.020
 2544DPPE   C3A52387   3.770  16.050  13.000
 2544DPPE   C4A52388   3.310  16.190  13.220
 2544DPPE   C1B52389   4.850  16.380  12.770
 2544DPPE   C2B52390   4.950  16.190  12.320
 2544DPPE   C3B52391   4.840  15.850  11.920
 2544DPPE   C4B52392   4.470  15.760  11.710
 2545DPPE   NH352393   6.840  11.850  13.080
 2545DPPE   PO452394   6.460  12.050  13.130
 2545DPPE   GL152395   6.420  11.920  12.770
 2545DPPE   GL252396   6.760  12.060  12.600
 2545DPPE   C1A52397   6.420  11.670  12.430
 2545DPPE   C2A52398   6.540  11.460  12.060
 2545DPPE   C3A52399   6.530  11.590  11.710
 2545DPPE   C4A52400   6.640  12.070  11.460
 2545DPPE   C1B52401   7.120  12.110  12.470
 2545DPPE   C2B52402   7.440  12.440  12.370
 2545DPPE   C3B52403   7.690  12.790  12.330
 2545DPPE   C4B52404   8.060  12.810  12.390
 2546DPPE   NH352405   7.140  15.000  17.460
 2546DPPE   PO452406   7.150  15.240  17.840
 2546DPPE   GL152407   7.440  15.430  17.590
 2546DPPE   GL252408   7.720  15.250  17.730
 2546DPPE   C1A52409   7.690  15.690  17.300
 2546DPPE   C2A52410   8.160  15.730  17.200
 2546DPPE   C3A52411   8.370  15.990  16.840
 2546DPPE   C4A52412   8.720  16.240  16.900
 2546DPPE   C1B52413   8.190  15.350  17.610
 2546DPPE   C2B52414   8.540  15.390  17.330
 2546DPPE   C3B52415   8.910  15.520  17.090
 2546DPPE   C4B52416   9.300  15.620  16.950
 2547DPPE   NH352417  13.160  21.500  21.940
 2547DPPE   PO452418  13.380  21.870  22.220
 2547DPPE   GL152419  13.590  22.240  22.170
 2547DPPE   GL252420  13.330  22.400  22.040
 2547DPPE   C1A52421  13.860  22.450  21.950
 2547DPPE   C2A52422  14.170  22.660  21.640
 2547DPPE   C3A52423  14.300  23.020  21.300
 2547DPPE   C4A52424  14.400  23.320  21.100
 2547DPPE   C1B52425  13.370  22.820  22.140
 2547DPPE   C2B52426  13.580  22.980  22.470
 2547DPPE   C3B52427  13.580  23.150  22.930
 2547DPPE   C4B52428  13.840  23.430  22.640
 2548DPPE   NH352429   6.310  13.960  17.030
 2548DPPE   PO452430   6.020  14.120  16.750
 2548DPPE   GL152431   5.650  13.860  16.920
 2548DPPE   GL252432   5.360  14.100  17.120
 2548DPPE   C1A52433   5.240  13.680  16.980
 2548DPPE   C2A52434   5.110  13.160  16.820
 2548DPPE   C3A52435   4.810  12.870  16.930
 2548DPPE   C4A52436   4.630  12.510  16.850
 2548DPPE   C1B52437   5.010  14.060  17.320
 2548DPPE   C2B52438   4.830  13.660  17.250
 2548DPPE   C3B52439   4.560  13.380  17.110
 2548DPPE   C4B52440   4.520  13.020  17.300
 2549DPPE   NH352441   7.650  10.830  13.550
 2549DPPE   PO452442   7.860  10.420  13.510
 2549DPPE   GL152443   7.730  10.330  13.140
 2549DPPE   GL252444   7.510  10.060  13.180
 2549DPPE   C1A52445   7.860  10.510  12.770
 2549DPPE   C2A52446   7.740  10.270  12.350
 2549DPPE   C3A52447   7.710  10.260  11.910
 2549DPPE   C4A52448   7.560  10.630  11.620
 2549DPPE   C1B52449   7.500  10.120  12.780
 2549DPPE   C2B52450   7.260  10.280  12.400
 2549DPPE   C3B52451   7.240  10.470  11.960
 2549DPPE   C4B52452   7.300  10.220  11.570
 2550DPPE   NH352453   5.330  20.980  15.360
 2550DPPE   PO452454   5.070  20.700  15.090
 2550DPPE   GL152455   4.920  20.940  14.730
 2550DPPE   GL252456   4.920  20.820  14.440
 2550DPPE   C1A52457   4.950  21.350  14.430
 2550DPPE   C2A52458   5.260  21.520  14.080
 2550DPPE   C3A52459   5.620  21.690  14.150
 2550DPPE   C4A52460   5.940  21.790  13.910
 2550DPPE   C1B52461   5.130  21.000  14.090
 2550DPPE   C2B52462   4.960  20.990  13.600
 2550DPPE   C3B52463   4.750  20.770  13.190
 2550DPPE   C4B52464   4.610  20.740  12.710
 2551DPPE   NH352465  11.000  21.750  21.200
 2551DPPE   PO452466  11.430  21.870  21.340
 2551DPPE   GL152467  11.480  21.810  20.880
 2551DPPE   GL252468  11.170  21.620  20.730
 2551DPPE   C1A52469  11.800  21.560  20.640
 2551DPPE   C2A52470  11.960  21.490  20.220
 2551DPPE   C3A52471  12.300  21.330  20.130
 2551DPPE   C4A52472  12.660  21.380  20.010
 2551DPPE   C1B52473  11.310  21.840  20.400
 2551DPPE   C2B52474  11.540  21.800  20.020
 2551DPPE   C3B52475  11.990  21.910  19.890
 2551DPPE   C4B52476  12.420  21.880  20.000
 2552DPPE   NH352477  10.920   9.060  17.190
 2552DPPE   PO452478  11.160   9.180  16.800
 2552DPPE   GL152479  11.420   9.000  16.600
 2552DPPE   GL252480  11.630   9.200  16.780
 2552DPPE   C1A52481  11.420   8.910  16.150
 2552DPPE   C2A52482  11.410   8.830  15.820
 2552DPPE   C3A52483  11.270   9.030  15.440
 2552DPPE   C4A52484  11.190   8.990  15.040
 2552DPPE   C1B52485  11.790   9.220  16.320
 2552DPPE   C2B52486  11.880   8.990  15.900
 2552DPPE   C3B52487  12.220   8.840  15.730
 2552DPPE   C4B52488  12.640   8.760  15.390
 2553DPPE   NH352489   9.920  22.230  20.360
 2553DPPE   PO452490  10.430  22.300  20.510
 2553DPPE   GL152491  10.730  22.000  20.290
 2553DPPE   GL252492  11.010  22.050  20.030
 2553DPPE   C1A52493  10.890  21.510  20.250
 2553DPPE   C2A52494  10.900  21.150  19.960
 2553DPPE   C3A52495  11.150  21.160  19.550
 2553DPPE   C4A52496  11.140  21.040  19.090
 2553DPPE   C1B52497  11.180  22.350  19.660
 2553DPPE   C2B52498  11.310  22.760  19.480
 2553DPPE   C3B52499  11.320  23.050  19.100
 2553DPPE   C4B52500  11.600  23.100  18.860
 2554DPPE   NH352501   9.490  21.220  21.910
 2554DPPE   PO452502   9.920  21.210  21.930
 2554DPPE   GL152503   9.830  21.060  22.330
 2554DPPE   GL252504   9.510  21.180  22.410
 2554DPPE   C1A52505   9.910  21.030  22.740
 2554DPPE   C2A52506   9.800  21.380  23.060
 2554DPPE   C3A52507   9.770  21.710  23.300
 2554DPPE   C4A52508   9.960  22.000  23.630
 2554DPPE   C1B52509   9.380  21.450  22.750
 2554DPPE   C2B52510   9.320  21.680  23.120
 2554DPPE   C3B52511   9.380  21.900  23.590
 2554DPPE   C4B52512   9.420  22.320  23.790
 2555DPPE   NH352513   6.440  14.740  15.000
 2555DPPE   PO452514   6.310  14.790  14.540
 2555DPPE   GL152515   6.650  14.890  14.370
 2555DPPE   GL252516   6.880  14.880  14.600
 2555DPPE   C1A52517   6.930  14.740  14.040
 2555DPPE   C2A52518   7.120  14.730  13.670
 2555DPPE   C3A52519   7.230  14.970  13.420
 2555DPPE   C4A52520   7.610  14.820  13.440
 2555DPPE   C1B52521   7.310  14.660  14.340
 2555DPPE   C2B52522   7.680  14.350  14.310
 2555DPPE   C3B52523   8.170  14.430  14.330
 2555DPPE   C4B52524   8.570  14.730  14.260
 2556DPPE   NH352525   8.850  18.020  21.510
 2556DPPE   PO452526   8.450  17.960  21.600
 2556DPPE   GL152527   8.180  18.170  21.810
 2556DPPE   GL252528   8.030  18.410  21.830
 2556DPPE   C1A52529   8.310  18.270  22.270
 2556DPPE   C2A52530   8.180  17.910  22.560
 2556DPPE   C3A52531   7.810  17.830  22.860
 2556DPPE   C4A52532   7.460  17.520  23.030
 2556DPPE   C1B52533   7.790  18.480  22.250
 2556DPPE   C2B52534   7.470  18.420  22.530
 2556DPPE   C3B52535   7.270  18.310  23.000
 2556DPPE   C4B52536   6.900  18.520  23.140
 2557DPPE   NH352537   7.370  10.860  16.740
 2557DPPE   PO452538   7.170  11.230  17.030
 2557DPPE   GL152539   6.990  11.080  17.380
 2557DPPE   GL252540   7.200  11.210  17.550
 2557DPPE   C1A52541   6.690  10.840  17.610
 2557DPPE   C2A52542   6.280  10.640  17.770
 2557DPPE   C3A52543   5.950  10.170  17.750
 2557DPPE   C4A52544   6.010   9.900  18.010
 2557DPPE   C1B52545   6.780  11.310  17.750
 2557DPPE   C2B52546   6.310  11.250  17.760
 2557DPPE   C3B52547   5.790  11.320  17.740
 2557DPPE   C4B52548   5.400  11.150  17.550
 2558DPPE   NH352549   6.120  12.270  12.890
 2558DPPE   PO452550   5.920  12.340  13.310
 2558DPPE   GL152551   5.530  12.440  13.130
 2558DPPE   GL252552   5.520  12.370  12.760
 2558DPPE   C1A52553   5.120  12.370  13.050
 2558DPPE   C2A52554   4.810  12.150  12.860
 2558DPPE   C3A52555   4.410  12.390  12.610
 2558DPPE   C4A52556   4.110  12.690  12.610
 2558DPPE   C1B52557   5.560  12.460  12.350
 2558DPPE   C2B52558   5.840  12.360  12.010
 2558DPPE   C3B52559   5.990  12.040  11.710
 2558DPPE   C4B52560   6.180  11.800  11.420
 2559DPPE   NH352561  15.180  15.460  23.170
 2559DPPE   PO452562  15.500  15.500  23.550
 2559DPPE   GL152563  15.790  15.850  23.500
 2559DPPE   GL252564  16.100  15.630  23.540
 2559DPPE   C1A52565  16.010  16.090  23.240
 2559DPPE   C2A52566  16.310  16.480  23.370
 2559DPPE   C3A52567  16.500  16.830  23.230
 2559DPPE   C4A52568  16.670  17.190  23.310
 2559DPPE   C1B52569  16.500  15.510  23.730
 2559DPPE   C2B52570  16.950  15.620  23.540
 2559DPPE   C3B52571  17.130  15.870  23.270
 2559DPPE   C4B52572  16.940  15.970  22.930
 2560DPPE   NH352573   9.440  15.060  20.010
 2560DPPE   PO452574   9.640  14.570  20.010
 2560DPPE   GL152575   9.920  14.760  19.820
 2560DPPE   GL252576   9.910  15.130  19.860
 2560DPPE   C1A52577  10.030  14.990  19.410
 2560DPPE   C2A52578  10.200  15.310  19.360
 2560DPPE   C3A52579  10.150  15.700  19.050
 2560DPPE   C4A52580  10.390  16.030  19.090
 2560DPPE   C1B52581  10.410  15.180  19.770
 2560DPPE   C2B52582  10.750  15.260  19.630
 2560DPPE   C3B52583  10.960  15.340  19.270
 2560DPPE   C4B52584  11.450  15.420  19.260
 2561DPPE   NH352585  10.680   8.270  17.280
 2561DPPE   PO452586  10.500   8.140  17.010
 2561DPPE   GL152587  10.320   7.760  16.790
 2561DPPE   GL252588   9.960   7.820  16.650
 2561DPPE   C1A52589  10.670   7.600  16.540
 2561DPPE   C2A52590  10.730   7.620  16.140
 2561DPPE   C3A52591  11.120   7.610  15.830
 2561DPPE   C4A52592  11.230   7.410  15.440
 2561DPPE   C1B52593   9.800   7.480  16.550
 2561DPPE   C2B52594   9.400   7.320  16.640
 2561DPPE   C3B52595   9.180   6.950  16.550
 2561DPPE   C4B52596   9.320   6.510  16.330
 2562DPPE   NH352597  12.220  11.540  21.720
 2562DPPE   PO452598  11.970  11.240  21.680
 2562DPPE   GL152599  11.590  11.080  21.840
 2562DPPE   GL252600  11.480  10.830  21.610
 2562DPPE   C1A52601  11.170  10.940  22.000
 2562DPPE   C2A52602  10.880  10.770  22.390
 2562DPPE   C3A52603  10.580  10.680  22.700
 2562DPPE   C4A52604  10.610  10.370  23.080
 2562DPPE   C1B52605  11.440  10.530  21.960
 2562DPPE   C2B52606  11.240  10.290  22.270
 2562DPPE   C3B52607  10.910  10.220  22.700
 2562DPPE   C4B52608  10.400  10.160  22.630
 2563DPPE   NH352609   5.340  15.090  14.690
 2563DPPE   PO452610   5.070  15.070  14.920
 2563DPPE   GL152611   4.700  15.110  15.150
 2563DPPE   GL252612   4.650  14.960  15.470
 2563DPPE   C1A52613   4.210  14.890  15.210
 2563DPPE   C2A52614   4.050  14.480  15.190
 2563DPPE   C3A52615   3.700  14.180  15.170
 2563DPPE   C4A52616   3.410  13.840  15.140
 2563DPPE   C1B52617   4.320  14.890  15.740
 2563DPPE   C2B52618   3.870  14.750  15.740
 2563DPPE   C3B52619   3.560  14.590  15.520
 2563DPPE   C4B52620   3.330  14.510  15.210
 2564DPPE   NH352621  13.700  17.400  24.440
 2564DPPE   PO452622  14.080  17.160  24.570
 2564DPPE   GL152623  14.260  17.310  24.890
 2564DPPE   GL252624  14.470  17.470  24.920
 2564DPPE   C1A52625  14.350  17.230  25.340
 2564DPPE   C2A52626  14.400  17.300  25.900
 2564DPPE   C3A52627  14.090  17.550  26.120
 2564DPPE   C4A52628  13.980  17.980  25.980
 2564DPPE   C1B52629  14.730  17.610  25.230
 2564DPPE   C2B52630  15.040  17.460  25.490
 2564DPPE   C3B52631  15.570  17.540  25.560
 2564DPPE   C4B52632  15.970  17.450  25.630
 2565DPPE   NH352633   9.580  12.630  20.220
 2565DPPE   PO452634   9.290  12.380  19.960
 2565DPPE   GL152635   9.020  12.030  20.150
 2565DPPE   GL252636   8.940  11.800  20.000
 2565DPPE   C1A52637   8.820  11.940  20.460
 2565DPPE   C2A52638   8.490  11.810  20.600
 2565DPPE   C3A52639   8.470  11.410  20.870
 2565DPPE   C4A52640   8.620  10.980  21.160
 2565DPPE   C1B52641   8.760  11.510  20.210
 2565DPPE   C2B52642   8.410  11.340  20.350
 2565DPPE   C3B52643   8.130  11.050  20.450
 2565DPPE   C4B52644   8.080  10.660  20.660
 2566DPPE   NH352645   6.580  22.030  17.860
 2566DPPE   PO452646   6.840  22.180  18.090
 2566DPPE   GL152647   6.670  22.630  18.140
 2566DPPE   GL252648   6.440  22.530  17.910
 2566DPPE   C1A52649   6.430  23.020  18.110
 2566DPPE   C2A52650   6.140  23.230  18.350
 2566DPPE   C3A52651   6.230  23.450  18.810
 2566DPPE   C4A52652   6.500  23.620  19.060
 2566DPPE   C1B52653   6.050  22.610  17.720
 2566DPPE   C2B52654   5.670  22.850  17.650
 2566DPPE   C3B52655   5.330  22.770  17.340
 2566DPPE   C4B52656   5.240  22.950  16.890
 2567DPPE   NH352657   6.880  14.730  16.150
 2567DPPE   PO452658   7.130  14.640  16.460
 2567DPPE   GL152659   7.500  14.380  16.380
 2567DPPE   GL252660   7.760  14.140  16.520
 2567DPPE   C1A52661   7.900  14.610  16.200
 2567DPPE   C2A52662   8.300  14.650  16.290
 2567DPPE   C3A52663   8.760  14.770  16.120
 2567DPPE   C4A52664   9.180  14.920  16.090
 2567DPPE   C1B52665   8.250  14.170  16.460
 2567DPPE   C2B52666   8.680  14.370  16.480
 2567DPPE   C3B52667   9.100  14.420  16.330
 2567DPPE   C4B52668   9.440  14.660  16.430
 2568DPPE   NH352669   9.130  22.830  19.960
 2568DPPE   PO452670   8.790  22.830  20.260
 2568DPPE   GL152671   8.570  23.140  20.570
 2568DPPE   GL252672   8.670  23.460  20.590
 2568DPPE   C1A52673   8.150  23.280  20.830
 2568DPPE   C2A52674   7.900  23.070  21.070
 2568DPPE   C3A52675   7.730  22.690  21.290
 2568DPPE   C4A52676   7.630  22.290  21.200
 2568DPPE   C1B52677   8.870  23.810  20.670
 2568DPPE   C2B52678   8.930  24.240  20.700
 2568DPPE   C3B52679   9.040  24.680  20.410
 2568DPPE   C4B52680   8.980  25.100  20.480
 2569DPPE   NH352681  10.540   9.730  16.790
 2569DPPE   PO452682  10.650   9.490  17.100
 2569DPPE   GL152683  11.020   9.670  16.890
 2569DPPE   GL252684  11.380   9.620  16.740
 2569DPPE   C1A52685  11.010   9.870  16.380
 2569DPPE   C2A52686  11.000  10.290  16.090
 2569DPPE   C3A52687  11.270  10.660  16.080
 2569DPPE   C4A52688  11.480  11.010  15.890
 2569DPPE   C1B52689  11.580   9.800  16.350
 2569DPPE   C2B52690  11.900   9.760  15.960
 2569DPPE   C3B52691  12.170   9.510  15.610
 2569DPPE   C4B52692  12.200   9.540  15.170
 2570DPPE   NH352693   5.850  20.550  17.750
 2570DPPE   PO452694   5.850  20.750  18.100
 2570DPPE   GL152695   5.390  20.590  18.230
 2570DPPE   GL252696   5.300  20.700  17.960
 2570DPPE   C1A52697   4.960  20.500  18.280
 2570DPPE   C2A52698   4.500  20.230  18.380
 2570DPPE   C3A52699   4.170  20.180  18.600
 2570DPPE   C4A52700   3.970  20.300  18.970
 2570DPPE   C1B52701   4.880  20.980  18.130
 2570DPPE   C2B52702   4.510  21.060  18.040
 2570DPPE   C3B52703   4.190  21.380  17.780
 2570DPPE   C4B52704   3.990  21.670  17.610
 2571DPPE   NH352705  10.030  15.940  22.830
 2571DPPE   PO452706  10.400  15.780  22.960
 2571DPPE   GL152707  10.080  15.590  23.230
 2571DPPE   GL252708  10.400  15.800  23.460
 2571DPPE   C1A52709   9.870  15.540  23.510
 2571DPPE   C2A52710   9.400  15.590  23.650
 2571DPPE   C3A52711   9.080  15.480  23.920
 2571DPPE   C4A52712   8.700  15.480  24.240
 2571DPPE   C1B52713  10.440  15.620  23.820
 2571DPPE   C2B52714  10.430  15.300  24.170
 2571DPPE   C3B52715  10.440  15.050  24.510
 2571DPPE   C4B52716  10.390  14.880  24.890
 2572DPPE   NH352717   7.830   9.880  14.210
 2572DPPE   PO452718   7.500   9.760  13.920
 2572DPPE   GL152719   7.330   9.770  13.520
 2572DPPE   GL252720   7.210   9.480  13.470
 2572DPPE   C1A52721   7.190   9.730  13.040
 2572DPPE   C2A52722   7.160   9.790  12.660
 2572DPPE   C3A52723   7.010   9.710  12.220
 2572DPPE   C4A52724   7.040  10.010  11.970
 2572DPPE   C1B52725   7.350   9.160  13.120
 2572DPPE   C2B52726   7.610   9.040  12.740
 2572DPPE   C3B52727   8.010   8.910  12.500
 2572DPPE   C4B52728   8.430   9.200  12.350
 2573DPPE   NH352729   6.790  15.180  19.010
 2573DPPE   PO452730   7.040  14.710  19.020
 2573DPPE   GL152731   6.840  14.360  19.160
 2573DPPE   GL252732   6.820  14.090  18.890
 2573DPPE   C1A52733   6.510  14.120  19.400
 2573DPPE   C2A52734   6.320  13.940  19.670
 2573DPPE   C3A52735   5.920  13.800  19.720
 2573DPPE   C4A52736   5.490  13.710  19.800
 2573DPPE   C1B52737   6.430  13.790  18.990
 2573DPPE   C2B52738   6.010  13.550  19.250
 2573DPPE   C3B52739   5.660  13.260  19.170
 2573DPPE   C4B52740   5.440  13.230  19.480
 2574DPPE   NH352741   6.870  20.810  16.170
 2574DPPE   PO452742   6.890  20.790  16.590
 2574DPPE   GL152743   7.270  20.700  16.510
 2574DPPE   GL252744   7.500  20.890  16.680
 2574DPPE   C1A52745   7.670  20.790  16.150
 2574DPPE   C2A52746   7.950  20.530  15.800
 2574DPPE   C3A52747   8.380  20.340  15.750
 2574DPPE   C4A52748   8.450  20.060  16.080
 2574DPPE   C1B52749   7.830  21.160  16.470
 2574DPPE   C2B52750   8.050  21.300  16.160
 2574DPPE   C3B52751   8.500  21.260  16.140
 2574DPPE   C4B52752   8.900  21.140  16.050
 2575DPPE   NH352753  12.180   7.820  18.040
 2575DPPE   PO452754  11.990   7.610  17.660
 2575DPPE   GL152755  11.590   7.350  17.620
 2575DPPE   GL252756  11.350   7.610  17.770
 2575DPPE   C1A52757  11.250   7.090  17.620
 2575DPPE   C2A52758  11.190   6.760  17.830
 2575DPPE   C3A52759  10.860   6.680  18.180
 2575DPPE   C4A52760  11.010   6.520  18.570
 2575DPPE   C1B52761  11.240   7.370  18.050
 2575DPPE   C2B52762  11.250   7.110  18.300
 2575DPPE   C3B52763  11.060   6.980  18.630
 2575DPPE   C4B52764  11.240   6.700  18.960
 2576DPPE   NH352765   5.270  16.450  15.830
 2576DPPE   PO452766   5.540  16.400  16.160
 2576DPPE   GL152767   5.080  16.420  16.370
 2576DPPE   GL252768   4.830  16.440  16.160
 2576DPPE   C1A52769   4.870  16.570  16.660
 2576DPPE   C2A52770   4.480  16.380  16.930
 2576DPPE   C3A52771   4.120  16.290  16.960
 2576DPPE   C4A52772   3.700  16.300  16.910
 2576DPPE   C1B52773   4.360  16.420  16.440
 2576DPPE   C2B52774   3.980  16.180  16.400
 2576DPPE   C3B52775   3.600  16.070  16.460
 2576DPPE   C4B52776   3.190  16.110  16.420
 2577DPPE   NH352777   5.950  16.450  13.910
 2577DPPE   PO452778   6.180  16.160  14.200
 2577DPPE   GL152779   6.380  16.030  13.740
 2577DPPE   GL252780   6.100  16.120  13.530
 2577DPPE   C1A52781   6.650  15.770  13.770
 2577DPPE   C2A52782   7.130  15.640  13.900
 2577DPPE   C3A52783   7.410  15.530  14.240
 2577DPPE   C4A52784   7.860  15.550  14.360
 2577DPPE   C1B52785   6.270  16.470  13.300
 2577DPPE   C2B52786   6.530  16.440  12.960
 2577DPPE   C3B52787   6.880  16.600  12.770
 2577DPPE   C4B52788   7.310  16.430  12.910
 2578DPPE   NH352789   7.490  16.260  18.930
 2578DPPE   PO452790   7.370  16.450  18.580
 2578DPPE   GL152791   7.770  16.230  18.540
 2578DPPE   GL252792   7.770  15.900  18.410
 2578DPPE   C1A52793   8.310  16.210  18.570
 2578DPPE   C2A52794   8.750  16.140  18.430
 2578DPPE   C3A52795   9.260  16.110  18.420
 2578DPPE   C4A52796   9.610  15.950  18.230
 2578DPPE   C1B52797   8.170  15.750  18.420
 2578DPPE   C2B52798   8.570  15.770  18.140
 2578DPPE   C3B52799   8.860  15.830  17.780
 2578DPPE   C4B52800   9.370  15.910  17.800
 2579DPPE   NH352801   5.780  21.430  16.090
 2579DPPE   PO452802   5.270  21.360  16.120
 2579DPPE   GL152803   4.860  21.340  16.020
 2579DPPE   GL252804   4.940  21.680  15.870
 2579DPPE   C1A52805   4.490  21.350  15.800
 2579DPPE   C2A52806   4.350  21.230  15.470
 2579DPPE   C3A52807   4.460  21.420  15.100
 2579DPPE   C4A52808   4.820  21.410  14.920
 2579DPPE   C1B52809   4.560  21.940  15.760
 2579DPPE   C2B52810   4.240  22.150  16.010
 2579DPPE   C3B52811   4.070  22.200  16.430
 2579DPPE   C4B52812   4.100  21.800  16.680
 2580DPPE   NH352813  12.790  21.360  23.380
 2580DPPE   PO452814  12.960  21.730  23.490
 2580DPPE   GL152815  12.880  22.210  23.520
 2580DPPE   GL252816  13.060  22.430  23.680
 2580DPPE   C1A52817  12.550  22.660  23.450
 2580DPPE   C2A52818  12.610  23.100  23.390
 2580DPPE   C3A52819  12.430  23.350  23.060
 2580DPPE   C4A52820  12.130  23.730  23.130
 2580DPPE   C1B52821  12.920  22.840  23.750
 2580DPPE   C2B52822  12.880  23.350  23.750
 2580DPPE   C3B52823  12.820  23.630  23.470
 2580DPPE   C4B52824  12.910  23.420  23.060
 2581DPPE   NH352825  10.590   9.200  17.580
 2581DPPE   PO452826  10.070   9.100  17.570
 2581DPPE   GL152827   9.960   8.950  18.010
 2581DPPE   GL252828   9.870   9.140  18.180
 2581DPPE   C1A52829   9.810   8.670  18.370
 2581DPPE   C2A52830   9.420   8.390  18.540
 2581DPPE   C3A52831   9.400   8.200  18.860
 2581DPPE   C4A52832   9.260   7.800  18.900
 2581DPPE   C1B52833   9.710   9.100  18.630
 2581DPPE   C2B52834   9.580   8.950  18.890
 2581DPPE   C3B52835   9.360   8.710  19.110
 2581DPPE   C4B52836   9.170   8.270  19.280
 2582DPPE   NH352837  13.070   7.910  18.000
 2582DPPE   PO452838  13.070   8.220  18.220
 2582DPPE   GL152839  13.470   8.430  18.170
 2582DPPE   GL252840  13.570   8.080  18.000
 2582DPPE   C1A52841  13.810   8.540  17.970
 2582DPPE   C2A52842  14.210   8.640  17.800
 2582DPPE   C3A52843  14.620   8.550  17.420
 2582DPPE   C4A52844  14.930   8.220  17.240
 2582DPPE   C1B52845  13.630   7.680  17.810
 2582DPPE   C2B52846  13.620   7.700  17.360
 2582DPPE   C3B52847  13.520   7.590  16.930
 2582DPPE   C4B52848  13.700   7.610  16.500
 2583DPPE   NH352849   5.740  16.310  14.360
 2583DPPE   PO452850   5.770  16.810  14.270
 2583DPPE   GL152851   6.040  16.940  13.920
 2583DPPE   GL252852   6.280  17.110  14.140
 2583DPPE   C1A52853   6.330  16.960  13.520
 2583DPPE   C2A52854   6.700  16.720  13.310
 2583DPPE   C3A52855   7.100  16.550  13.360
 2583DPPE   C4A52856   7.510  16.360  13.470
 2583DPPE   C1B52857   6.540  17.230  13.870
 2583DPPE   C2B52858   7.060  17.320  13.890
 2583DPPE   C3B52859   7.260  17.050  13.570
 2583DPPE   C4B52860   7.390  17.010  13.170
 2584DPPE   NH352861   7.340  14.990  19.570
 2584DPPE   PO452862   6.960  15.220  19.520
 2584DPPE   GL152863   6.700  14.960  19.450
 2584DPPE   GL252864   6.520  15.130  19.740
 2584DPPE   C1A52865   6.530  14.620  19.540
 2584DPPE   C2A52866   6.260  14.470  19.860
 2584DPPE   C3A52867   5.960  14.160  20.120
 2584DPPE   C4A52868   5.690  14.040  20.500
 2584DPPE   C1B52869   6.120  15.260  20.000
 2584DPPE   C2B52870   5.890  15.310  20.450
 2584DPPE   C3B52871   5.480  15.370  20.530
 2584DPPE   C4B52872   5.060  15.520  20.380
 2585DPPE   NH352873  10.030  10.330  19.090
 2585DPPE   PO452874  10.260  10.660  19.340
 2585DPPE   GL152875   9.960  10.420  19.620
 2585DPPE   GL252876  10.200  10.360  19.880
 2585DPPE   C1A52877   9.820  10.010  19.840
 2585DPPE   C2A52878   9.530   9.740  20.200
 2585DPPE   C3A52879   9.480   9.400  20.450
 2585DPPE   C4A52880   9.120   9.300  20.710
 2585DPPE   C1B52881  10.150  10.020  20.260
 2585DPPE   C2B52882   9.880   9.790  20.630
 2585DPPE   C3B52883   9.520   9.670  20.850
 2585DPPE   C4B52884   9.120   9.650  21.100
 2586DPPE   NH352885   6.260  17.490  19.210
 2586DPPE   PO452886   6.560  17.750  19.540
 2586DPPE   GL152887   6.530  17.510  19.930
 2586DPPE   GL252888   6.480  17.850  20.110
 2586DPPE   C1A52889   6.210  17.490  20.190
 2586DPPE   C2A52890   6.020  17.220  20.400
 2586DPPE   C3A52891   5.760  17.050  20.530
 2586DPPE   C4A52892   5.430  16.800  20.690
 2586DPPE   C1B52893   6.260  17.970  20.380
 2586DPPE   C2B52894   5.940  17.920  20.720
 2586DPPE   C3B52895   5.550  17.770  20.850
 2586DPPE   C4B52896   5.220  17.700  21.140
 2587DPPE   NH352897  11.830  20.310  23.330
 2587DPPE   PO452898  11.840  20.650  23.190
 2587DPPE   GL152899  11.900  20.690  23.750
 2587DPPE   GL252900  11.960  20.400  24.040
 2587DPPE   C1A52901  12.080  20.870  24.120
 2587DPPE   C2A52902  12.030  21.210  24.490
 2587DPPE   C3A52903  11.960  21.480  24.960
 2587DPPE   C4A52904  12.190  21.320  25.360
 2587DPPE   C1B52905  11.930  20.280  24.380
 2587DPPE   C2B52906  11.790  20.440  24.810
 2587DPPE   C3B52907  11.810  20.460  25.280
 2587DPPE   C4B52908  11.820  20.590  25.730
 2588DPPE   NH352909   5.400  21.280  16.600
 2588DPPE   PO452910   5.630  21.610  16.600
 2588DPPE   GL152911   5.350  21.820  16.300
 2588DPPE   GL252912   5.040  21.770  16.360
 2588DPPE   C1A52913   5.360  22.040  15.870
 2588DPPE   C2A52914   5.030  22.110  15.610
 2588DPPE   C3A52915   4.750  22.290  15.350
 2588DPPE   C4A52916   4.540  22.300  14.980
 2588DPPE   C1B52917   4.930  22.110  16.090
 2588DPPE   C2B52918   4.680  22.390  15.980
 2588DPPE   C3B52919   4.360  22.580  16.240
 2588DPPE   C4B52920   4.030  22.810  16.540
 2589DPPE   NH352921  15.630  12.580  22.180
 2589DPPE   PO452922  15.330  12.220  22.070
 2589DPPE   GL152923  15.620  12.300  21.740
 2589DPPE   GL252924  16.000  12.350  21.850
 2589DPPE   C1A52925  15.750  12.570  21.400
 2589DPPE   C2A52926  15.760  12.960  21.330
 2589DPPE   C3A52927  15.800  13.400  21.250
 2589DPPE   C4A52928  16.150  13.620  21.030
 2589DPPE   C1B52929  16.250  12.510  21.580
 2589DPPE   C2B52930  16.610  12.700  21.290
 2589DPPE   C3B52931  16.700  13.050  21.000
 2589DPPE   C4B52932  16.550  13.340  20.550
 2590DPPE   NH352933   7.430  19.970  19.690
 2590DPPE   PO452934   7.590  19.860  20.040
 2590DPPE   GL152935   7.510  19.800  20.510
 2590DPPE   GL252936   7.260  20.010  20.490
 2590DPPE   C1A52937   7.410  19.650  21.030
 2590DPPE   C2A52938   7.220  19.430  21.330
 2590DPPE   C3A52939   6.890  19.270  21.640
 2590DPPE   C4A52940   6.630  19.250  21.930
 2590DPPE   C1B52941   6.990  19.910  20.820
 2590DPPE   C2B52942   6.730  20.040  21.220
 2590DPPE   C3B52943   6.570  20.200  21.560
 2590DPPE   C4B52944   6.320  20.140  21.970
 2591DPPE   NH352945   5.330  13.550  14.190
 2591DPPE   PO452946   5.520  13.150  14.180
 2591DPPE   GL152947   5.180  12.950  14.320
 2591DPPE   GL252948   4.980  13.120  14.150
 2591DPPE   C1A52949   4.780  12.780  14.490
 2591DPPE   C2A52950   4.430  12.630  14.390
 2591DPPE   C3A52951   4.150  12.500  14.550
 2591DPPE   C4A52952   4.050  12.030  14.410
 2591DPPE   C1B52953   4.550  13.140  14.070
 2591DPPE   C2B52954   4.210  13.260  14.070
 2591DPPE   C3B52955   3.760  13.170  14.110
 2591DPPE   C4B52956   3.370  12.880  14.160
 2592DPPE   NH352957  13.060   8.830  19.310
 2592DPPE   PO452958  13.060   8.320  19.130
 2592DPPE   GL152959  13.200   7.950  19.350
 2592DPPE   GL252960  13.330   7.990  19.690
 2592DPPE   C1A52961  13.620   7.710  19.410
 2592DPPE   C2A52962  14.030   7.730  19.650
 2592DPPE   C3A52963  14.470   7.610  19.630
 2592DPPE   C4A52964  14.810   7.370  19.780
 2592DPPE   C1B52965  12.990   7.620  19.690
 2592DPPE   C2B52966  12.990   7.230  19.880
 2592DPPE   C3B52967  13.020   6.770  19.720
 2592DPPE   C4B52968  13.160   6.390  19.560
 2593DPPE   NH352969  10.480  14.320  22.440
 2593DPPE   PO452970  10.260  14.580  22.160
 2593DPPE   GL152971   9.830  14.390  22.410
 2593DPPE   GL252972   9.690  14.250  22.270
 2593DPPE   C1A52973   9.630  14.290  22.790
 2593DPPE   C2A52974   9.660  14.040  23.100
 2593DPPE   C3A52975   9.480  13.970  23.470
 2593DPPE   C4A52976   9.150  13.910  23.780
 2593DPPE   C1B52977   9.340  14.300  22.330
 2593DPPE   C2B52978   9.160  14.250  22.640
 2593DPPE   C3B52979   9.190  14.040  22.940
 2593DPPE   C4B52980   9.050  13.980  23.300
 2594DPPE   NH352981   5.540  19.120  15.980
 2594DPPE   PO452982   5.150  19.290  16.060
 2594DPPE   GL152983   4.670  19.130  16.160
 2594DPPE   GL252984   4.390  19.280  15.950
 2594DPPE   C1A52985   4.310  19.060  16.370
 2594DPPE   C2A52986   3.880  19.010  16.650
 2594DPPE   C3A52987   3.830  18.920  17.050
 2594DPPE   C4A52988   3.580  19.070  17.290
 2594DPPE   C1B52989   3.900  19.150  16.120
 2594DPPE   C2B52990   3.440  19.040  16.380
 2594DPPE   C3B52991   3.260  19.030  16.880
 2594DPPE   C4B52992   3.080  18.740  17.220
 2595DPPE   NH352993  11.700   8.280  17.710
 2595DPPE   PO452994  11.720   7.950  17.900
 2595DPPE   GL152995  11.680   7.520  18.120
 2595DPPE   GL252996  11.850   7.380  18.470
 2595DPPE   C1A52997  11.690   7.000  18.050
 2595DPPE   C2A52998  12.090   6.920  18.020
 2595DPPE   C3A52999  12.470   6.830  18.290
 2595DPPE   C4A53000  12.770   6.990  18.680
 2595DPPE   C1B53001  12.190   7.090  18.610
 2595DPPE   C2B53002  12.420   6.720  18.840
 2595DPPE   C3B53003  12.640   6.470  18.630
 2595DPPE   C4B53004  12.750   6.020  18.500
 2596DPPE   NH353005  12.780  10.500  20.900
 2596DPPE   PO453006  12.710  10.200  21.170
 2596DPPE   GL153007  12.550   9.810  21.380
 2596DPPE   GL253008  12.300   9.830  21.300
 2596DPPE   C1A53009  12.430   9.360  21.620
 2596DPPE   C2A53010  12.250   9.070  21.990
 2596DPPE   C3A53011  12.080   8.860  22.160
 2596DPPE   C4A53012  11.900   8.890  22.470
 2596DPPE   C1B53013  12.060   9.670  21.660
 2596DPPE   C2B53014  11.830   9.410  21.910
 2596DPPE   C3B53015  11.610   9.270  22.270
 2596DPPE   C4B53016  11.140   9.150  22.260
 2597DPPE   NH353017   6.340  16.390  15.860
 2597DPPE   PO453018   6.270  15.960  15.820
 2597DPPE   GL153019   6.670  16.050  15.610
 2597DPPE   GL253020   6.820  16.280  15.810
 2597DPPE   C1A53021   7.030  15.940  15.480
 2597DPPE   C2A53022   7.470  15.830  15.320
 2597DPPE   C3A53023   7.680  16.080  15.180
 2597DPPE   C4A53024   8.020  15.860  14.840
 2597DPPE   C1B53025   7.160  16.360  15.910
 2597DPPE   C2B53026   7.480  16.400  16.140
 2597DPPE   C3B53027   7.920  16.520  16.210
 2597DPPE   C4B53028   8.260  16.760  16.040
 2598DPPE   NH353029  11.610  17.220  23.060
 2598DPPE   PO453030  11.560  17.630  22.830
 2598DPPE   GL153031  11.670  17.600  22.450
 2598DPPE   GL253032  11.480  17.450  22.230
 2598DPPE   C1A53033  12.060  17.440  22.350
 2598DPPE   C2A53034  12.260  17.450  22.020
 2598DPPE   C3A53035  12.490  17.530  21.630
 2598DPPE   C4A53036  12.950  17.400  21.400
 2598DPPE   C1B53037  11.630  17.410  21.850
 2598DPPE   C2B53038  11.930  17.500  21.530
 2598DPPE   C3B53039  12.110  17.750  21.170
 2598DPPE   C4B53040  12.410  17.840  20.820
 2599DPPE   NH353041  14.270   8.780  19.900
 2599DPPE   PO453042  14.660   9.050  20.040
 2599DPPE   GL153043  14.830   8.720  19.590
 2599DPPE   GL253044  14.990   8.420  19.630
 2599DPPE   C1A53045  14.820   8.500  19.130
 2599DPPE   C2A53046  15.140   8.380  18.850
 2599DPPE   C3A53047  15.400   8.260  18.500
 2599DPPE   C4A53048  15.670   8.260  18.210
 2599DPPE   C1B53049  15.200   8.120  19.460
 2599DPPE   C2B53050  15.410   7.830  19.280
 2599DPPE   C3B53051  15.620   7.460  19.410
 2599DPPE   C4B53052  15.990   7.250  19.320
 2600DPPE   NH353053   5.810  11.880  13.530
 2600DPPE   PO453054   5.800  11.910  13.130
 2600DPPE   GL153055   5.660  11.910  12.660
 2600DPPE   GL253056   5.910  11.990  12.520
 2600DPPE   C1A53057   5.270  11.850  12.600
 2600DPPE   C2A53058   5.040  12.060  12.350
 2600DPPE   C3A53059   5.280  12.180  11.970
 2600DPPE   C4A53060   5.460  12.140  11.640
 2600DPPE   C1B53061   6.140  12.000  12.170
 2600DPPE   C2B53062   6.440  12.120  11.890
 2600DPPE   C3B53063   6.860  12.320  11.910
 2600DPPE   C4B53064   7.000  12.630  12.240
 2601DPPE   NH353065  15.790  10.640  21.470
 2601DPPE   PO453066  15.520  10.780  21.170
 2601DPPE   GL153067  15.940  10.880  21.060
 2601DPPE   GL253068  16.090  10.620  20.830
 2601DPPE   C1A53069  16.310  11.080  21.110
 2601DPPE   C2A53070  16.780  11.230  21.020
 2601DPPE   C3A53071  17.240  11.280  21.220
 2601DPPE   C4A53072  17.640  11.550  21.200
 2601DPPE   C1B53073  16.370  10.380  20.710
 2601DPPE   C2B53074  16.720  10.270  20.980
 2601DPPE   C3B53075  17.080  10.070  21.210
 2601DPPE   C4B53076  17.450   9.860  21.370
 2602DPPE   NH353077  11.390  17.520  23.410
 2602DPPE   PO453078  11.820  17.620  23.300
 2602DPPE   GL153079  11.600  17.800  23.730
 2602DPPE   GL253080  11.770  17.960  23.970
 2602DPPE   C1A53081  11.410  17.700  24.140
 2602DPPE   C2A53082  11.260  17.810  24.620
 2602DPPE   C3A53083  11.040  17.690  24.890
 2602DPPE   C4A53084  10.850  17.600  25.300
 2602DPPE   C1B53085  11.700  18.080  24.500
 2602DPPE   C2B53086  11.500  18.030  24.980
 2602DPPE   C3B53087  11.210  18.010  25.370
 2602DPPE   C4B53088  10.830  18.110  25.440
 2603DPPE   NH353089   7.750  11.260  15.800
 2603DPPE   PO453090   7.630  11.700  15.480
 2603DPPE   GL153091   8.040  11.950  15.440
 2603DPPE   GL253092   8.170  11.970  15.100
 2603DPPE   C1A53093   8.510  12.090  15.450
 2603DPPE   C2A53094   8.870  12.160  15.390
 2603DPPE   C3A53095   9.290  12.030  15.620
 2603DPPE   C4A53096   9.730  11.870  15.530
 2603DPPE   C1B53097   8.430  12.290  15.000
 2603DPPE   C2B53098   8.900  12.490  15.050
 2603DPPE   C3B53099   9.120  12.640  15.310
 2603DPPE   C4B53100   9.390  12.870  15.100
 2604DPPE   NH353101   7.430  19.000  17.890
 2604DPPE   PO453102   7.660  18.710  18.070
 2604DPPE   GL153103   7.970  18.550  17.770
 2604DPPE   GL253104   7.790  18.280  17.670
 2604DPPE   C1A53105   8.280  18.530  17.430
 2604DPPE   C2A53106   8.740  18.610  17.460
 2604DPPE   C3A53107   9.190  18.710  17.300
 2604DPPE   C4A53108   9.280  19.090  17.350
 2604DPPE   C1B53109   8.040  18.040  17.400
 2604DPPE   C2B53110   8.430  17.820  17.200
 2604DPPE   C3B53111   8.540  17.570  16.950
 2604DPPE   C4B53112   8.810  17.380  16.710
 2605DPPE   NH353113  11.710  15.130  23.130
 2605DPPE   PO453114  11.190  15.240  23.240
 2605DPPE   GL153115  10.830  15.080  23.380
 2605DPPE   GL253116  10.730  15.160  23.730
 2605DPPE   C1A53117  10.730  14.620  23.530
 2605DPPE   C2A53118  10.400  14.390  23.790
 2605DPPE   C3A53119  10.240  14.210  24.130
 2605DPPE   C4A53120   9.880  14.050  24.420
 2605DPPE   C1B53121  10.410  14.860  23.860
 2605DPPE   C2B53122  10.080  14.710  24.230
 2605DPPE   C3B53123   9.850  14.720  24.630
 2605DPPE   C4B53124   9.720  14.830  25.130
 2606DPPE   NH353125   7.210  20.940  19.320
 2606DPPE   PO453126   6.790  20.740  19.390
 2606DPPE   GL153127   6.510  20.980  19.540
 2606DPPE   GL253128   6.530  21.410  19.580
 2606DPPE   C1A53129   6.120  21.280  19.640
 2606DPPE   C2A53130   5.710  21.570  19.750
 2606DPPE   C3A53131   5.410  22.000  19.710
 2606DPPE   C4A53132   5.090  22.240  19.490
 2606DPPE   C1B53133   6.280  21.780  19.740
 2606DPPE   C2B53134   5.880  21.930  19.980
 2606DPPE   C3B53135   5.560  21.760  20.270
 2606DPPE   C4B53136   5.430  21.850  20.680
 2607DPPE   NH353137  11.450  20.950  22.870
 2607DPPE   PO453138  11.600  21.360  22.920
 2607DPPE   GL153139  11.570  21.650  23.240
 2607DPPE   GL253140  11.480  21.900  23.150
 2607DPPE   C1A53141  11.470  21.650  23.700
 2607DPPE   C2A53142  11.250  21.750  24.040
 2607DPPE   C3A53143  10.750  21.850  24.170
 2607DPPE   C4A53144  10.370  21.590  24.000
 2607DPPE   C1B53145  11.580  22.160  23.520
 2607DPPE   C2B53146  11.480  22.220  23.910
 2607DPPE   C3B53147  11.620  22.150  24.310
 2607DPPE   C4B53148  11.770  21.900  24.660
 2608DPPE   NH353149  12.130   9.250  17.960
 2608DPPE   PO453150  12.130   8.850  17.740
 2608DPPE   GL153151  12.370   8.630  17.350
 2608DPPE   GL253152  12.560   8.360  17.410
 2608DPPE   C1A53153  12.470   8.670  16.910
 2608DPPE   C2A53154  12.650   8.430  16.580
 2608DPPE   C3A53155  12.520   8.180  16.280
 2608DPPE   C4A53156  12.610   7.950  15.810
 2608DPPE   C1B53157  12.900   8.380  17.120
 2608DPPE   C2B53158  13.270   8.550  17.190
 2608DPPE   C3B53159  13.600   8.750  16.960
 2608DPPE   C4B53160  13.640   8.750  16.490
 2609DPPE   NH353161  13.660  19.630  23.450
 2609DPPE   PO453162  14.020  19.240  23.310
 2609DPPE   GL153163  14.270  19.110  22.980
 2609DPPE   GL253164  14.380  19.410  22.820
 2609DPPE   C1A53165  14.540  18.890  22.720
 2609DPPE   C2A53166  15.000  18.710  22.580
 2609DPPE   C3A53167  15.260  18.670  22.220
 2609DPPE   C4A53168  15.290  18.370  21.820
 2609DPPE   C1B53169  14.660  19.270  22.430
 2609DPPE   C2B53170  14.770  18.930  22.170
 2609DPPE   C3B53171  14.960  18.840  21.850
 2609DPPE   C4B53172  15.230  18.900  21.520
 2610DPPE   NH353173  11.220   9.880  19.710
 2610DPPE   PO453174  10.830  10.060  19.560
 2610DPPE   GL153175  10.570   9.830  19.740
 2610DPPE   GL253176  10.270   9.790  19.780
 2610DPPE   C1A53177  10.600   9.430  19.990
 2610DPPE   C2A53178  10.320   9.160  20.270
 2610DPPE   C3A53179  10.160   8.830  20.270
 2610DPPE   C4A53180   9.880   8.490  20.460
 2610DPPE   C1B53181  10.050   9.550  20.060
 2610DPPE   C2B53182   9.790   9.210  20.200
 2610DPPE   C3B53183   9.740   8.920  20.500
 2610DPPE   C4B53184   9.800   8.770  20.960
 2611DPPE   NH353185   4.810  15.420  14.640
 2611DPPE   PO453186   5.040  15.630  14.280
 2611DPPE   GL153187   4.630  15.850  14.440
 2611DPPE   GL253188   4.620  15.860  14.670
 2611DPPE   C1A53189   4.320  16.150  14.280
 2611DPPE   C2A53190   4.010  16.390  14.190
 2611DPPE   C3A53191   3.910  16.500  13.780
 2611DPPE   C4A53192   3.840  16.280  13.460
 2611DPPE   C1B53193   4.100  15.850  14.600
 2611DPPE   C2B53194   3.730  15.880  14.290
 2611DPPE   C3B53195   3.320  15.830  14.080
 2611DPPE   C4B53196   3.040  15.590  13.900
 2612DPPE   NH353197   7.700  17.500  20.760
 2612DPPE   PO453198   7.710  17.050  20.800
 2612DPPE   GL153199   7.490  17.170  21.090
 2612DPPE   GL253200   7.380  16.800  21.090
 2612DPPE   C1A53201   7.180  17.280  21.300
 2612DPPE   C2A53202   6.770  17.420  21.520
 2612DPPE   C3A53203   6.470  17.520  21.640
 2612DPPE   C4A53204   6.470  17.310  21.980
 2612DPPE   C1B53205   7.010  16.830  21.410
 2612DPPE   C2B53206   6.800  16.520  21.680
 2612DPPE   C3B53207   6.980  16.320  21.990
 2612DPPE   C4B53208   7.020  16.420  22.460
 2613DPPE   NH353209  10.180   9.430  17.960
 2613DPPE   PO453210  10.510   9.060  18.040
 2613DPPE   GL153211  10.340   8.860  18.390
 2613DPPE   GL253212  10.220   9.100  18.500
 2613DPPE   C1A53213  10.280   8.450  18.490
 2613DPPE   C2A53214   9.970   8.200  18.480
 2613DPPE   C3A53215   9.720   7.890  18.590
 2613DPPE   C4A53216   9.620   7.470  18.680
 2613DPPE   C1B53217  10.130   8.820  18.880
 2613DPPE   C2B53218   9.820   8.460  18.900
 2613DPPE   C3B53219   9.820   8.020  19.040
 2613DPPE   C4B53220   9.540   7.930  19.380
 2614DPPE   NH353221   6.660  10.460  14.570
 2614DPPE   PO453222   6.340  10.740  14.540
 2614DPPE   GL153223   6.220  10.380  14.440
 2614DPPE   GL253224   6.180  10.290  14.130
 2614DPPE   C1A53225   5.840   9.990  14.340
 2614DPPE   C2A53226   5.700   9.630  14.190
 2614DPPE   C3A53227   5.750   9.150  14.210
 2614DPPE   C4A53228   5.930   8.900  14.470
 2614DPPE   C1B53229   5.730  10.220  13.910
 2614DPPE   C2B53230   5.220  10.260  13.980
 2614DPPE   C3B53231   4.910  10.130  14.210
 2614DPPE   C4B53232   4.890  10.090  14.600
 2615DPPE   NH353233   6.370  19.220  16.390
 2615DPPE   PO453234   6.380  19.650  16.550
 2615DPPE   GL153235   6.860  19.690  16.300
 2615DPPE   GL253236   6.770  19.460  16.010
 2615DPPE   C1A53237   7.150  19.880  15.970
 2615DPPE   C2A53238   7.540  19.780  15.700
 2615DPPE   C3A53239   7.780  19.480  15.800
 2615DPPE   C4A53240   8.110  19.180  15.720
 2615DPPE   C1B53241   7.140  19.410  15.800
 2615DPPE   C2B53242   7.390  19.170  15.500
 2615DPPE   C3B53243   7.410  19.090  15.080
 2615DPPE   C4B53244   7.620  19.130  14.650
 2616DPPE   NH353245   6.890  20.310  19.530
 2616DPPE   PO453246   7.270  20.520  19.620
 2616DPPE   GL153247   6.810  20.650  19.900
 2616DPPE   GL253248   6.540  20.520  19.810
 2616DPPE   C1A53249   6.680  21.040  19.990
 2616DPPE   C2A53250   6.420  21.430  20.080
 2616DPPE   C3A53251   5.960  21.410  20.100
 2616DPPE   C4A53252   5.570  21.070  19.990
 2616DPPE   C1B53253   6.230  20.490  20.170
 2616DPPE   C2B53254   6.240  20.320  20.470
 2616DPPE   C3B53255   5.880  20.230  20.640
 2616DPPE   C4B53256   5.620  20.120  20.980
 2617DPPE   NH353257   9.390   9.620  16.670
 2617DPPE   PO453258   9.690  10.000  16.750
 2617DPPE   GL153259   9.930  10.350  16.670
 2617DPPE   GL253260   9.920  10.670  16.720
 2617DPPE   C1A53261  10.380  10.650  16.520
 2617DPPE   C2A53262  10.650  10.980  16.570
 2617DPPE   C3A53263  10.950  11.320  16.580
 2617DPPE   C4A53264  11.320  11.580  16.390
 2617DPPE   C1B53265  10.020  11.040  16.500
 2617DPPE   C2B53266  10.050  11.460  16.300
 2617DPPE   C3B53267  10.080  11.910  16.280
 2617DPPE   C4B53268  10.330  12.220  16.300
 2618DPPE   NH353269   5.580  17.760  17.370
 2618DPPE   PO453270   5.490  17.430  17.120
 2618DPPE   GL153271   5.040  17.320  17.100
 2618DPPE   GL253272   5.080  17.050  16.870
 2618DPPE   C1A53273   4.790  17.150  17.350
 2618DPPE   C2A53274   4.310  17.020  17.360
 2618DPPE   C3A53275   3.920  17.000  17.420
 2618DPPE   C4A53276   3.690  16.990  17.730
 2618DPPE   C1B53277   4.620  16.860  16.940
 2618DPPE   C2B53278   4.150  16.750  17.010
 2618DPPE   C3B53279   3.570  16.780  17.050
 2618DPPE   C4B53280   3.250  16.870  17.400
 2619DPPE   NH353281  13.800  20.410  23.590
 2619DPPE   PO453282  13.960  20.020  23.580
 2619DPPE   GL153283  13.810  20.060  23.990
 2619DPPE   GL253284  13.920  20.450  24.080
 2619DPPE   C1A53285  13.800  19.890  24.410
 2619DPPE   C2A53286  13.830  19.870  24.790
 2619DPPE   C3A53287  14.060  19.760  25.160
 2619DPPE   C4A53288  14.370  19.500  25.110
 2619DPPE   C1B53289  14.160  20.730  24.260
 2619DPPE   C2B53290  14.370  21.160  24.220
 2619DPPE   C3B53291  14.630  21.450  23.910
 2619DPPE   C4B53292  14.670  21.910  23.750
 2620DPPE   NH353293  10.900  20.210  22.710
 2620DPPE   PO453294  10.600  20.270  22.850
 2620DPPE   GL153295  10.430  19.910  23.090
 2620DPPE   GL253296  10.600  19.710  23.270
 2620DPPE   C1A53297  10.050  19.760  23.300
 2620DPPE   C2A53298   9.790  19.860  23.660
 2620DPPE   C3A53299   9.700  19.880  24.060
 2620DPPE   C4A53300   9.530  19.830  24.500
 2620DPPE   C1B53301  10.380  19.570  23.670
 2620DPPE   C2B53302  10.050  19.550  24.050
 2620DPPE   C3B53303   9.940  19.580  24.390
 2620DPPE   C4B53304   9.970  19.550  24.840
 2621DPPE   NH353305   6.480  11.460  14.100
 2621DPPE   PO453306   6.500  11.080  14.250
 2621DPPE   GL153307   6.120  11.020  14.070
 2621DPPE   GL253308   5.940  10.780  14.210
 2621DPPE   C1A53309   5.780  10.890  13.740
 2621DPPE   C2A53310   5.750  10.580  13.480
 2621DPPE   C3A53311   5.410  10.230  13.430
 2621DPPE   C4A53312   5.430   9.850  13.710
 2621DPPE   C1B53313   5.620  10.440  14.320
 2621DPPE   C2B53314   5.370  10.100  14.440
 2621DPPE   C3B53315   5.270   9.730  14.430
 2621DPPE   C4B53316   5.170   9.300  14.260
 2622DPPE   NH353317   6.510  11.990  16.300
 2622DPPE   PO453318   6.770  12.100  16.660
 2622DPPE   GL153319   6.480  11.800  16.780
 2622DPPE   GL253320   6.280  11.990  17.050
 2622DPPE   C1A53321   6.110  11.540  16.840
 2622DPPE   C2A53322   5.750  11.430  16.960
 2622DPPE   C3A53323   5.480  11.270  17.090
 2622DPPE   C4A53324   5.080  11.200  17.020
 2622DPPE   C1B53325   5.850  11.930  17.060
 2622DPPE   C2B53326   5.410  11.800  17.150
 2622DPPE   C3B53327   5.140  11.650  17.440
 2622DPPE   C4B53328   4.870  11.530  17.530
 2623DPPE   NH353329  13.890  16.700  24.580
 2623DPPE   PO453330  14.070  16.420  24.860
 2623DPPE   GL153331  14.320  16.340  25.230
 2623DPPE   GL253332  14.270  16.090  25.250
 2623DPPE   C1A53333  14.570  16.190  25.640
 2623DPPE   C2A53334  14.960  16.150  25.750
 2623DPPE   C3A53335  15.320  16.200  26.050
 2623DPPE   C4A53336  15.290  16.500  26.510
 2623DPPE   C1B53337  14.260  15.570  25.380
 2623DPPE   C2B53338  13.920  15.270  25.470
 2623DPPE   C3B53339  13.450  15.400  25.600
 2623DPPE   C4B53340  13.130  15.690  25.330
 2624DPPE   NH353341   8.050  18.250  20.730
 2624DPPE   PO453342   8.240  18.120  21.130
 2624DPPE   GL153343   7.900  18.040  21.440
 2624DPPE   GL253344   7.780  17.810  21.190
 2624DPPE   C1A53345   7.620  18.000  21.750
 2624DPPE   C2A53346   7.540  17.610  22.020
 2624DPPE   C3A53347   7.130  17.510  22.420
 2624DPPE   C4A53348   6.760  17.290  22.410
 2624DPPE   C1B53349   7.480  17.640  21.510
 2624DPPE   C2B53350   7.160  17.670  21.660
 2624DPPE   C3B53351   6.810  17.760  21.930
 2624DPPE   C4B53352   6.380  17.890  22.080
 2625DPPE   NH353353  12.490  11.420  20.810
 2625DPPE   PO453354  12.280  11.110  20.410
 2625DPPE   GL153355  12.650  11.340  20.260
 2625DPPE   GL253356  12.700  11.590  20.380
 2625DPPE   C1A53357  12.750  11.450  19.750
 2625DPPE   C2A53358  13.220  11.620  19.440
 2625DPPE   C3A53359  13.610  11.780  19.210
 2625DPPE   C4A53360  13.810  12.250  19.080
 2625DPPE   C1B53361  12.880  11.770  20.100
 2625DPPE   C2B53362  13.000  12.070  19.680
 2625DPPE   C3B53363  13.030  12.420  19.550
 2625DPPE   C4B53364  12.800  12.790  19.290
 2626DPPE   NH353365  10.840  15.640  23.280
 2626DPPE   PO453366  10.860  15.530  22.930
 2626DPPE   GL153367  10.520  15.240  23.090
 2626DPPE   GL253368  10.320  15.120  22.910
 2626DPPE   C1A53369  10.320  15.260  23.550
 2626DPPE   C2A53370  10.030  15.170  23.910
 2626DPPE   C3A53371   9.650  14.900  24.060
 2626DPPE   C4A53372   9.400  14.830  24.440
 2626DPPE   C1B53373  10.020  15.050  23.190
 2626DPPE   C2B53374   9.630  14.980  23.550
 2626DPPE   C3B53375   9.240  15.010  23.710
 2626DPPE   C4B53376   8.870  14.950  23.560
 2627DPPE   NH353377   8.450  13.320  19.400
 2627DPPE   PO453378   8.690  13.370  19.130
 2627DPPE   GL153379   9.060  13.620  18.960
 2627DPPE   GL253380   9.320  13.590  19.190
 2627DPPE   C1A53381   9.270  13.960  18.590
 2627DPPE   C2A53382   9.320  14.320  18.530
 2627DPPE   C3A53383   9.540  14.690  18.510
 2627DPPE   C4A53384   9.800  15.060  18.350
 2627DPPE   C1B53385   9.570  13.720  18.850
 2627DPPE   C2B53386   9.840  13.810  18.420
 2627DPPE   C3B53387  10.090  14.010  18.090
 2627DPPE   C4B53388  10.330  14.460  18.080
 2628DPPE   NH353389   6.890  16.270  17.720
 2628DPPE   PO453390   6.670  16.440  17.340
 2628DPPE   GL153391   7.150  16.420  17.260
 2628DPPE   GL253392   6.990  16.510  16.940
 2628DPPE   C1A53393   7.590  16.560  17.510
 2628DPPE   C2A53394   7.700  16.840  17.830
 2628DPPE   C3A53395   7.580  17.210  17.700
 2628DPPE   C4A53396   7.670  17.470  17.380
 2628DPPE   C1B53397   7.280  16.460  16.630
 2628DPPE   C2B53398   7.560  16.830  16.460
 2628DPPE   C3B53399   7.920  16.840  16.530
 2628DPPE   C4B53400   8.100  16.850  16.830
 2629DPPE   NH353401  12.080   9.300  19.840
 2629DPPE   PO453402  11.910   9.070  19.540
 2629DPPE   GL153403  11.850   8.770  19.950
 2629DPPE   GL253404  11.920   8.520  19.730
 2629DPPE   C1A53405  11.580   8.520  20.320
 2629DPPE   C2A53406  11.300   8.240  20.340
 2629DPPE   C3A53407  10.980   8.010  20.650
 2629DPPE   C4A53408  11.090   7.640  20.820
 2629DPPE   C1B53409  12.080   8.420  20.180
 2629DPPE   C2B53410  11.940   8.280  20.520
 2629DPPE   C3B53411  12.060   8.070  20.990
 2629DPPE   C4B53412  12.250   7.770  21.310
 2630DPPE   NH353413  12.030  19.430  23.690
 2630DPPE   PO453414  11.820  19.050  23.450
 2630DPPE   GL153415  11.810  18.960  23.850
 2630DPPE   GL253416  11.770  18.710  23.900
 2630DPPE   C1A53417  11.620  19.010  24.310
 2630DPPE   C2A53418  11.360  19.140  24.750
 2630DPPE   C3A53419  11.350  19.070  25.150
 2630DPPE   C4A53420  11.360  19.040  25.610
 2630DPPE   C1B53421  11.650  18.560  24.360
 2630DPPE   C2B53422  11.430  18.560  24.820
 2630DPPE   C3B53423  11.680  18.630  25.230
 2630DPPE   C4B53424  11.870  18.480  25.630
 2631DPPE   NH353425  12.610  12.140  21.350
 2631DPPE   PO453426  12.410  11.680  21.270
 2631DPPE   GL153427  12.440  11.950  20.890
 2631DPPE   GL253428  12.730  12.110  20.780
 2631DPPE   C1A53429  12.340  12.380  20.760
 2631DPPE   C2A53430  12.470  12.840  21.000
 2631DPPE   C3A53431  12.590  13.000  21.360
 2631DPPE   C4A53432  12.700  13.230  21.760
 2631DPPE   C1B53433  12.810  12.250  20.370
 2631DPPE   C2B53434  12.720  12.330  19.990
 2631DPPE   C3B53435  12.390  12.290  19.710
 2631DPPE   C4B53436  11.990  12.150  19.900
 2632DPPE   NH353437   8.630  10.070  14.190
 2632DPPE   PO453438   8.630  10.510  13.990
 2632DPPE   GL153439   8.980  10.160  13.800
 2632DPPE   GL253440   8.670  10.030  13.680
 2632DPPE   C1A53441   9.310   9.870  13.490
 2632DPPE   C2A53442   9.300   9.470  13.310
 2632DPPE   C3A53443   9.410   9.120  13.020
 2632DPPE   C4A53444   9.210   8.740  13.100
 2632DPPE   C1B53445   8.820  10.310  13.260
 2632DPPE   C2B53446   8.940  10.530  12.850
 2632DPPE   C3B53447   8.790  10.880  12.450
 2632DPPE   C4B53448   8.860  11.320  12.390
 2633DPPE   NH353449   8.980  12.350  18.280
 2633DPPE   PO453450   8.950  11.940  18.140
 2633DPPE   GL153451   9.390  12.090  18.060
 2633DPPE   GL253452   9.470  12.160  18.420
 2633DPPE   C1A53453   9.680  12.200  17.750
 2633DPPE   C2A53454   9.820  12.530  17.620
 2633DPPE   C3A53455  10.050  12.870  17.620
 2633DPPE   C4A53456  10.470  13.040  17.660
 2633DPPE   C1B53457   9.590  12.500  18.150
 2633DPPE   C2B53458   9.840  12.790  18.050
 2633DPPE   C3B53459  10.000  13.220  18.030
 2633DPPE   C4B53460   9.740  13.570  17.990
 2634DPPE   NH353461   7.270  22.750  17.420
 2634DPPE   PO453462   6.940  22.530  17.180
 2634DPPE   GL153463   6.780  22.890  16.970
 2634DPPE   GL253464   6.600  22.700  16.800
 2634DPPE   C1A53465   6.890  23.370  16.940
 2634DPPE   C2A53466   6.890  23.690  16.730
 2634DPPE   C3A53467   6.480  23.850  16.660
 2634DPPE   C4A53468   6.080  23.930  16.560
 2634DPPE   C1B53469   6.770  22.980  16.490
 2634DPPE   C2B53470   7.020  23.310  16.400
 2634DPPE   C3B53471   7.340  23.650  16.300
 2634DPPE   C4B53472   7.620  23.570  16.090
 2635DPPE   NH353473  11.820  11.370  20.390
 2635DPPE   PO453474  11.960  11.380  20.770
 2635DPPE   GL153475  12.180  11.680  20.520
 2635DPPE   GL253476  12.200  11.520  20.130
 2635DPPE   C1A53477  12.310  12.020  20.270
 2635DPPE   C2A53478  12.370  12.530  20.250
 2635DPPE   C3A53479  12.670  12.930  20.110
 2635DPPE   C4A53480  12.900  13.100  19.790
 2635DPPE   C1B53481  12.310  11.710  19.820
 2635DPPE   C2B53482  12.580  11.880  19.590
 2635DPPE   C3B53483  12.660  12.210  19.300
 2635DPPE   C4B53484  12.890  12.470  18.970
 2636DPPE   NH353485   9.590  21.780  19.760
 2636DPPE   PO453486   9.750  22.090  19.640
 2636DPPE   GL153487  10.150  22.200  19.440
 2636DPPE   GL253488  10.200  22.530  19.280
 2636DPPE   C1A53489  10.500  22.140  19.100
 2636DPPE   C2A53490  10.740  22.130  18.860
 2636DPPE   C3A53491  10.900  21.730  18.770
 2636DPPE   C4A53492  11.100  21.330  18.620
 2636DPPE   C1B53493  10.510  22.750  19.040
 2636DPPE   C2B53494  10.890  23.010  18.870
 2636DPPE   C3B53495  11.190  23.360  18.640
 2636DPPE   C4B53496  11.610  23.420  18.500
 2637DPPE   NH353497   7.090  10.840  13.430
 2637DPPE   PO453498   6.620  10.940  13.370
 2637DPPE   GL153499   6.750  10.850  12.980
 2637DPPE   GL253500   6.430  10.790  12.850
 2637DPPE   C1A53501   6.870  10.710  12.590
 2637DPPE   C2A53502   6.910  10.820  12.200
 2637DPPE   C3A53503   6.820  11.050  11.790
 2637DPPE   C4A53504   6.790  11.060  11.330
 2637DPPE   C1B53505   6.320  10.430  12.590
 2637DPPE   C2B53506   6.040  10.380  12.180
 2637DPPE   C3B53507   6.180  10.320  11.740
 2637DPPE   C4B53508   6.390  10.080  11.360
 2638DPPE   NH353509  14.500  16.770  23.160
 2638DPPE   PO453510  14.480  16.410  23.380
 2638DPPE   GL153511  14.740  16.350  23.130
 2638DPPE   GL253512  14.580  16.130  22.940
 2638DPPE   C1A53513  14.880  16.480  22.730
 2638DPPE   C2A53514  15.070  16.460  22.240
 2638DPPE   C3A53515  15.210  16.680  21.810
 2638DPPE   C4A53516  15.530  16.980  21.590
 2638DPPE   C1B53517  14.780  16.030  22.480
 2638DPPE   C2B53518  14.910  16.070  21.970
 2638DPPE   C3B53519  15.270  16.040  21.750
 2638DPPE   C4B53520  15.620  15.830  21.690
 2639DPPE   NH353521   9.910  11.910  20.680
 2639DPPE   PO453522  10.190  11.550  20.440
 2639DPPE   GL153523   9.930  11.320  20.660
 2639DPPE   GL253524   9.680  11.430  20.810
 2639DPPE   C1A53525   9.830  10.980  20.950
 2639DPPE   C2A53526   9.970  10.640  21.170
 2639DPPE   C3A53527   9.710  10.370  21.540
 2639DPPE   C4A53528   9.340  10.300  21.690
 2639DPPE   C1B53529   9.530  11.330  21.210
 2639DPPE   C2B53530   9.420  11.300  21.610
 2639DPPE   C3B53531   9.340  11.070  21.870
 2639DPPE   C4B53532   9.160  10.710  21.930
 2640DPPE   NH353533  11.080  14.380  21.610
 2640DPPE   PO453534  11.390  14.450  21.970
 2640DPPE   GL153535  11.760  14.640  21.810
 2640DPPE   GL253536  12.090  14.440  21.940
 2640DPPE   C1A53537  11.900  15.000  21.560
 2640DPPE   C2A53538  12.120  15.130  21.140
 2640DPPE   C3A53539  12.360  15.330  20.800
 2640DPPE   C4A53540  12.680  15.320  20.550
 2640DPPE   C1B53541  12.370  14.730  21.720
 2640DPPE   C2B53542  12.390  15.120  21.540
 2640DPPE   C3B53543  12.760  15.480  21.540
 2640DPPE   C4B53544  12.930  15.790  21.750
 2641DPPE   NH353545   7.050  21.650  16.320
 2641DPPE   PO453546   7.010  21.680  16.690
 2641DPPE   GL153547   7.340  21.980  16.540
 2641DPPE   GL253548   7.340  22.200  16.240
 2641DPPE   C1A53549   7.840  21.930  16.720
 2641DPPE   C2A53550   8.180  21.670  16.510
 2641DPPE   C3A53551   8.330  21.700  16.140
 2641DPPE   C4A53552   8.340  21.950  15.880
 2641DPPE   C1B53553   7.360  22.000  15.900
 2641DPPE   C2B53554   7.230  22.060  15.450
 2641DPPE   C3B53555   6.990  22.360  15.050
 2641DPPE   C4B53556   6.720  22.270  14.690
 2642DPPE   NH353557  15.260  14.530  23.520
 2642DPPE   PO453558  15.660  14.750  23.390
 2642DPPE   GL153559  16.080  14.690  23.490
 2642DPPE   GL253560  16.150  14.380  23.430
 2642DPPE   C1A53561  16.310  14.990  23.290
 2642DPPE   C2A53562  16.540  15.320  23.220
 2642DPPE   C3A53563  16.540  15.710  23.120
 2642DPPE   C4A53564  16.370  16.120  22.880
 2642DPPE   C1B53565  16.280  14.560  23.050
 2642DPPE   C2B53566  16.620  14.460  22.830
 2642DPPE   C3B53567  17.060  14.270  22.870
 2642DPPE   C4B53568  17.570  14.240  22.820
 2643DPPE   NH353569  13.990   8.940  19.000
 2643DPPE   PO453570  13.980   8.490  19.110
 2643DPPE   GL153571  14.380   8.440  18.930
 2643DPPE   GL253572  14.450   8.690  18.930
 2643DPPE   C1A53573  14.610   8.270  18.580
 2643DPPE   C2A53574  14.880   8.140  18.230
 2643DPPE   C3A53575  15.150   8.380  18.070
 2643DPPE   C4A53576  15.290   8.780  18.160
 2643DPPE   C1B53577  14.840   8.820  18.770
 2643DPPE   C2B53578  14.780   8.750  18.240
 2643DPPE   C3B53579  14.720   8.540  17.910
 2643DPPE   C4B53580  14.560   8.170  17.650
 2644DPPE   NH353581   9.310  19.570  22.260
 2644DPPE   PO453582   9.530  19.300  22.540
 2644DPPE   GL153583   9.330  19.010  22.740
 2644DPPE   GL253584   9.170  18.720  22.610
 2644DPPE   C1A53585   9.230  18.830  23.100
 2644DPPE   C2A53586   8.970  18.850  23.400
 2644DPPE   C3A53587   8.850  19.040  23.740
 2644DPPE   C4A53588   8.480  19.050  24.120
 2644DPPE   C1B53589   8.900  18.600  22.800
 2644DPPE   C2B53590   8.550  18.740  23.170
 2644DPPE   C3B53591   8.350  19.100  23.510
 2644DPPE   C4B53592   7.990  19.360  23.790
 2645DPPE   NH353593  15.650  11.490  22.920
 2645DPPE   PO453594  15.850  11.810  22.660
 2645DPPE   GL153595  16.240  11.650  22.890
 2645DPPE   GL253596  16.120  11.480  23.110
 2645DPPE   C1A53597  16.670  11.510  23.040
 2645DPPE   C2A53598  16.840  11.300  23.390
 2645DPPE   C3A53599  17.230  11.150  23.640
 2645DPPE   C4A53600  17.650  10.970  23.970
 2645DPPE   C1B53601  16.260  11.370  23.480
 2645DPPE   C2B53602  16.270  11.280  23.870
 2645DPPE   C3B53603  16.120  11.490  24.250
 2645DPPE   C4B53604  16.170  11.930  24.310
 2646DPPE   NH353605  11.050  11.020  20.890
 2646DPPE   PO453606  10.580  11.260  20.810
 2646DPPE   GL153607  10.310  11.160  21.110
 2646DPPE   GL253608  10.180  11.280  21.380
 2646DPPE   C1A53609  10.340  10.820  21.470
 2646DPPE   C2A53610  10.200  10.620  21.820
 2646DPPE   C3A53611  10.120  10.500  22.360
 2646DPPE   C4A53612   9.880  10.860  22.650
 2646DPPE   C1B53613  10.260  11.170  21.810
 2646DPPE   C2B53614  10.260  11.430  22.150
 2646DPPE   C3B53615  10.170  11.630  22.610
 2646DPPE   C4B53616   9.950  11.500  22.930
 2647DPPE   NH353617   9.660   8.810  15.400
 2647DPPE   PO453618   9.820   8.910  15.000
 2647DPPE   GL153619   9.540   8.550  14.990
 2647DPPE   GL253620   9.560   8.570  14.680
 2647DPPE   C1A53621   9.440   8.120  14.670
 2647DPPE   C2A53622   9.730   8.150  14.220
 2647DPPE   C3A53623  10.040   8.070  13.840
 2647DPPE   C4A53624   9.930   8.230  13.420
 2647DPPE   C1B53625   9.750   8.650  14.410
 2647DPPE   C2B53626  10.050   8.480  14.140
 2647DPPE   C3B53627  10.560   8.260  14.040
 2647DPPE   C4B53628  10.780   7.850  13.980
 2648DPPE   NH353629   8.150   9.500  15.850
 2648DPPE   PO453630   7.930   9.830  15.630
 2648DPPE   GL153631   7.630   9.380  15.580
 2648DPPE   GL253632   7.550   9.080  15.320
 2648DPPE   C1A53633   7.220   9.330  15.800
 2648DPPE   C2A53634   6.770   9.070  15.970
 2648DPPE   C3A53635   6.360   8.950  15.950
 2648DPPE   C4A53636   6.000   8.820  16.110
 2648DPPE   C1B53637   7.460   8.920  15.640
 2648DPPE   C2B53638   7.090   8.760  15.730
 2648DPPE   C3B53639   6.740   8.580  16.010
 2648DPPE   C4B53640   6.640   8.160  16.270
 2649DPPE   NH353641   8.210  12.500  19.000
 2649DPPE   PO453642   8.050  12.170  18.720
 2649DPPE   GL153643   7.800  12.040  18.890
 2649DPPE   GL253644   7.580  11.940  18.670
 2649DPPE   C1A53645   7.580  11.990  19.270
 2649DPPE   C2A53646   7.550  11.840  19.630
 2649DPPE   C3A53647   7.430  11.430  19.770
 2649DPPE   C4A53648   7.310  11.190  20.150
 2649DPPE   C1B53649   7.670  11.580  18.950
 2649DPPE   C2B53650   7.350  11.420  19.220
 2649DPPE   C3B53651   7.010  11.460  19.540
 2649DPPE   C4B53652   6.850  11.720  19.960
 2650DPPE   NH353653  14.240  10.410  20.330
 2650DPPE   PO453654  14.600  10.200  20.350
 2650DPPE   GL153655  14.750  10.070  19.910
 2650DPPE   GL253656  15.010  10.190  19.920
 2650DPPE   C1A53657  14.840  10.080  19.420
 2650DPPE   C2A53658  15.170  10.200  19.130
 2650DPPE   C3A53659  15.660  10.180  19.260
 2650DPPE   C4A53660  16.070   9.960  19.140
 2650DPPE   C1B53661  15.450  10.140  19.750
 2650DPPE   C2B53662  15.680   9.810  19.540
 2650DPPE   C3B53663  15.940   9.520  19.330
 2650DPPE   C4B53664  16.240   9.340  19.040
 2651DPPE   NH353665   5.470  18.220  13.870
 2651DPPE   PO453666   5.150  18.260  13.710
 2651DPPE   GL153667   5.090  18.500  13.460
 2651DPPE   GL253668   4.960  18.820  13.580
 2651DPPE   C1A53669   5.260  18.700  13.110
 2651DPPE   C2A53670   5.090  18.960  12.820
 2651DPPE   C3A53671   5.180  19.320  12.640
 2651DPPE   C4A53672   5.430  19.720  12.510
 2651DPPE   C1B53673   4.830  19.200  13.380
 2651DPPE   C2B53674   4.820  19.410  12.980
 2651DPPE   C3B53675   4.630  19.590  12.680
 2651DPPE   C4B53676   4.270  19.750  12.780
 2652DPPE   NH353677   6.960  13.720  18.610
 2652DPPE   PO453678   7.070  13.440  18.250
 2652DPPE   GL153679   6.630  13.330  18.180
 2652DPPE   GL253680   6.270  13.540  18.030
 2652DPPE   C1A53681   6.250  13.120  18.390
 2652DPPE   C2A53682   6.000  12.980  18.750
 2652DPPE   C3A53683   5.670  12.730  19.020
 2652DPPE   C4A53684   5.350  12.350  19.090
 2652DPPE   C1B53685   5.960  13.480  18.250
 2652DPPE   C2B53686   5.540  13.430  18.190
 2652DPPE   C3B53687   5.190  13.460  18.360
 2652DPPE   C4B53688   4.800  13.630  18.490
 2653DPPE   NH353689   7.950  20.690  20.420
 2653DPPE   PO453690   8.320  20.860  20.630
 2653DPPE   GL153691   7.970  20.920  20.860
 2653DPPE   GL253692   7.850  20.720  20.990
 2653DPPE   C1A53693   7.630  21.110  21.100
 2653DPPE   C2A53694   7.350  21.230  21.400
 2653DPPE   C3A53695   7.380  21.550  21.790
 2653DPPE   C4A53696   7.120  21.800  22.050
 2653DPPE   C1B53697   7.720  20.720  21.380
 2653DPPE   C2B53698   7.450  20.760  21.670
 2653DPPE   C3B53699   7.160  21.100  21.820
 2653DPPE   C4B53700   6.810  21.400  21.990
 2654DPPE   NH353701  10.510  23.050  20.050
 2654DPPE   PO453702  10.920  23.040  19.920
 2654DPPE   GL153703  10.820  23.440  19.590
 2654DPPE   GL253704  10.490  23.610  19.500
 2654DPPE   C1A53705  10.920  23.880  19.370
 2654DPPE   C2A53706  11.030  24.200  19.100
 2654DPPE   C3A53707  10.940  24.370  18.690
 2654DPPE   C4A53708  10.470  24.400  18.580
 2654DPPE   C1B53709  10.390  24.030  19.310
 2654DPPE   C2B53710  10.490  24.390  19.150
 2654DPPE   C3B53711  10.590  24.750  18.900
 2654DPPE   C4B53712  10.710  25.080  18.700
 2655DPPE   NH353713  11.930  18.820  22.460
 2655DPPE   PO453714  11.500  18.970  22.460
 2655DPPE   GL153715  11.600  18.740  22.010
 2655DPPE   GL253716  11.630  18.910  21.610
 2655DPPE   C1A53717  11.980  18.660  21.850
 2655DPPE   C2A53718  12.280  18.370  22.120
 2655DPPE   C3A53719  12.590  18.280  22.430
 2655DPPE   C4A53720  12.940  18.370  22.540
 2655DPPE   C1B53721  11.860  19.070  21.300
 2655DPPE   C2B53722  12.280  18.950  21.270
 2655DPPE   C3B53723  12.560  18.710  21.330
 2655DPPE   C4B53724  12.900  18.630  21.160
 2656DPPE   NH353725  11.430   8.900  18.310
 2656DPPE   PO453726  11.060   8.650  18.420
 2656DPPE   GL153727  10.870   8.430  18.740
 2656DPPE   GL253728  10.580   8.550  18.880
 2656DPPE   C1A53729  10.970   8.220  19.040
 2656DPPE   C2A53730  10.630   7.900  19.230
 2656DPPE   C3A53731  10.240   7.670  19.210
 2656DPPE   C4A53732   9.940   7.520  19.090
 2656DPPE   C1B53733  10.340   8.120  18.870
 2656DPPE   C2B53734  10.200   7.780  18.730
 2656DPPE   C3B53735   9.960   7.600  18.340
 2656DPPE   C4B53736   9.840   7.200  18.130
 2657DPPE   NH353737   8.400  17.520  21.380
 2657DPPE   PO453738   8.760  17.410  21.460
 2657DPPE   GL153739   8.460  17.380  21.850
 2657DPPE   GL253740   8.340  17.050  21.940
 2657DPPE   C1A53741   8.290  17.510  22.220
 2657DPPE   C2A53742   7.860  17.470  22.410
 2657DPPE   C3A53743   7.520  17.170  22.440
 2657DPPE   C4A53744   7.180  16.920  22.530
 2657DPPE   C1B53745   7.940  16.970  22.130
 2657DPPE   C2B53746   7.810  16.800  22.350
 2657DPPE   C3B53747   7.510  16.570  22.500
 2657DPPE   C4B53748   7.260  16.520  22.910
 2658DPPE   NH353749   6.490  20.350  19.100
 2658DPPE   PO453750   6.500  20.670  18.990
 2658DPPE   GL153751   6.160  20.620  19.400
 2658DPPE   GL253752   6.010  20.440  19.150
 2658DPPE   C1A53753   6.120  20.800  19.800
 2658DPPE   C2A53754   5.770  20.620  20.210
 2658DPPE   C3A53755   5.360  20.550  20.010
 2658DPPE   C4A53756   5.060  20.740  19.710
 2658DPPE   C1B53757   5.630  20.320  19.110
 2658DPPE   C2B53758   5.180  20.460  19.190
 2658DPPE   C3B53759   4.770  20.590  19.300
 2658DPPE   C4B53760   4.530  20.890  19.530
 2659DPPE   NH353761   7.050  19.010  17.010
 2659DPPE   PO453762   7.320  19.130  17.420
 2659DPPE   GL153763   7.510  19.400  17.110
 2659DPPE   GL253764   7.790  19.240  17.040
 2659DPPE   C1A53765   7.730  19.510  16.640
 2659DPPE   C2A53766   8.020  19.450  16.300
 2659DPPE   C3A53767   8.330  19.490  16.030
 2659DPPE   C4A53768   8.220  19.690  15.670
 2659DPPE   C1B53769   8.040  19.470  17.150
 2659DPPE   C2B53770   8.230  19.850  17.100
 2659DPPE   C3B53771   8.550  20.030  16.930
 2659DPPE   C4B53772   8.760  20.050  16.520
 2660DPPE   NH353773   7.340  23.160  18.730
 2660DPPE   PO453774   7.140  22.840  18.900
 2660DPPE   GL153775   6.810  23.040  18.910
 2660DPPE   GL253776   6.480  23.020  18.650
 2660DPPE   C1A53777   6.370  23.080  19.140
 2660DPPE   C2A53778   6.260  23.350  19.450
 2660DPPE   C3A53779   6.500  23.450  19.710
 2660DPPE   C4A53780   6.940  23.390  19.870
 2660DPPE   C1B53781   6.050  22.960  18.710
 2660DPPE   C2B53782   5.600  22.980  18.590
 2660DPPE   C3B53783   5.310  23.170  18.930
 2660DPPE   C4B53784   5.250  23.490  19.230
 2661DPPE   NH353785  14.460  13.470  23.960
 2661DPPE   PO453786  14.760  13.200  24.000
 2661DPPE   GL153787  14.710  13.240  24.380
 2661DPPE   GL253788  15.010  13.290  24.500
 2661DPPE   C1A53789  14.550  13.170  24.770
 2661DPPE   C2A53790  14.240  13.010  25.070
 2661DPPE   C3A53791  13.800  12.810  25.200
 2661DPPE   C4A53792  13.680  12.510  25.410
 2661DPPE   C1B53793  15.120  13.010  24.780
 2661DPPE   C2B53794  15.470  12.790  25.010
 2661DPPE   C3B53795  15.450  12.910  25.450
 2661DPPE   C4B53796  15.190  13.110  25.730
 2662DPPE   NH353797  10.470   8.470  16.540
 2662DPPE   PO453798  10.810   8.250  16.660
 2662DPPE   GL153799  11.160   8.210  16.520
 2662DPPE   GL253800  11.070   7.900  16.350
 2662DPPE   C1A53801  11.530   8.060  16.250
 2662DPPE   C2A53802  11.700   7.680  16.290
 2662DPPE   C3A53803  11.870   7.210  16.200
 2662DPPE   C4A53804  11.610   6.830  16.240
 2662DPPE   C1B53805  11.220   7.530  16.330
 2662DPPE   C2B53806  11.420   7.220  16.000
 2662DPPE   C3B53807  11.740   6.980  15.810
 2662DPPE   C4B53808  11.860   7.130  15.460
 2663DPPE   NH353809   6.880  21.760  19.440
 2663DPPE   PO453810   7.060  21.370  19.580
 2663DPPE   GL153811   6.950  21.450  19.960
 2663DPPE   GL253812   6.750  21.730  19.940
 2663DPPE   C1A53813   6.940  21.670  20.390
 2663DPPE   C2A53814   6.710  21.950  20.760
 2663DPPE   C3A53815   6.290  22.160  20.840
 2663DPPE   C4A53816   6.040  22.440  20.910
 2663DPPE   C1B53817   6.480  22.010  20.220
 2663DPPE   C2B53818   6.370  22.380  20.390
 2663DPPE   C3B53819   6.300  22.810  20.470
 2663DPPE   C4B53820   6.380  23.000  20.850
 2664DPPE   NH353821   7.260  22.380  19.780
 2664DPPE   PO453822   7.140  21.970  19.820
 2664DPPE   GL153823   6.800  22.230  19.780
 2664DPPE   GL253824   6.590  22.180  19.610
 2664DPPE   C1A53825   6.770  22.570  20.110
 2664DPPE   C2A53826   6.770  23.080  20.310
 2664DPPE   C3A53827   6.580  23.570  20.200
 2664DPPE   C4A53828   6.310  23.840  20.190
 2664DPPE   C1B53829   6.270  22.350  19.900
 2664DPPE   C2B53830   6.090  22.660  20.060
 2664DPPE   C3B53831   5.800  22.960  19.820
 2664DPPE   C4B53832   5.500  23.190  19.700
 2665DPPE   NH353833   8.520  11.100  16.660
 2665DPPE   PO453834   8.640  10.990  16.150
 2665DPPE   GL153835   9.110  10.980  16.060
 2665DPPE   GL253836   9.290  10.770  16.140
 2665DPPE   C1A53837   9.200  11.340  15.900
 2665DPPE   C2A53838   9.540  11.580  15.900
 2665DPPE   C3A53839   9.660  12.020  16.050
 2665DPPE   C4A53840   9.880  12.350  16.130
 2665DPPE   C1B53841   9.630  11.000  15.880
 2665DPPE   C2B53842  10.010  11.180  15.820
 2665DPPE   C3B53843  10.040  11.610  15.860
 2665DPPE   C4B53844  10.520  11.790  15.960
 2666DPPE   NH353845   8.490  17.120  19.790
 2666DPPE   PO453846   8.540  16.940  20.130
 2666DPPE   GL153847   8.980  16.950  19.900
 2666DPPE   GL253848   9.080  16.940  20.190
 2666DPPE   C1A53849   9.320  16.990  19.600
 2666DPPE   C2A53850   9.680  17.030  19.390
 2666DPPE   C3A53851   9.910  17.370  19.490
 2666DPPE   C4A53852   9.760  17.610  19.760
 2666DPPE   C1B53853   9.560  17.100  20.130
 2666DPPE   C2B53854   9.900  17.130  19.990
 2666DPPE   C3B53855  10.210  17.030  19.700
 2666DPPE   C4B53856  10.580  17.010  19.410
 2667DPPE   NH353857  14.110  13.910  24.510
 2667DPPE   PO453858  14.410  13.690  24.400
 2667DPPE   GL153859  14.600  13.680  24.720
 2667DPPE   GL253860  14.910  13.770  24.700
 2667DPPE   C1A53861  14.700  13.550  25.130
 2667DPPE   C2A53862  14.720  13.460  25.620
 2667DPPE   C3A53863  14.440  13.060  25.650
 2667DPPE   C4A53864  14.410  12.670  25.870
 2667DPPE   C1B53865  14.960  14.030  25.030
 2667DPPE   C2B53866  14.740  14.000  25.470
 2667DPPE   C3B53867  14.640  13.910  25.890
 2667DPPE   C4B53868  14.800  14.000  26.280
 2668DPPE   NH353869   8.040  11.100  18.030
 2668DPPE   PO453870   7.870  11.230  17.660
 2668DPPE   GL153871   7.540  10.930  17.850
 2668DPPE   GL253872   7.630  10.960  18.180
 2668DPPE   C1A53873   7.190  10.680  17.870
 2668DPPE   C2A53874   6.850  10.450  17.840
 2668DPPE   C3A53875   6.500  10.330  18.120
 2668DPPE   C4A53876   6.060  10.410  18.150
 2668DPPE   C1B53877   7.320  10.690  18.320
 2668DPPE   C2B53878   6.860  10.810  18.330
 2668DPPE   C3B53879   6.500  10.900  18.120
 2668DPPE   C4B53880   6.040  10.960  18.160
 2669DPPE   NH353881  12.230  20.190  23.610
 2669DPPE   PO453882  12.330  20.430  23.290
 2669DPPE   GL153883  12.410  20.610  23.740
 2669DPPE   GL253884  12.570  20.430  23.880
 2669DPPE   C1A53885  12.480  20.950  23.880
 2669DPPE   C2A53886  12.520  21.090  24.320
 2669DPPE   C3A53887  12.700  20.900  24.640
 2669DPPE   C4A53888  12.950  21.110  24.960
 2669DPPE   C1B53889  12.420  20.600  24.310
 2669DPPE   C2B53890  12.200  20.730  24.640
 2669DPPE   C3B53891  12.250  20.720  25.060
 2669DPPE   C4B53892  12.280  20.890  25.530
 2670DPPE   NH353893   5.050  17.640  15.720
 2670DPPE   PO453894   4.890  17.320  15.510
 2670DPPE   GL153895   4.390  17.170  15.510
 2670DPPE   GL253896   4.210  17.240  15.320
 2670DPPE   C1A53897   4.060  17.310  15.800
 2670DPPE   C2A53898   3.660  17.350  15.950
 2670DPPE   C3A53899   3.210  17.420  16.080
 2670DPPE   C4A53900   2.750  17.280  16.000
 2670DPPE   C1B53901   3.780  17.200  15.350
 2670DPPE   C2B53902   3.640  16.860  15.230
 2670DPPE   C3B53903   3.290  16.690  15.400
 2670DPPE   C4B53904   2.900  16.810  15.430
 2671DPPE   NH353905   8.360  10.370  13.620
 2671DPPE   PO453906   8.210   9.960  13.880
 2671DPPE   GL153907   8.310   9.940  13.320
 2671DPPE   GL253908   8.200  10.210  13.190
 2671DPPE   C1A53909   8.370   9.740  12.930
 2671DPPE   C2A53910   8.580   9.400  12.760
 2671DPPE   C3A53911   8.910   9.170  12.540
 2671DPPE   C4A53912   9.370   8.900  12.590
 2671DPPE   C1B53913   8.500  10.190  12.840
 2671DPPE   C2B53914   8.720  10.310  12.420
 2671DPPE   C3B53915   8.620  10.030  12.060
 2671DPPE   C4B53916   8.780   9.960  11.630
 2672DPPE   NH353917  14.260  16.210  24.450
 2672DPPE   PO453918  14.550  15.950  24.880
 2672DPPE   GL153919  14.810  15.930  25.290
 2672DPPE   GL253920  14.920  16.330  25.270
 2672DPPE   C1A53921  15.140  15.750  25.560
 2672DPPE   C2A53922  15.350  15.390  25.770
 2672DPPE   C3A53923  15.620  14.930  25.840
 2672DPPE   C4A53924  15.860  14.590  25.890
 2672DPPE   C1B53925  15.310  16.340  25.350
 2672DPPE   C2B53926  15.600  16.130  25.530
 2672DPPE   C3B53927  15.890  15.790  25.490
 2672DPPE   C4B53928  15.780  15.250  25.540
 2673DPPE   NH353929  10.740  22.420  20.840
 2673DPPE   PO453930  11.090  22.700  20.830
 2673DPPE   GL153931  11.490  22.670  20.650
 2673DPPE   GL253932  11.550  22.320  20.580
 2673DPPE   C1A53933  11.950  22.670  20.430
 2673DPPE   C2A53934  12.190  22.750  20.120
 2673DPPE   C3A53935  12.690  22.750  20.140
 2673DPPE   C4A53936  13.140  22.750  20.210
 2673DPPE   C1B53937  11.830  22.050  20.390
 2673DPPE   C2B53938  12.210  21.860  20.500
 2673DPPE   C3B53939  12.370  21.770  20.830
 2673DPPE   C4B53940  12.800  21.490  20.990
 2674DPPE   NH353941  13.120  16.230  23.470
 2674DPPE   PO453942  13.380  16.660  23.320
 2674DPPE   GL153943  13.440  16.770  22.830
 2674DPPE   GL253944  13.700  16.430  22.770
 2674DPPE   C1A53945  13.420  16.820  22.420
 2674DPPE   C2A53946  13.540  16.990  22.000
 2674DPPE   C3A53947  13.420  17.420  21.810
 2674DPPE   C4A53948  13.540  17.810  21.990
 2674DPPE   C1B53949  13.550  15.940  22.700
 2674DPPE   C2B53950  13.160  15.850  22.510
 2674DPPE   C3B53951  12.830  15.550  22.570
 2674DPPE   C4B53952  12.640  15.120  22.500
 2675DPPE   NH353953  11.050  12.070  21.330
 2675DPPE   PO453954  10.700  11.850  21.160
 2675DPPE   GL153955  10.340  11.920  21.490
 2675DPPE   GL253956  10.340  11.670  21.740
 2675DPPE   C1A53957   9.870  11.600  21.610
 2675DPPE   C2A53958   9.780  11.270  21.960
 2675DPPE   C3A53959   9.720  11.300  22.430
 2675DPPE   C4A53960   9.520  11.220  22.780
 2675DPPE   C1B53961  10.070  11.920  21.910
 2675DPPE   C2B53962   9.840  11.760  22.280
 2675DPPE   C3B53963   9.520  11.690  22.670
 2675DPPE   C4B53964   9.270  11.990  23.030
 2676DPPE   NH353965   9.640   8.610  16.710
 2676DPPE   PO453966   9.590   8.630  16.370
 2676DPPE   GL153967   9.530   8.290  16.230
 2676DPPE   GL253968   9.580   8.060  16.430
 2676DPPE   C1A53969   9.460   8.000  15.890
 2676DPPE   C2A53970   9.070   7.820  15.620
 2676DPPE   C3A53971   8.780   7.660  15.380
 2676DPPE   C4A53972   8.470   7.380  15.380
 2676DPPE   C1B53973   9.370   7.800  16.340
 2676DPPE   C2B53974   8.820   7.780  16.450
 2676DPPE   C3B53975   8.440   7.420  16.450
 2676DPPE   C4B53976   8.130   7.320  16.160
 2677DPPE   NH353977  10.070   8.620  16.310
 2677DPPE   PO453978  10.000   8.320  16.650
 2677DPPE   GL153979  10.140   8.080  16.310
 2677DPPE   GL253980  10.450   8.000  16.360
 2677DPPE   C1A53981   9.850   7.830  16.040
 2677DPPE   C2A53982   9.590   7.490  15.990
 2677DPPE   C3A53983   9.250   7.430  16.010
 2677DPPE   C4A53984   8.940   7.260  16.260
 2677DPPE   C1B53985  10.240   7.620  16.180
 2677DPPE   C2B53986  10.070   7.290  15.990
 2677DPPE   C3B53987   9.610   7.020  15.810
 2677DPPE   C4B53988   9.200   6.930  15.960
 2678DPPE   NH353989  10.030  20.990  20.740
 2678DPPE   PO453990   9.700  21.180  20.490
 2678DPPE   GL153991   9.990  21.170  20.210
 2678DPPE   GL253992  10.090  21.380  20.060
 2678DPPE   C1A53993  10.250  20.930  20.120
 2678DPPE   C2A53994  10.500  20.860  19.770
 2678DPPE   C3A53995  10.900  20.720  19.480
 2678DPPE   C4A53996  10.750  20.710  19.040
 2678DPPE   C1B53997  10.470  21.470  19.950
 2678DPPE   C2B53998  10.760  21.590  19.690
 2678DPPE   C3B53999  11.220  21.750  19.680
 2678DPPE   C4B54000  11.600  21.840  19.520
 2679DPPE   NH354001   5.930  15.430  16.960
 2679DPPE   PO454002   5.780  15.010  17.060
 2679DPPE   GL154003   5.510  14.920  17.310
 2679DPPE   GL254004   5.480  14.600  17.280
 2679DPPE   C1A54005   5.040  14.950  17.210
 2679DPPE   C2A54006   4.720  15.100  17.290
 2679DPPE   C3A54007   4.360  14.950  17.580
 2679DPPE   C4A54008   4.100  14.980  17.860
 2679DPPE   C1B54009   5.210  14.560  17.480
 2679DPPE   C2B54010   4.800  14.650  17.600
 2679DPPE   C3B54011   4.510  14.540  17.870
 2679DPPE   C4B54012   4.210  14.530  18.310
 2680DPPE   NH354013   9.640  17.980  22.200
 2680DPPE   PO454014   9.490  18.360  22.360
 2680DPPE   GL154015   9.280  18.260  22.740
 2680DPPE   GL254016   9.500  18.360  23.050
 2680DPPE   C1A54017   8.980  18.340  23.200
 2680DPPE   C2A54018   8.620  18.220  23.350
 2680DPPE   C3A54019   8.300  18.340  23.460
 2680DPPE   C4A54020   8.050  18.720  23.340
 2680DPPE   C1B54021   9.400  18.280  23.550
 2680DPPE   C2B54022   8.990  18.400  23.700
 2680DPPE   C3B54023   8.630  18.600  23.730
 2680DPPE   C4B54024   8.170  18.720  23.820
 2681DPPE   NH354025  15.350  11.270  21.740
 2681DPPE   PO454026  15.710  11.080  21.560
 2681DPPE   GL154027  16.190  11.020  21.580
 2681DPPE   GL254028  16.270  10.640  21.680
 2681DPPE   C1A54029  16.630  10.940  21.460
 2681DPPE   C2A54030  16.920  10.800  21.240
 2681DPPE   C3A54031  17.290  10.700  21.220
 2681DPPE   C4A54032  17.530  10.300  21.110
 2681DPPE   C1B54033  16.760  10.700  21.870
 2681DPPE   C2B54034  17.180  10.920  21.770
 2681DPPE   C3B54035  17.610  10.920  22.130
 2681DPPE   C4B54036  17.870  11.260  22.290
 2682DPPE   NH354037  11.620   9.860  18.160
 2682DPPE   PO454038  11.700   9.460  18.250
 2682DPPE   GL154039  11.880   9.690  17.780
 2682DPPE   GL254040  11.720   9.940  17.680
 2682DPPE   C1A54041  12.190   9.760  17.440
 2682DPPE   C2A54042  12.390   9.830  17.040
 2682DPPE   C3A54043  12.700   9.750  16.760
 2682DPPE   C4A54044  12.770   9.830  16.360
 2682DPPE   C1B54045  11.660  10.380  17.620
 2682DPPE   C2B54046  11.810  10.530  17.370
 2682DPPE   C3B54047  12.180  10.720  17.230
 2682DPPE   C4B54048  12.390  10.880  16.910
 2683DPPE   NH354049  13.470   8.500  19.470
 2683DPPE   PO454050  13.260   8.570  19.800
 2683DPPE   GL154051  13.250   8.300  20.040
 2683DPPE   GL254052  13.440   8.430  20.290
 2683DPPE   C1A54053  13.150   7.910  20.110
 2683DPPE   C2A54054  13.050   7.630  20.260
 2683DPPE   C3A54055  12.790   7.320  20.460
 2683DPPE   C4A54056  12.400   7.060  20.720
 2683DPPE   C1B54057  13.660   8.040  20.300
 2683DPPE   C2B54058  13.650   7.580  20.460
 2683DPPE   C3B54059  13.690   7.370  20.810
 2683DPPE   C4B54060  13.950   6.910  20.960
 2684DPPE   NH354061   7.240  10.570  15.910
 2684DPPE   PO454062   7.200  10.650  16.340
 2684DPPE   GL154063   6.830  10.670  16.220
 2684DPPE   GL254064   6.670  10.840  16.370
 2684DPPE   C1A54065   6.630  10.250  16.330
 2684DPPE   C2A54066   6.330   9.820  16.280
 2684DPPE   C3A54067   6.070   9.760  16.680
 2684DPPE   C4A54068   5.670   9.590  16.730
 2684DPPE   C1B54069   6.380  10.610  16.590
 2684DPPE   C2B54070   6.420  10.290  16.820
 2684DPPE   C3B54071   6.510   9.970  16.930
 2684DPPE   C4B54072   6.420   9.630  17.160
 2685DPPE   NH354073   5.140  16.620  14.940
 2685DPPE   PO454074   5.030  16.390  15.390
 2685DPPE   GL154075   4.560  16.230  15.390
 2685DPPE   GL254076   4.470  16.010  15.150
 2685DPPE   C1A54077   4.180  16.330  15.540
 2685DPPE   C2A54078   3.680  16.310  15.570
 2685DPPE   C3A54079   3.220  16.020  15.430
 2685DPPE   C4A54080   3.110  15.910  15.050
 2685DPPE   C1B54081   3.970  16.050  15.060
 2685DPPE   C2B54082   3.610  15.940  14.930
 2685DPPE   C3B54083   3.370  15.790  14.650
 2685DPPE   C4B54084   3.150  15.570  14.480
 2686DPPE   NH354085   8.290  16.710  19.530
 2686DPPE   PO454086   8.650  16.580  19.690
 2686DPPE   GL154087   8.870  16.780  19.420
 2686DPPE   GL254088   8.570  17.010  19.280
 2686DPPE   C1A54089   9.220  16.900  19.120
 2686DPPE   C2A54090   9.570  16.940  18.720
 2686DPPE   C3A54091   9.830  16.790  18.430
 2686DPPE   C4A54092   9.900  16.730  18.000
 2686DPPE   C1B54093   8.770  17.050  18.950
 2686DPPE   C2B54094   9.060  17.030  18.650
 2686DPPE   C3B54095   9.330  17.030  18.280
 2686DPPE   C4B54096   9.530  17.060  17.860
 2687DPPE   NH354097  15.020  14.950  24.070
 2687DPPE   PO454098  14.890  14.540  24.120
 2687DPPE   GL154099  14.940  14.510  24.590
 2687DPPE   GL254100  15.120  14.200  24.600
 2687DPPE   C1A54101  14.770  14.540  24.990
 2687DPPE   C2A54102  14.830  14.820  25.300
 2687DPPE   C3A54103  15.000  14.840  25.640
 2687DPPE   C4A54104  15.230  14.610  25.960
 2687DPPE   C1B54105  15.270  14.440  24.950
 2687DPPE   C2B54106  15.100  14.410  25.350
 2687DPPE   C3B54107  14.840  14.390  25.840
 2687DPPE   C4B54108  14.750  14.590  26.260
 2688DPPE   NH354109   6.630  16.840  19.020
 2688DPPE   PO454110   6.450  17.170  18.860
 2688DPPE   GL154111   6.150  17.000  19.160
 2688DPPE   GL254112   5.900  17.170  19.000
 2688DPPE   C1A54113   5.830  16.840  19.460
 2688DPPE   C2A54114   5.420  16.940  19.600
 2688DPPE   C3A54115   5.140  16.770  19.760
 2688DPPE   C4A54116   4.940  16.590  20.050
 2688DPPE   C1B54117   5.490  17.170  19.170
 2688DPPE   C2B54118   5.040  17.120  19.190
 2688DPPE   C3B54119   4.730  16.980  19.470
 2688DPPE   C4B54120   4.680  16.690  19.620
 2689DPPE   NH354121  12.840  22.440  22.140
 2689DPPE   PO454122  12.630  22.410  22.580
 2689DPPE   GL154123  12.750  22.860  22.460
 2689DPPE   GL254124  12.490  23.100  22.500
 2689DPPE   C1A54125  13.140  23.220  22.560
 2689DPPE   C2A54126  13.340  23.570  22.710
 2689DPPE   C3A54127  13.580  23.680  23.020
 2689DPPE   C4A54128  13.740  23.620  23.420
 2689DPPE   C1B54129  12.650  23.450  22.560
 2689DPPE   C2B54130  12.940  23.840  22.560
 2689DPPE   C3B54131  13.080  24.150  22.330
 2689DPPE   C4B54132  13.260  24.580  22.570
 2690DPPE   NH354133  10.250  11.650  21.030
 2690DPPE   PO454134  10.260  12.090  20.940
 2690DPPE   GL154135   9.830  12.000  21.310
 2690DPPE   GL254136   9.570  11.850  21.110
 2690DPPE   C1A54137   9.500  11.860  21.670
 2690DPPE   C2A54138   9.300  11.620  22.050
 2690DPPE   C3A54139   9.170  11.410  22.480
 2690DPPE   C4A54140   8.700  11.430  22.550
 2690DPPE   C1B54141   9.250  11.740  21.270
 2690DPPE   C2B54142   9.010  11.640  21.630
 2690DPPE   C3B54143   8.710  11.400  21.940
 2690DPPE   C4B54144   8.480  11.080  22.110
 2691DPPE   NH354145   8.920  10.720  18.170
 2691DPPE   PO454146   8.950  10.670  18.620
 2691DPPE   GL154147   8.880  10.270  18.830
 2691DPPE   GL254148   8.920   9.910  18.690
 2691DPPE   C1A54149   8.600   9.990  19.080
 2691DPPE   C2A54150   8.230   9.860  19.180
 2691DPPE   C3A54151   8.050   9.580  19.460
 2691DPPE   C4A54152   7.900   9.330  19.820
 2691DPPE   C1B54153   8.690   9.520  18.770
 2691DPPE   C2B54154   8.250   9.390  18.930
 2691DPPE   C3B54155   7.870   9.280  19.090
 2691DPPE   C4B54156   7.440   9.010  19.230
 2692DPPE   NH354157   8.060  10.740  17.540
 2692DPPE   PO454158   8.320  10.370  17.380
 2692DPPE   GL154159   7.960  10.250  17.610
 2692DPPE   GL254160   8.040  10.050  17.730
 2692DPPE   C1A54161   7.650  10.440  17.950
 2692DPPE   C2A54162   7.250  10.210  18.110
 2692DPPE   C3A54163   6.930  10.300  18.390
 2692DPPE   C4A54164   6.550  10.350  18.630
 2692DPPE   C1B54165   7.640   9.910  17.810
 2692DPPE   C2B54166   7.600   9.460  17.990
 2692DPPE   C3B54167   7.750   9.140  17.770
 2692DPPE   C4B54168   7.950   8.880  17.480
 2693DPPE   NH354169  10.840  18.220  22.470
 2693DPPE   PO454170  11.230  18.330  22.320
 2693DPPE   GL154171  11.270  18.390  21.870
 2693DPPE   GL254172  11.010  18.140  21.600
 2693DPPE   C1A54173  11.440  18.410  21.420
 2693DPPE   C2A54174  11.780  18.620  21.170
 2693DPPE   C3A54175  12.080  18.800  20.840
 2693DPPE   C4A54176  12.470  18.600  20.680
 2693DPPE   C1B54177  11.050  18.090  21.180
 2693DPPE   C2B54178  11.040  17.950  20.740
 2693DPPE   C3B54179  11.400  17.880  20.480
 2693DPPE   C4B54180  11.410  17.870  20.070
 2694DPPE   NH354181  11.700  18.570  23.470
 2694DPPE   PO454182  11.740  18.460  22.980
 2694DPPE   GL154183  12.000  18.350  22.540
 2694DPPE   GL254184  11.760  18.320  22.230
 2694DPPE   C1A54185  12.130  17.960  22.380
 2694DPPE   C2A54186  12.490  17.720  22.460
 2694DPPE   C3A54187  12.910  17.810  22.440
 2694DPPE   C4A54188  13.350  17.730  22.440
 2694DPPE   C1B54189  11.720  18.190  21.740
 2694DPPE   C2B54190  11.950  18.190  21.400
 2694DPPE   C3B54191  12.170  18.270  21.030
 2694DPPE   C4B54192  12.630  18.250  20.960
 2695DPPE   NH354193   5.050  15.380  15.320
 2695DPPE   PO454194   4.800  15.650  15.070
 2695DPPE   GL154195   4.350  15.480  14.990
 2695DPPE   GL254196   4.320  15.370  14.780
 2695DPPE   C1A54197   3.880  15.570  14.940
 2695DPPE   C2A54198   3.530  15.420  14.980
 2695DPPE   C3A54199   3.290  15.550  15.360
 2695DPPE   C4A54200   2.960  15.250  15.650
 2695DPPE   C1B54201   4.020  15.000  14.800
 2695DPPE   C2B54202   3.690  14.900  14.990
 2695DPPE   C3B54203   3.270  14.980  14.910
 2695DPPE   C4B54204   3.030  15.360  14.980
 2696DPPE   NH354205  13.740  21.890  22.580
 2696DPPE   PO454206  13.380  22.170  22.640
 2696DPPE   GL154207  13.700  22.490  22.640
 2696DPPE   GL254208  13.650  22.650  23.060
 2696DPPE   C1A54209  13.990  22.620  22.390
 2696DPPE   C2A54210  14.090  22.970  22.330
 2696DPPE   C3A54211  13.910  23.330  22.160
 2696DPPE   C4A54212  13.550  23.450  22.230
 2696DPPE   C1B54213  14.160  22.690  22.820
 2696DPPE   C2B54214  14.490  22.750  22.550
 2696DPPE   C3B54215  14.510  23.170  22.230
 2696DPPE   C4B54216  14.910  23.410  22.050
 2697DPPE   NH354217   5.520  13.930  16.070
 2697DPPE   PO454218   5.750  14.180  15.760
 2697DPPE   GL154219   5.290  13.950  15.660
 2697DPPE   GL254220   5.110  14.210  15.500
 2697DPPE   C1A54221   5.060  13.660  15.570
 2697DPPE   C2A54222   4.740  13.250  15.540
 2697DPPE   C3A54223   4.450  12.920  15.530
 2697DPPE   C4A54224   4.090  12.720  15.460
 2697DPPE   C1B54225   4.760  14.080  15.720
 2697DPPE   C2B54226   4.550  13.720  15.570
 2697DPPE   C3B54227   4.250  13.360  15.450
 2697DPPE   C4B54228   3.980  13.210  15.670
 2698DPPE   NH354229  11.370  13.570  21.210
 2698DPPE   PO454230  11.600  13.270  21.450
 2698DPPE   GL154231  11.950  13.450  21.330
 2698DPPE   GL254232  11.800  13.710  21.380
 2698DPPE   C1A54233  12.000  13.650  20.890
 2698DPPE   C2A54234  12.270  13.740  20.490
 2698DPPE   C3A54235  12.630  13.730  20.400
 2698DPPE   C4A54236  13.010  13.670  20.110
 2698DPPE   C1B54237  11.680  14.010  20.990
 2698DPPE   C2B54238  11.690  14.000  20.620
 2698DPPE   C3B54239  11.750  13.720  20.290
 2698DPPE   C4B54240  11.990  13.810  19.980
 2699DPPE   NH354241  14.880  14.730  23.100
 2699DPPE   PO454242  15.200  14.940  23.180
 2699DPPE   GL154243  15.570  15.190  23.040
 2699DPPE   GL254244  15.710  15.500  23.110
 2699DPPE   C1A54245  16.060  15.150  22.910
 2699DPPE   C2A54246  16.440  15.140  22.790
 2699DPPE   C3A54247  16.860  15.250  22.730
 2699DPPE   C4A54248  17.290  15.170  22.760
 2699DPPE   C1B54249  16.050  15.620  22.990
 2699DPPE   C2B54250  16.390  15.620  22.600
 2699DPPE   C3B54251  16.640  15.960  22.500
 2699DPPE   C4B54252  16.530  16.170  22.160
 2700DPPE   NH354253   9.020  15.790  21.840
 2700DPPE   PO454254   9.280  16.240  21.740
 2700DPPE   GL154255   8.970  16.200  22.170
 2700DPPE   GL254256   8.730  16.460  22.270
 2700DPPE   C1A54257   8.860  16.150  22.620
 2700DPPE   C2A54258   8.490  16.150  22.940
 2700DPPE   C3A54259   8.160  16.180  23.250
 2700DPPE   C4A54260   7.860  15.900  23.610
 2700DPPE   C1B54261   8.440  16.460  22.540
 2700DPPE   C2B54262   8.050  16.450  22.760
 2700DPPE   C3B54263   7.830  16.490  23.090
 2700DPPE   C4B54264   7.800  16.930  23.350
 2701DPPE   NH354265   7.740  15.240  18.880
 2701DPPE   PO454266   7.530  15.340  18.600
 2701DPPE   GL154267   7.880  15.270  18.370
 2701DPPE   GL254268   7.860  15.020  18.300
 2701DPPE   C1A54269   8.260  15.350  18.070
 2701DPPE   C2A54270   8.700  15.360  17.810
 2701DPPE   C3A54271   9.040  15.370  17.500
 2701DPPE   C4A54272   9.450  15.580  17.460
 2701DPPE   C1B54273   8.240  14.800  18.250
 2701DPPE   C2B54274   8.600  14.520  18.090
 2701DPPE   C3B54275   8.840  14.200  17.830
 2701DPPE   C4B54276   9.260  14.210  17.670
 2702DPPE   NH354277   7.300  16.880  20.030
 2702DPPE   PO454278   7.470  17.110  20.330
 2702DPPE   GL154279   7.250  16.990  20.650
 2702DPPE   GL254280   7.110  16.660  20.630
 2702DPPE   C1A54281   6.920  17.180  20.870
 2702DPPE   C2A54282   6.540  17.290  21.100
 2702DPPE   C3A54283   6.260  17.660  21.170
 2702DPPE   C4A54284   5.890  17.870  21.230
 2702DPPE   C1B54285   6.680  16.830  20.750
 2702DPPE   C2B54286   6.250  16.970  20.820
 2702DPPE   C3B54287   6.090  17.140  21.270
 2702DPPE   C4B54288   5.950  17.410  21.550
 2703DPPE   NH354289  12.270  17.790  23.820
 2703DPPE   PO454290  12.550  18.160  23.890
 2703DPPE   GL154291  12.570  18.080  24.280
 2703DPPE   GL254292  12.240  17.900  24.330
 2703DPPE   C1A54293  12.720  17.940  24.690
 2703DPPE   C2A54294  12.700  17.600  24.910
 2703DPPE   C3A54295  12.680  17.460  25.310
 2703DPPE   C4A54296  12.860  17.110  25.500
 2703DPPE   C1B54297  12.280  17.900  24.910
 2703DPPE   C2B54298  12.360  17.880  25.210
 2703DPPE   C3B54299  12.500  17.720  25.630
 2703DPPE   C4B54300  12.770  17.490  25.900
 2704DPPE   NH354301  13.580  18.900  22.950
 2704DPPE   PO454302  13.520  18.490  23.070
 2704DPPE   GL154303  13.710  18.430  22.700
 2704DPPE   GL254304  13.970  18.690  22.690
 2704DPPE   C1A54305  13.600  18.200  22.370
 2704DPPE   C2A54306  13.850  18.230  22.030
 2704DPPE   C3A54307  13.990  18.570  21.790
 2704DPPE   C4A54308  14.190  18.630  21.370
 2704DPPE   C1B54309  13.810  18.760  22.260
 2704DPPE   C2B54310  13.480  18.940  21.890
 2704DPPE   C3B54311  13.200  19.140  21.550
 2704DPPE   C4B54312  13.210  19.070  21.110
 2705DPPE   NH354313   8.400  23.760  18.900
 2705DPPE   PO454314   8.670  23.430  19.020
 2705DPPE   GL154315   8.980  23.790  18.910
 2705DPPE   GL254316   8.740  24.170  18.880
 2705DPPE   C1A54317   9.110  24.240  18.540
 2705DPPE   C2A54318   8.940  24.350  18.230
 2705DPPE   C3A54319   8.990  24.720  17.890
 2705DPPE   C4A54320   9.470  24.820  17.880
 2705DPPE   C1B54321   8.310  24.360  18.890
 2705DPPE   C2B54322   7.830  24.540  18.830
 2705DPPE   C3B54323   7.480  24.310  18.760
 2705DPPE   C4B54324   7.160  24.100  18.460
 2706DPPE   NH354325   7.070  21.960  17.510
 2706DPPE   PO454326   6.640  21.920  17.370
 2706DPPE   GL154327   6.420  22.330  17.370
 2706DPPE   GL254328   6.510  22.630  17.400
 2706DPPE   C1A54329   6.010  22.540  17.220
 2706DPPE   C2A54330   5.740  22.850  17.020
 2706DPPE   C3A54331   5.570  23.160  17.140
 2706DPPE   C4A54332   5.440  23.360  17.590
 2706DPPE   C1B54333   6.240  22.980  17.130
 2706DPPE   C2B54334   5.990  23.270  16.880
 2706DPPE   C3B54335   5.860  23.480  16.510
 2706DPPE   C4B54336   5.740  23.700  16.150
 2707DPPE   NH354337   8.590  11.160  15.650
 2707DPPE   PO454338   8.240  11.340  15.960
 2707DPPE   GL154339   8.470  11.630  15.650
 2707DPPE   GL254340   8.470  11.510  15.340
 2707DPPE   C1A54341   8.890  11.670  15.640
 2707DPPE   C2A54342   9.070  11.630  15.320
 2707DPPE   C3A54343   9.450  11.760  15.110
 2707DPPE   C4A54344   9.900  11.860  15.060
 2707DPPE   C1B54345   8.680  11.780  15.070
 2707DPPE   C2B54346   9.030  11.970  14.900
 2707DPPE   C3B54347   9.320  12.330  14.810
 2707DPPE   C4B54348   9.430  12.540  14.460
 2708DPPE   NH354349   7.840   9.570  14.710
 2708DPPE   PO454350   7.560   9.490  14.380
 2708DPPE   GL154351   7.130   9.650  14.260
 2708DPPE   GL254352   6.980   9.580  13.980
 2708DPPE   C1A54353   6.650   9.590  14.360
 2708DPPE   C2A54354   6.310   9.710  14.180
 2708DPPE   C3A54355   6.130   9.880  13.840
 2708DPPE   C4A54356   6.020   9.640  13.530
 2708DPPE   C1B54357   6.830   9.260  13.700
 2708DPPE   C2B54358   6.740   8.820  13.810
 2708DPPE   C3B54359   6.940   8.350  14.040
 2708DPPE   C4B54360   7.380   8.330  14.250
 2709DPPE   NH354361   7.180  21.000  17.710
 2709DPPE   PO454362   7.120  21.130  17.330
 2709DPPE   GL154363   7.660  20.970  17.240
 2709DPPE   GL254364   7.800  21.250  17.350
 2709DPPE   C1A54365   8.010  20.970  16.990
 2709DPPE   C2A54366   7.960  20.690  16.560
 2709DPPE   C3A54367   8.140  20.820  16.210
 2709DPPE   C4A54368   8.530  20.670  16.080
 2709DPPE   C1B54369   8.240  21.220  17.350
 2709DPPE   C2B54370   8.730  21.140  17.280
 2709DPPE   C3B54371   9.070  21.090  16.970
 2709DPPE   C4B54372   9.370  21.370  16.850
 2710DPPE   NH354373   5.870  16.840  15.250
 2710DPPE   PO454374   6.180  16.830  15.630
 2710DPPE   GL154375   6.520  16.790  15.380
 2710DPPE   GL254376   6.600  16.540  15.410
 2710DPPE   C1A54377   6.850  17.040  15.290
 2710DPPE   C2A54378   7.130  17.250  15.020
 2710DPPE   C3A54379   7.320  17.550  14.900
 2710DPPE   C4A54380   7.160  17.880  14.590
 2710DPPE   C1B54381   6.980  16.350  15.190
 2710DPPE   C2B54382   7.390  16.490  14.970
 2710DPPE   C3B54383   7.830  16.510  15.030
 2710DPPE   C4B54384   8.200  16.320  15.040
 2711DPPE   NH354385  11.010  10.270  19.080
 2711DPPE   PO454386  11.000  10.750  19.110
 2711DPPE   GL154387  10.980  11.220  19.090
 2711DPPE   GL254388  11.170  11.350  19.310
 2711DPPE   C1A54389  11.250  11.440  18.800
 2711DPPE   C2A54390  11.640  11.370  18.790
 2711DPPE   C3A54391  11.990  11.470  18.580
 2711DPPE   C4A54392  12.400  11.490  18.400
 2711DPPE   C1B54393  11.480  11.650  19.210
 2711DPPE   C2B54394  11.710  11.920  18.830
 2711DPPE   C3B54395  11.990  11.970  18.390
 2711DPPE   C4B54396  12.380  11.930  18.290
 2712DPPE   NH354397  12.540   8.980  19.420
 2712DPPE   PO454398  12.390   8.760  19.660
 2712DPPE   GL154399  12.330   8.880  20.070
 2712DPPE   GL254400  12.290   9.190  20.260
 2712DPPE   C1A54401  12.490   8.650  20.400
 2712DPPE   C2A54402  12.380   8.300  20.650
 2712DPPE   C3A54403  12.580   7.970  20.950
 2712DPPE   C4A54404  12.690   7.930  21.380
 2712DPPE   C1B54405  12.000   8.820  20.480
 2712DPPE   C2B54406  11.680   8.680  20.800
 2712DPPE   C3B54407  11.560   8.260  20.910
 2712DPPE   C4B54408  11.170   8.110  21.090
 2713DPPE   NH354409   6.360  11.190  14.690
 2713DPPE   PO454410   6.300  11.620  14.810
 2713DPPE   GL154411   5.920  11.430  14.970
 2713DPPE   GL254412   5.770  11.470  15.280
 2713DPPE   C1A54413   5.500  11.080  15.090
 2713DPPE   C2A54414   5.130  11.090  15.460
 2713DPPE   C3A54415   4.720  11.190  15.510
 2713DPPE   C4A54416   4.380  11.370  15.590
 2713DPPE   C1B54417   5.550  11.460  15.550
 2713DPPE   C2B54418   5.120  11.560  15.740
 2713DPPE   C3B54419   4.760  11.400  16.010
 2713DPPE   C4B54420   4.660  11.140  16.280
 2714DPPE   NH354421  11.050   9.880  18.270
 2714DPPE   PO454422  11.320  10.000  18.530
 2714DPPE   GL154423  11.750  10.260  18.460
 2714DPPE   GL254424  11.880  10.310  18.100
 2714DPPE   C1A54425  12.090  10.530  18.460
 2714DPPE   C2A54426  12.450  10.740  18.170
 2714DPPE   C3A54427  12.460  10.990  17.730
 2714DPPE   C4A54428  12.600  10.990  17.390
 2714DPPE   C1B54429  12.130  10.290  17.680
 2714DPPE   C2B54430  12.220  10.230  17.290
 2714DPPE   C3B54431  12.380  10.340  16.850
 2714DPPE   C4B54432  12.530  10.240  16.380
 2715DPPE   NH354433   7.890  18.850  20.380
 2715DPPE   PO454434   7.880  18.720  20.790
 2715DPPE   GL154435   7.900  18.480  21.180
 2715DPPE   GL254436   8.000  18.830  21.340
 2715DPPE   C1A54437   7.580  18.440  21.400
 2715DPPE   C2A54438   7.470  18.430  21.890
 2715DPPE   C3A54439   7.160  18.550  22.090
 2715DPPE   C4A54440   6.850  18.520  22.350
 2715DPPE   C1B54441   7.830  18.850  21.820
 2715DPPE   C2B54442   7.540  18.920  22.110
 2715DPPE   C3B54443   7.330  18.930  22.470
 2715DPPE   C4B54444   7.120  18.690  22.690
 2716DPPE   NH354445  12.860  13.500  23.420
 2716DPPE   PO454446  12.470  13.830  23.370
 2716DPPE   GL154447  12.340  13.680  23.810
 2716DPPE   GL254448  12.520  13.390  23.820
 2716DPPE   C1A54449  12.110  13.750  24.170
 2716DPPE   C2A54450  11.790  13.970  24.450
 2716DPPE   C3A54451  11.680  14.030  24.910
 2716DPPE   C4A54452  11.500  14.030  25.340
 2716DPPE   C1B54453  12.310  13.200  24.180
 2716DPPE   C2B54454  12.230  13.080  24.550
 2716DPPE   C3B54455  11.960  13.260  24.750
 2716DPPE   C4B54456  11.700  13.490  24.610
 2717DPPE   NH354457   8.780   9.590  14.490
 2717DPPE   PO454458   9.040  10.070  14.480
 2717DPPE   GL154459   9.070   9.800  14.100
 2717DPPE   GL254460   9.110   9.520  14.010
 2717DPPE   C1A54461   9.460   9.890  13.960
 2717DPPE   C2A54462   9.690  10.150  13.620
 2717DPPE   C3A54463   9.630  10.270  13.260
 2717DPPE   C4A54464   9.280  10.200  13.080
 2717DPPE   C1B54465   9.410   9.340  13.810
 2717DPPE   C2B54466   9.470   9.050  13.510
 2717DPPE   C3B54467   9.660   8.750  13.330
 2717DPPE   C4B54468   9.780   8.750  12.910
 2718DPPE   NH354469   8.930  14.210  20.740
 2718DPPE   PO454470   8.630  14.240  20.380
 2718DPPE   GL154471   8.430  13.990  20.750
 2718DPPE   GL254472   8.030  14.130  20.740
 2718DPPE   C1A54473   8.330  13.590  20.990
 2718DPPE   C2A54474   8.030  13.540  21.370
 2718DPPE   C3A54475   7.730  13.600  21.730
 2718DPPE   C4A54476   7.550  13.710  22.040
 2718DPPE   C1B54477   7.650  14.090  20.880
 2718DPPE   C2B54478   7.270  14.170  21.100
 2718DPPE   C3B54479   6.840  14.200  21.110
 2718DPPE   C4B54480   6.440  14.150  20.910
 2719DPPE   NH354481   9.790  14.890  21.540
 2719DPPE   PO454482   9.410  14.880  21.380
 2719DPPE   GL154483   8.990  14.720  21.710
 2719DPPE   GL254484   8.610  14.650  21.560
 2719DPPE   C1A54485   8.890  14.520  22.140
 2719DPPE   C2A54486   8.800  14.090  22.390
 2719DPPE   C3A54487   8.660  13.790  22.790
 2719DPPE   C4A54488   8.550  13.400  23.090
 2719DPPE   C1B54489   8.470  14.680  22.010
 2719DPPE   C2B54490   8.380  14.560  22.440
 2719DPPE   C3B54491   8.530  14.380  22.850
 2719DPPE   C4B54492   8.590  14.040  23.220
 2720DPPE   NH354493  12.820  22.190  23.020
 2720DPPE   PO454494  13.230  22.130  23.150
 2720DPPE   GL154495  13.420  22.100  23.610
 2720DPPE   GL254496  13.230  21.910  23.850
 2720DPPE   C1A54497  13.760  22.010  23.850
 2720DPPE   C2A54498  14.200  21.930  23.540
 2720DPPE   C3A54499  14.520  21.980  23.270
 2720DPPE   C4A54500  14.770  22.330  23.310
 2720DPPE   C1B54501  12.830  21.880  24.140
 2720DPPE   C2B54502  12.660  21.730  24.480
 2720DPPE   C3B54503  12.460  21.470  24.640
 2720DPPE   C4B54504  12.370  21.190  24.900
 2721DPPE   NH354505  12.340   8.200  18.890
 2721DPPE   PO454506  11.980   8.610  18.790
 2721DPPE   GL154507  11.890   8.250  19.050
 2721DPPE   GL254508  11.630   8.170  18.870
 2721DPPE   C1A54509  11.760   8.050  19.360
 2721DPPE   C2A54510  11.540   7.880  19.610
 2721DPPE   C3A54511  11.460   7.560  19.930
 2721DPPE   C4A54512  11.230   7.640  20.230
 2721DPPE   C1B54513  11.360   7.890  18.880
 2721DPPE   C2B54514  11.190   7.740  19.190
 2721DPPE   C3B54515  11.290   7.370  19.500
 2721DPPE   C4B54516  11.380   7.050  19.880
 2722DPPE   NH354517  10.620  17.910  21.770
 2722DPPE   PO454518  10.250  17.690  21.890
 2722DPPE   GL154519  10.340  17.610  21.400
 2722DPPE   GL254520  10.330  17.890  21.340
 2722DPPE   C1A54521  10.730  17.560  21.220
 2722DPPE   C2A54522  11.120  17.540  21.170
 2722DPPE   C3A54523  11.510  17.580  20.930
 2722DPPE   C4A54524  11.870  17.910  20.770
 2722DPPE   C1B54525  10.500  17.840  20.940
 2722DPPE   C2B54526  10.630  17.930  20.480
 2722DPPE   C3B54527  10.850  17.680  20.120
 2722DPPE   C4B54528  10.890  17.660  19.740
 2723DPPE   NH354529   7.130  10.130  13.850
 2723DPPE   PO454530   6.920  10.290  14.200
 2723DPPE   GL154531   6.620  10.030  14.000
 2723DPPE   GL254532   6.490  10.200  13.740
 2723DPPE   C1A54533   6.520   9.640  13.680
 2723DPPE   C2A54534   6.310   9.130  13.540
 2723DPPE   C3A54535   5.860   9.090  13.420
 2723DPPE   C4A54536   5.470   9.060  13.320
 2723DPPE   C1B54537   6.040  10.180  13.440
 2723DPPE   C2B54538   5.780   9.950  13.200
 2723DPPE   C3B54539   5.540   9.910  12.900
 2723DPPE   C4B54540   5.520   9.820  12.450
 2724DPPE   NH354541   5.420  15.120  12.730
 2724DPPE   PO454542   5.310  15.530  12.940
 2724DPPE   GL154543   4.980  15.250  12.770
 2724DPPE   GL254544   4.830  15.120  13.060
 2724DPPE   C1A54545   4.840  14.960  12.420
 2724DPPE   C2A54546   4.740  14.740  12.030
 2724DPPE   C3A54547   4.710  14.390  11.740
 2724DPPE   C4A54548   5.010  14.190  11.610
 2724DPPE   C1B54549   4.430  15.200  12.800
 2724DPPE   C2B54550   4.380  15.100  12.320
 2724DPPE   C3B54551   4.240  15.340  12.000
 2724DPPE   C4B54552   4.080  15.820  12.020
 2725DPPE   NH354553   9.090  16.950  20.760
 2725DPPE   PO454554   9.120  16.450  20.620
 2725DPPE   GL154555   9.360  16.490  20.250
 2725DPPE   GL254556   9.380  16.610  19.910
 2725DPPE   C1A54557   9.770  16.410  20.090
 2725DPPE   C2A54558  10.230  16.400  20.130
 2725DPPE   C3A54559  10.530  16.540  19.810
 2725DPPE   C4A54560  10.870  16.390  19.450
 2725DPPE   C1B54561   9.690  16.680  19.680
 2725DPPE   C2B54562  10.120  16.680  19.370
 2725DPPE   C3B54563  10.440  16.670  19.150
 2725DPPE   C4B54564  10.900  16.660  19.050
 2726DPPE   NH354565   7.820  16.860  21.340
 2726DPPE   PO454566   8.140  16.450  21.370
 2726DPPE   GL154567   7.840  16.410  21.610
 2726DPPE   GL254568   7.900  16.600  21.800
 2726DPPE   C1A54569   7.570  16.250  21.860
 2726DPPE   C2A54570   7.430  16.030  22.240
 2726DPPE   C3A54571   6.960  15.990  22.340
 2726DPPE   C4A54572   6.740  16.020  22.600
 2726DPPE   C1B54573   8.050  16.390  22.190
 2726DPPE   C2B54574   7.830  16.200  22.450
 2726DPPE   C3B54575   7.510  16.120  22.780
 2726DPPE   C4B54576   7.220  15.810  22.880
 2727DPPE   NH354577  10.770   8.950  18.650
 2727DPPE   PO454578  11.170   8.980  18.830
 2727DPPE   GL154579  11.020   8.760  19.170
 2727DPPE   GL254580  10.970   8.920  19.420
 2727DPPE   C1A54581  10.730   8.480  19.450
 2727DPPE   C2A54582  10.580   8.160  19.760
 2727DPPE   C3A54583  10.620   7.730  19.980
 2727DPPE   C4A54584  10.720   7.600  20.360
 2727DPPE   C1B54585  10.610   8.900  19.730
 2727DPPE   C2B54586  10.330   8.530  19.860
 2727DPPE   C3B54587  10.190   8.180  20.160
 2727DPPE   C4B54588  10.110   7.720  20.140
 2728DPPE   NH354589  14.230  13.200  21.960
 2728DPPE   PO454590  13.820  13.300  22.150
 2728DPPE   GL154591  13.780  13.350  21.740
 2728DPPE   GL254592  14.080  13.540  21.620
 2728DPPE   C1A54593  13.870  13.210  21.230
 2728DPPE   C2A54594  13.920  13.540  20.870
 2728DPPE   C3A54595  13.980  13.680  20.470
 2728DPPE   C4A54596  14.000  13.520  20.010
 2728DPPE   C1B54597  14.290  13.530  21.190
 2728DPPE   C2B54598  14.440  13.630  20.800
 2728DPPE   C3B54599  14.300  14.010  20.530
 2728DPPE   C4B54600  14.470  14.390  20.410
 2729DPPE   NH354601   5.710  16.190  17.490
 2729DPPE   PO454602   5.900  15.810  17.370
 2729DPPE   GL154603   5.430  15.540  17.400
 2729DPPE   GL254604   5.370  15.850  17.410
 2729DPPE   C1A54605   5.230  15.230  17.550
 2729DPPE   C2A54606   5.040  15.000  17.760
 2729DPPE   C3A54607   4.660  15.030  17.990
 2729DPPE   C4A54608   4.270  15.080  18.310
 2729DPPE   C1B54609   5.100  15.770  17.720
 2729DPPE   C2B54610   4.980  15.520  18.000
 2729DPPE   C3B54611   4.610  15.480  18.200
 2729DPPE   C4B54612   4.310  15.530  18.440
 2730DPPE   NH354613   6.240  14.360  15.750
 2730DPPE   PO454614   6.150  14.820  15.480
 2730DPPE   GL154615   6.560  15.050  15.400
 2730DPPE   GL254616   6.570  15.300  15.120
 2730DPPE   C1A54617   7.030  14.880  15.180
 2730DPPE   C2A54618   7.420  14.910  15.130
 2730DPPE   C3A54619   7.770  14.980  15.360
 2730DPPE   C4A54620   8.170  15.220  15.520
 2730DPPE   C1B54621   6.820  15.440  14.690
 2730DPPE   C2B54622   7.050  15.760  14.500
 2730DPPE   C3B54623   7.370  15.950  14.390
 2730DPPE   C4B54624   7.680  16.230  14.660
 2731DPPE   NH354625   6.060  21.210  17.880
 2731DPPE   PO454626   5.920  21.030  17.450
 2731DPPE   GL154627   5.580  21.050  17.720
 2731DPPE   GL254628   5.450  21.120  18.050
 2731DPPE   C1A54629   5.330  21.520  17.720
 2731DPPE   C2A54630   5.090  21.800  17.850
 2731DPPE   C3A54631   4.990  22.160  18.040
 2731DPPE   C4A54632   4.870  22.600  18.040
 2731DPPE   C1B54633   5.060  21.430  18.150
 2731DPPE   C2B54634   4.660  21.590  18.120
 2731DPPE   C3B54635   4.310  21.890  18.120
 2731DPPE   C4B54636   3.890  21.950  18.000
 2732DPPE   NH354637   9.950  18.080  23.100
 2732DPPE   PO454638  10.180  17.710  22.900
 2732DPPE   GL154639  10.120  17.570  23.340
 2732DPPE   GL254640  10.150  17.890  23.530
 2732DPPE   C1A54641  10.120  17.270  23.670
 2732DPPE   C2A54642   9.990  17.270  24.030
 2732DPPE   C3A54643   9.980  17.140  24.460
 2732DPPE   C4A54644   9.550  17.080  24.580
 2732DPPE   C1B54645   9.940  17.750  23.890
 2732DPPE   C2B54646   9.880  17.730  24.270
 2732DPPE   C3B54647   9.680  17.610  24.690
 2732DPPE   C4B54648   9.460  17.530  25.040
 2733DPPE   NH354649   5.210  18.030  16.560
 2733DPPE   PO454650   5.430  17.980  16.960
 2733DPPE   GL154651   5.080  17.990  17.200
 2733DPPE   GL254652   4.820  17.900  16.890
 2733DPPE   C1A54653   4.640  18.010  17.350
 2733DPPE   C2A54654   4.430  18.260  17.610
 2733DPPE   C3A54655   4.060  18.580  17.710
 2733DPPE   C4A54656   3.650  18.690  17.740
 2733DPPE   C1B54657   4.610  17.530  17.140
 2733DPPE   C2B54658   4.070  17.460  17.390
 2733DPPE   C3B54659   3.790  17.510  17.640
 2733DPPE   C4B54660   3.280  17.420  17.710
 2734DPPE   NH354661   8.450  22.590  18.030
 2734DPPE   PO454662   8.040  22.800  17.920
 2734DPPE   GL154663   8.080  23.070  17.620
 2734DPPE   GL254664   8.480  23.050  17.700
 2734DPPE   C1A54665   8.160  23.060  17.250
 2734DPPE   C2A54666   8.270  22.870  16.780
 2734DPPE   C3A54667   8.620  22.920  16.600
 2734DPPE   C4A54668   8.800  22.810  16.240
 2734DPPE   C1B54669   8.700  22.990  17.390
 2734DPPE   C2B54670   8.800  22.740  17.030
 2734DPPE   C3B54671   9.020  22.640  16.700
 2734DPPE   C4B54672   9.190  23.050  16.680
 2735DPPE   NH354673  10.210  13.980  20.440
 2735DPPE   PO454674  10.230  13.670  20.780
 2735DPPE   GL154675  10.570  13.510  20.450
 2735DPPE   GL254676  10.820  13.240  20.470
 2735DPPE   C1A54677  10.740  13.740  20.080
 2735DPPE   C2A54678  11.010  13.780  19.710
 2735DPPE   C3A54679  10.990  13.960  19.270
 2735DPPE   C4A54680  11.100  14.160  18.930
 2735DPPE   C1B54681  11.060  13.250  20.010
 2735DPPE   C2B54682  11.470  13.550  19.810
 2735DPPE   C3B54683  11.600  13.790  19.460
 2735DPPE   C4B54684  11.550  13.880  18.910
 2736DPPE   NH354685   9.500  11.880  19.960
 2736DPPE   PO454686   9.580  12.120  20.290
 2736DPPE   GL154687   9.300  11.900  20.620
 2736DPPE   GL254688   9.200  11.990  20.820
 2736DPPE   C1A54689   9.070  11.510  20.590
 2736DPPE   C2A54690   8.790  11.100  20.610
 2736DPPE   C3A54691   8.990  10.780  20.910
 2736DPPE   C4A54692   9.020  10.500  21.290
 2736DPPE   C1B54693   8.830  11.750  20.970
 2736DPPE   C2B54694   8.590  11.630  21.370
 2736DPPE   C3B54695   8.370  11.320  21.610
 2736DPPE   C4B54696   8.100  11.420  21.940
 2737DPPE   NH354697  12.010  10.160  21.090
 2737DPPE   PO454698  12.000   9.760  20.820
 2737DPPE   GL154699  11.780   9.640  21.130
 2737DPPE   GL254700  12.070   9.430  21.180
 2737DPPE   C1A54701  11.590   9.350  21.370
 2737DPPE   C2A54702  11.490   9.070  21.780
 2737DPPE   C3A54703  11.530   8.810  22.130
 2737DPPE   C4A54704  11.440   8.640  22.520
 2737DPPE   C1B54705  11.970   9.080  21.470
 2737DPPE   C2B54706  11.860   8.820  21.700
 2737DPPE   C3B54707  11.880   8.480  21.860
 2737DPPE   C4B54708  11.920   8.410  22.320
 2738DPPE   NH354709   9.440  16.210  20.910
 2738DPPE   PO454710   9.560  16.250  21.310
 2738DPPE   GL154711   9.870  16.490  20.940
 2738DPPE   GL254712   9.730  16.610  20.660
 2738DPPE   C1A54713  10.250  16.740  20.780
 2738DPPE   C2A54714  10.480  16.980  20.640
 2738DPPE   C3A54715  10.690  17.260  20.260
 2738DPPE   C4A54716  10.670  17.250  19.840
 2738DPPE   C1B54717  10.050  16.810  20.340
 2738DPPE   C2B54718  10.420  16.890  20.110
 2738DPPE   C3B54719  10.800  16.750  20.160
 2738DPPE   C4B54720  11.070  16.440  19.880
 2739DPPE   NH354721   4.970  13.190  13.610
 2739DPPE   PO454722   5.140  13.570  13.730
 2739DPPE   GL154723   4.890  13.510  13.260
 2739DPPE   GL254724   4.870  13.250  13.040
 2739DPPE   C1A54725   4.490  13.820  13.220
 2739DPPE   C2A54726   4.300  14.200  13.100
 2739DPPE   C3A54727   4.020  14.510  13.100
 2739DPPE   C4A54728   3.580  14.420  12.910
 2739DPPE   C1B54729   4.970  13.310  12.620
 2739DPPE   C2B54730   5.160  13.440  12.190
 2739DPPE   C3B54731   5.270  13.630  11.770
 2739DPPE   C4B54732   5.510  13.540  11.410
 2740DPPE   NH354733   7.030  18.130  17.220
 2740DPPE   PO454734   6.910  18.370  17.580
 2740DPPE   GL154735   7.320  18.500  17.490
 2740DPPE   GL254736   7.350  18.700  17.200
 2740DPPE   C1A54737   7.810  18.590  17.320
 2740DPPE   C2A54738   8.040  18.380  17.020
 2740DPPE   C3A54739   8.520  18.280  17.090
 2740DPPE   C4A54740   8.870  18.520  16.930
 2740DPPE   C1B54741   7.640  18.660  16.860
 2740DPPE   C2B54742   8.010  18.560  16.580
 2740DPPE   C3B54743   8.110  18.550  16.200
 2740DPPE   C4B54744   8.320  18.170  16.060
 2741DPPE   NH354745   4.670  14.710  14.100
 2741DPPE   PO454746   4.980  14.880  14.410
 2741DPPE   GL154747   4.650  14.900  14.670
 2741DPPE   GL254748   4.380  14.960  14.440
 2741DPPE   C1A54749   4.270  14.560  14.720
 2741DPPE   C2A54750   3.830  14.500  14.700
 2741DPPE   C3A54751   3.500  14.490  14.720
 2741DPPE   C4A54752   3.290  14.330  14.410
 2741DPPE   C1B54753   3.940  14.970  14.200
 2741DPPE   C2B54754   3.820  14.960  13.870
 2741DPPE   C3B54755   3.780  15.180  13.530
 2741DPPE   C4B54756   3.980  15.620  13.370
 2742DPPE   NH354757   9.030   8.770  14.540
 2742DPPE   PO454758   8.550   8.780  14.570
 2742DPPE   GL154759   8.320   8.370  14.580
 2742DPPE   GL254760   8.290   8.180  14.370
 2742DPPE   C1A54761   8.050   8.170  14.920
 2742DPPE   C2A54762   7.600   8.150  14.970
 2742DPPE   C3A54763   7.250   8.040  14.900
 2742DPPE   C4A54764   6.870   7.920  14.810
 2742DPPE   C1B54765   8.560   7.950  14.090
 2742DPPE   C2B54766   8.820   7.800  13.700
 2742DPPE   C3B54767   9.220   7.870  13.370
 2742DPPE   C4B54768   9.650   7.850  13.170
 2743DPPE   NH354769  13.580  10.840  22.770
 2743DPPE   PO454770  13.800  10.720  22.430
 2743DPPE   GL154771  13.810  10.300  22.650
 2743DPPE   GL254772  13.760  10.000  22.400
 2743DPPE   C1A54773  13.870  10.010  22.880
 2743DPPE   C2A54774  14.190   9.780  23.210
 2743DPPE   C3A54775  14.260   9.400  23.400
 2743DPPE   C4A54776  14.580   9.190  23.590
 2743DPPE   C1B54777  13.620   9.670  22.580
 2743DPPE   C2B54778  13.440   9.430  22.860
 2743DPPE   C3B54779  13.200   9.040  22.910
 2743DPPE   C4B54780  12.910   8.910  23.230
 2744DPPE   NH354781  15.290  17.550  24.370
 2744DPPE   PO454782  15.400  17.500  24.060
 2744DPPE   GL154783  15.710  17.750  24.240
 2744DPPE   GL254784  15.760  18.050  24.200
 2744DPPE   C1A54785  16.010  17.570  24.460
 2744DPPE   C2A54786  16.090  17.360  24.690
 2744DPPE   C3A54787  16.380  17.290  25.040
 2744DPPE   C4A54788  16.610  17.410  25.450
 2744DPPE   C1B54789  16.050  18.370  24.070
 2744DPPE   C2B54790  15.970  18.790  24.130
 2744DPPE   C3B54791  15.980  19.190  23.940
 2744DPPE   C4B54792  16.280  19.550  23.890
 2745DPPE   NH354793  14.240  12.360  21.770
 2745DPPE   PO454794  14.010  12.340  21.420
 2745DPPE   GL154795  13.860  12.630  21.100
 2745DPPE   GL254796  14.140  12.530  20.920
 2745DPPE   C1A54797  13.880  12.980  20.730
 2745DPPE   C2A54798  13.930  13.220  20.400
 2745DPPE   C3A54799  14.380  13.400  20.360
 2745DPPE   C4A54800  14.860  13.400  20.460
 2745DPPE   C1B54801  14.350  13.000  20.810
 2745DPPE   C2B54802  14.670  12.940  20.460
 2745DPPE   C3B54803  14.590  13.030  20.020
 2745DPPE   C4B54804  14.750  13.420  19.960
 2746DPPE   NH354805   6.350  19.450  15.590
 2746DPPE   PO454806   6.250  19.750  15.380
 2746DPPE   GL154807   6.450  20.030  15.140
 2746DPPE   GL254808   6.670  20.240  15.320
 2746DPPE   C1A54809   6.400  20.180  14.690
 2746DPPE   C2A54810   6.690  20.320  14.350
 2746DPPE   C3A54811   6.740  20.310  13.920
 2746DPPE   C4A54812   6.840  20.430  13.610
 2746DPPE   C1B54813   7.040  20.520  15.280
 2746DPPE   C2B54814   7.230  20.740  14.910
 2746DPPE   C3B54815   7.400  21.000  14.600
 2746DPPE   C4B54816   7.780  21.060  14.360
 2747DPPE   NH354817  15.480  11.790  21.840
 2747DPPE   PO454818  15.760  11.610  21.520
 2747DPPE   GL154819  16.160  11.530  21.550
 2747DPPE   GL254820  16.360  11.410  21.900
 2747DPPE   C1A54821  16.460  11.530  21.260
 2747DPPE   C2A54822  16.600  11.940  21.310
 2747DPPE   C3A54823  16.970  12.350  21.180
 2747DPPE   C4A54824  17.160  12.780  21.200
 2747DPPE   C1B54825  16.760  11.340  21.700
 2747DPPE   C2B54826  17.150  11.560  21.660
 2747DPPE   C3B54827  17.270  12.120  21.630
 2747DPPE   C4B54828  17.670  12.550  21.470
 2748DPPE   NH354829   6.790  15.680  19.610
 2748DPPE   PO454830   6.740  15.680  19.180
 2748DPPE   GL154831   6.350  15.570  19.190
 2748DPPE   GL254832   6.310  15.240  19.010
 2748DPPE   C1A54833   6.040  15.430  19.490
 2748DPPE   C2A54834   5.770  15.190  19.530
 2748DPPE   C3A54835   5.690  14.700  19.420
 2748DPPE   C4A54836   5.380  14.500  19.250
 2748DPPE   C1B54837   6.210  14.880  19.330
 2748DPPE   C2B54838   6.080  14.860  19.720
 2748DPPE   C3B54839   5.810  14.670  19.890
 2748DPPE   C4B54840   5.660  14.570  20.280
 2749DPPE   NH354841  13.760  15.390  24.050
 2749DPPE   PO454842  13.620  15.050  23.870
 2749DPPE   GL154843  13.380  14.940  24.190
 2749DPPE   GL254844  13.070  14.860  24.210
 2749DPPE   C1A54845  13.480  14.810  24.540
 2749DPPE   C2A54846  13.240  14.770  24.950
 2749DPPE   C3A54847  13.040  14.690  25.290
 2749DPPE   C4A54848  12.990  14.430  25.670
 2749DPPE   C1B54849  12.940  14.680  24.570
 2749DPPE   C2B54850  12.600  14.460  24.920
 2749DPPE   C3B54851  12.580  14.460  25.310
 2749DPPE   C4B54852  12.270  14.610  25.580
 2750DPPE   NH354853   5.630  12.770  13.540
 2750DPPE   PO454854   5.360  13.030  13.250
 2750DPPE   GL154855   5.370  12.830  12.890
 2750DPPE   GL254856   5.670  12.890  12.590
 2750DPPE   C1A54857   4.950  12.770  12.800
 2750DPPE   C2A54858   4.490  12.750  12.900
 2750DPPE   C3A54859   4.130  12.950  13.020
 2750DPPE   C4A54860   3.870  13.110  12.670
 2750DPPE   C1B54861   5.240  12.860  12.370
 2750DPPE   C2B54862   5.280  12.730  11.940
 2750DPPE   C3B54863   5.410  12.690  11.570
 2750DPPE   C4B54864   5.700  12.980  11.260
 2751DPPE   NH354865   9.810  14.070  20.190
 2751DPPE   PO454866   9.450  13.990  19.950
 2751DPPE   GL154867   9.640  13.880  19.520
 2751DPPE   GL254868   9.470  14.140  19.310
 2751DPPE   C1A54869   9.850  13.670  19.240
 2751DPPE   C2A54870  10.060  13.800  18.810
 2751DPPE   C3A54871  10.300  14.050  18.580
 2751DPPE   C4A54872  10.720  14.250  18.600
 2751DPPE   C1B54873   9.660  14.240  18.920
 2751DPPE   C2B54874   9.870  14.330  18.490
 2751DPPE   C3B54875   9.850  14.640  18.140
 2751DPPE   C4B54876   9.930  14.750  17.720
 2752DPPE   NH354877  12.610  11.480  22.100
 2752DPPE   PO454878  12.930  11.260  22.070
 2752DPPE   GL154879  12.650  10.900  22.250
 2752DPPE   GL254880  12.460  11.050  22.480
 2752DPPE   C1A54881  12.460  10.580  22.450
 2752DPPE   C2A54882  12.120  10.370  22.730
 2752DPPE   C3A54883  12.120  10.580  23.160
 2752DPPE   C4A54884  12.100  10.520  23.580
 2752DPPE   C1B54885  12.410  10.920  22.840
 2752DPPE   C2B54886  12.610  10.600  23.170
 2752DPPE   C3B54887  12.890  10.260  23.200
 2752DPPE   C4B54888  13.120  10.050  23.590
 2753DPPE   NH354889   4.760  17.200  14.220
 2753DPPE   PO454890   4.870  16.970  14.640
 2753DPPE   GL154891   4.450  16.910  14.600
 2753DPPE   GL254892   4.330  16.990  14.910
 2753DPPE   C1A54893   4.050  17.020  14.480
 2753DPPE   C2A54894   3.790  17.260  14.530
 2753DPPE   C3A54895   3.740  17.670  14.530
 2753DPPE   C4A54896   3.720  18.180  14.450
 2753DPPE   C1B54897   3.980  17.020  14.940
 2753DPPE   C2B54898   3.680  16.730  14.720
 2753DPPE   C3B54899   3.570  16.710  14.270
 2753DPPE   C4B54900   3.400  16.310  13.990
 2754DPPE   NH354901  11.020  23.490  20.760
 2754DPPE   PO454902  10.890  23.330  20.360
 2754DPPE   GL154903  11.050  23.690  20.300
 2754DPPE   GL254904  11.130  23.610  19.990
 2754DPPE   C1A54905  11.000  24.130  20.590
 2754DPPE   C2A54906  10.880  24.550  20.620
 2754DPPE   C3A54907  10.640  24.860  20.340
 2754DPPE   C4A54908  10.640  25.030  19.940
 2754DPPE   C1B54909  11.230  24.040  19.840
 2754DPPE   C2B54910  11.410  24.260  19.490
 2754DPPE   C3B54911  11.320  24.700  19.210
 2754DPPE   C4B54912  10.890  24.960  19.270
 2755DPPE   NH354913   7.260  12.270  17.870
 2755DPPE   PO454914   7.230  12.070  17.430
 2755DPPE   GL154915   7.060  11.790  17.600
 2755DPPE   GL254916   7.000  11.630  17.260
 2755DPPE   C1A54917   6.630  11.750  17.640
 2755DPPE   C2A54918   6.160  11.710  17.540
 2755DPPE   C3A54919   5.770  11.840  17.610
 2755DPPE   C4A54920   5.470  12.050  17.880
 2755DPPE   C1B54921   6.500  11.560  17.190
 2755DPPE   C2B54922   6.140  11.290  17.220
 2755DPPE   C3B54923   5.910  10.950  17.390
 2755DPPE   C4B54924   5.730  10.810  17.810
 2756DPPE   NH354925  12.410  18.640  23.970
 2756DPPE   PO454926  12.280  19.090  23.980
 2756DPPE   GL154927  11.970  19.280  24.190
 2756DPPE   GL254928  11.680  19.440  24.080
 2756DPPE   C1A54929  11.900  19.370  24.650
 2756DPPE   C2A54930  11.610  19.530  24.910
 2756DPPE   C3A54931  11.520  19.520  25.280
 2756DPPE   C4A54932  11.130  19.610  25.500
 2756DPPE   C1B54933  11.380  19.570  24.450
 2756DPPE   C2B54934  11.120  19.580  24.860
 2756DPPE   C3B54935  10.860  19.260  25.200
 2756DPPE   C4B54936  10.870  18.880  25.410
 2757DPPE   NH354937  12.460  12.210  22.360
 2757DPPE   PO454938  12.700  12.430  22.680
 2757DPPE   GL154939  12.580  12.270  23.120
 2757DPPE   GL254940  12.470  12.520  23.420
 2757DPPE   C1A54941  12.290  11.920  23.360
 2757DPPE   C2A54942  12.330  11.770  23.830
 2757DPPE   C3A54943  12.090  11.430  23.960
 2757DPPE   C4A54944  11.830  11.280  24.320
 2757DPPE   C1B54945  12.550  12.340  23.780
 2757DPPE   C2B54946  12.590  12.240  24.140
 2757DPPE   C3B54947  12.210  12.080  24.410
 2757DPPE   C4B54948  11.740  12.180  24.530
 2758DPPE   NH354949  12.150  23.290  22.190
 2758DPPE   PO454950  11.930  22.980  22.330
 2758DPPE   GL154951  11.830  23.240  22.590
 2758DPPE   GL254952  12.160  23.420  22.680
 2758DPPE   C1A54953  11.880  23.320  23.070
 2758DPPE   C2A54954  11.670  23.360  23.500
 2758DPPE   C3A54955  11.890  23.140  23.920
 2758DPPE   C4A54956  12.150  22.840  24.140
 2758DPPE   C1B54957  12.320  23.810  22.600
 2758DPPE   C2B54958  12.320  24.130  22.680
 2758DPPE   C3B54959  12.290  24.510  22.560
 2758DPPE   C4B54960  12.530  24.930  22.570
 2759DPPE   NH354961   5.210  19.830  14.550
 2759DPPE   PO454962   5.030  20.100  14.810
 2759DPPE   GL154963   4.740  20.370  14.710
 2759DPPE   GL254964   4.620  20.180  14.440
 2759DPPE   C1A54965   4.470  20.710  14.660
 2759DPPE   C2A54966   4.430  21.180  14.590
 2759DPPE   C3A54967   4.520  21.590  14.540
 2759DPPE   C4A54968   4.800  21.900  14.790
 2759DPPE   C1B54969   4.540  20.530  14.190
 2759DPPE   C2B54970   4.780  20.610  13.900
 2759DPPE   C3B54971   4.900  20.400  13.550
 2759DPPE   C4B54972   4.890  20.300  13.100
 2760DPPE   NH354973  22.080  16.470  16.540
 2760DPPE   PO454974  22.310  16.300  16.270
 2760DPPE   GL154975  22.570  16.100  16.390
 2760DPPE   GL254976  22.510  16.020  16.630
 2760DPPE   C1A54977  23.030  16.150  16.470
 2760DPPE   C2A54978  23.360  15.940  16.520
 2760DPPE   C3A54979  23.840  15.770  16.390
 2760DPPE   C4A54980  23.950  15.330  16.290
 2760DPPE   C1B54981  22.980  15.920  16.880
 2760DPPE   C2B54982  23.270  15.710  17.290
 2760DPPE   C3B54983  23.560  15.330  17.530
 2760DPPE   C4B54984  23.430  15.020  17.940
 2761DPPE   NH354985  20.660  26.610  19.880
 2761DPPE   PO454986  20.280  26.930  19.890
 2761DPPE   GL154987  20.160  26.650  19.530
 2761DPPE   GL254988  20.470  26.390  19.480
 2761DPPE   C1A54989  20.260  26.650  19.080
 2761DPPE   C2A54990  20.290  26.460  18.700
 2761DPPE   C3A54991  20.280  26.070  18.420
 2761DPPE   C4A54992  20.000  25.970  18.070
 2761DPPE   C1B54993  20.310  26.150  19.200
 2761DPPE   C2B54994  20.430  25.760  18.810
 2761DPPE   C3B54995  20.390  25.360  18.530
 2761DPPE   C4B54996  20.250  24.870  18.340
 2762DPPE   NH354997  11.780  12.820  13.670
 2762DPPE   PO454998  12.190  12.820  13.950
 2762DPPE   GL154999  11.930  12.630  14.290
 2762DPPE   GL255000  11.780  12.390  14.030
 2762DPPE   C1A55001  11.660  12.480  14.660
 2762DPPE   C2A55002  11.770  12.180  14.960
 2762DPPE   C3A55003  11.740  11.920  15.270
 2762DPPE   C4A55004  11.410  11.740  15.320
 2762DPPE   C1B55005  11.390  12.350  14.250
 2762DPPE   C2B55006  11.140  12.340  14.620
 2762DPPE   C3B55007  10.800  12.100  14.780
 2762DPPE   C4B55008  10.480  12.030  14.990
 2763DPPE   NH355009  22.750   9.430  17.950
 2763DPPE   PO455010  23.260   9.560  17.760
 2763DPPE   GL155011  22.880   9.750  17.540
 2763DPPE   GL255012  22.870   9.540  17.270
 2763DPPE   C1A55013  22.600   9.940  17.500
 2763DPPE   C2A55014  22.490  10.370  17.330
 2763DPPE   C3A55015  22.470  10.830  17.340
 2763DPPE   C4A55016  22.630  11.300  17.360
 2763DPPE   C1B55017  22.380   9.540  17.250
 2763DPPE   C2B55018  21.980   9.640  16.970
 2763DPPE   C3B55019  21.790   9.910  16.830
 2763DPPE   C4B55020  21.590   9.850  16.420
 2764DPPE   NH355021  10.730  18.780  15.390
 2764DPPE   PO455022  10.740  18.760  15.830
 2764DPPE   GL155023  10.500  18.780  16.100
 2764DPPE   GL255024  10.590  18.750  16.390
 2764DPPE   C1A55025  10.150  18.580  16.280
 2764DPPE   C2A55026  10.060  18.470  16.750
 2764DPPE   C3A55027   9.860  18.450  17.150
 2764DPPE   C4A55028   9.600  18.250  17.450
 2764DPPE   C1B55029  10.440  18.780  16.810
 2764DPPE   C2B55030  10.250  18.730  17.220
 2764DPPE   C3B55031  10.050  18.880  17.650
 2764DPPE   C4B55032  10.210  19.200  17.900
 2765DPPE   NH355033  14.550  20.760  19.090
 2765DPPE   PO455034  14.720  20.990  19.560
 2765DPPE   GL155035  14.330  21.130  19.830
 2765DPPE   GL255036  14.360  21.060  20.230
 2765DPPE   C1A55037  13.940  21.280  20.100
 2765DPPE   C2A55038  13.910  21.270  20.480
 2765DPPE   C3A55039  13.750  21.150  20.850
 2765DPPE   C4A55040  13.410  21.020  20.760
 2765DPPE   C1B55041  14.350  21.010  20.620
 2765DPPE   C2B55042  14.160  21.040  21.050
 2765DPPE   C3B55043  14.280  21.000  21.450
 2765DPPE   C4B55044  14.360  20.690  21.750
 2766DPPE   NH355045  16.140  25.380  22.180
 2766DPPE   PO455046  16.120  24.970  22.330
 2766DPPE   GL155047  15.970  24.910  22.000
 2766DPPE   GL255048  16.290  24.800  21.800
 2766DPPE   C1A55049  15.750  24.820  21.620
 2766DPPE   C2A55050  15.600  24.660  21.160
 2766DPPE   C3A55051  15.720  24.440  20.750
 2766DPPE   C4A55052  15.980  24.260  20.330
 2766DPPE   C1B55053  16.160  24.400  21.820
 2766DPPE   C2B55054  15.900  24.050  21.560
 2766DPPE   C3B55055  15.790  23.560  21.360
 2766DPPE   C4B55056  15.880  23.200  21.200
 2767DPPE   NH355057  19.420  21.510  18.700
 2767DPPE   PO455058  19.360  21.900  18.730
 2767DPPE   GL155059  19.580  21.870  19.010
 2767DPPE   GL255060  19.500  21.670  19.140
 2767DPPE   C1A55061  19.840  22.070  19.320
 2767DPPE   C2A55062  19.940  22.300  19.710
 2767DPPE   C3A55063  19.830  22.480  20.110
 2767DPPE   C4A55064  19.810  22.870  20.230
 2767DPPE   C1B55065  19.510  21.740  19.580
 2767DPPE   C2B55066  19.800  21.830  19.870
 2767DPPE   C3B55067  20.170  22.000  20.040
 2767DPPE   C4B55068  20.470  21.820  20.260
 2768DPPE   NH355069  23.460  18.860   8.290
 2768DPPE   PO455070  23.840  18.930   8.500
 2768DPPE   GL155071  24.140  18.940   8.270
 2768DPPE   GL255072  24.280  19.260   8.140
 2768DPPE   C1A55073  24.490  18.620   8.120
 2768DPPE   C2A55074  24.720  18.500   7.750
 2768DPPE   C3A55075  24.970  18.180   7.660
 2768DPPE   C4A55076  25.190  18.010   7.370
 2768DPPE   C1B55077  24.720  19.120   7.980
 2768DPPE   C2B55078  24.930  19.030   7.680
 2768DPPE   C3B55079  25.190  19.100   7.340
 2768DPPE   C4B55080  25.380  19.310   6.950
 2769DPPE   NH355081  18.680  21.580  24.650
 2769DPPE   PO455082  18.680  21.450  24.160
 2769DPPE   GL155083  18.510  21.140  23.900
 2769DPPE   GL255084  18.770  20.820  23.790
 2769DPPE   C1A55085  18.280  20.930  23.530
 2769DPPE   C2A55086  17.890  20.650  23.400
 2769DPPE   C3A55087  17.910  20.200  23.310
 2769DPPE   C4A55088  17.990  20.010  23.050
 2769DPPE   C1B55089  18.830  20.440  23.690
 2769DPPE   C2B55090  18.850  20.040  23.510
 2769DPPE   C3B55091  18.520  19.760  23.310
 2769DPPE   C4B55092  18.360  19.570  22.960
 2770DPPE   NH355093  17.280  17.670  20.520
 2770DPPE   PO455094  16.810  17.890  20.590
 2770DPPE   GL155095  16.570  17.870  20.980
 2770DPPE   GL255096  16.770  17.920  21.320
 2770DPPE   C1A55097  16.190  17.830  21.260
 2770DPPE   C2A55098  16.060  17.900  21.670
 2770DPPE   C3A55099  16.240  17.780  22.080
 2770DPPE   C4A55100  16.440  17.830  22.490
 2770DPPE   C1B55101  16.610  17.840  21.690
 2770DPPE   C2B55102  16.750  17.650  22.050
 2770DPPE   C3B55103  17.070  17.750  22.320
 2770DPPE   C4B55104  17.340  18.050  22.340
 2771DPPE   NH355105  21.680  18.940   6.030
 2771DPPE   PO455106  21.360  19.010   5.790
 2771DPPE   GL155107  21.640  19.260   5.540
 2771DPPE   GL255108  21.950  19.280   5.660
 2771DPPE   C1A55109  21.790  19.410   5.190
 2771DPPE   C2A55110  22.080  19.660   5.210
 2771DPPE   C3A55111  22.410  19.700   5.120
 2771DPPE   C4A55112  22.840  19.630   5.210
 2771DPPE   C1B55113  22.360  19.510   5.650
 2771DPPE   C2B55114  22.770  19.590   5.760
 2771DPPE   C3B55115  23.120  19.460   5.880
 2771DPPE   C4B55116  23.320  19.300   6.160
 2772DPPE   NH355117  11.890  18.090  27.860
 2772DPPE   PO455118  11.840  18.560  28.000
 2772DPPE   GL155119  12.100  18.460  27.620
 2772DPPE   GL255120  12.270  18.170  27.520
 2772DPPE   C1A55121  12.400  18.580  27.240
 2772DPPE   C2A55122  12.560  18.470  26.870
 2772DPPE   C3A55123  12.990  18.340  26.810
 2772DPPE   C4A55124  13.470  18.320  26.750
 2772DPPE   C1B55125  12.230  18.120  27.050
 2772DPPE   C2B55126  12.380  18.070  26.620
 2772DPPE   C3B55127  12.260  17.960  26.140
 2772DPPE   C4B55128  12.100  18.060  25.730
 2773DPPE   NH355129  12.100  10.690  13.890
 2773DPPE   PO455130  12.100  10.240  13.750
 2773DPPE   GL155131  11.880   9.950  13.950
 2773DPPE   GL255132  11.920   9.840  14.300
 2773DPPE   C1A55133  11.460   9.880  14.130
 2773DPPE   C2A55134  11.320   9.720  14.520
 2773DPPE   C3A55135  10.930   9.490  14.750
 2773DPPE   C4A55136  10.780   9.030  14.800
 2773DPPE   C1B55137  12.010   9.870  14.670
 2773DPPE   C2B55138  11.700   9.850  14.920
 2773DPPE   C3B55139  11.630   9.790  15.340
 2773DPPE   C4B55140  11.350   9.860  15.470
 2774DPPE   NH355141   5.210  18.670  23.730
 2774DPPE   PO455142   5.180  18.360  23.580
 2774DPPE   GL155143   5.670  18.330  23.580
 2774DPPE   GL255144   5.710  18.000  23.450
 2774DPPE   C1A55145   5.820  18.470  23.210
 2774DPPE   C2A55146   5.880  18.350  22.770
 2774DPPE   C3A55147   5.600  18.340  22.540
 2774DPPE   C4A55148   5.240  18.340  22.460
 2774DPPE   C1B55149   6.010  17.960  23.210
 2774DPPE   C2B55150   6.200  17.950  22.800
 2774DPPE   C3B55151   6.360  18.220  22.540
 2774DPPE   C4B55152   6.070  18.650  22.420
 2775DPPE   NH355153  19.610  15.830  19.360
 2775DPPE   PO455154  19.230  15.620  19.410
 2775DPPE   GL155155  19.510  15.660  19.830
 2775DPPE   GL255156  19.510  15.320  19.940
 2775DPPE   C1A55157  19.880  15.550  20.010
 2775DPPE   C2A55158  20.240  15.210  19.870
 2775DPPE   C3A55159  20.500  14.890  19.960
 2775DPPE   C4A55160  20.840  14.660  20.060
 2775DPPE   C1B55161  19.800  15.090  20.040
 2775DPPE   C2B55162  20.050  14.860  20.270
 2775DPPE   C3B55163  20.260  14.570  20.370
 2775DPPE   C4B55164  20.700  14.280  20.550
 2776DPPE   NH355165  15.050  23.310   8.780
 2776DPPE   PO455166  14.620  23.350   8.570
 2776DPPE   GL155167  14.290  23.620   8.330
 2776DPPE   GL255168  14.160  23.920   8.530
 2776DPPE   C1A55169  14.230  23.930   7.990
 2776DPPE   C2A55170  14.010  24.270   8.130
 2776DPPE   C3A55171  13.910  24.730   8.090
 2776DPPE   C4A55172  13.770  25.160   8.090
 2776DPPE   C1B55173  14.530  24.190   8.270
 2776DPPE   C2B55174  14.750  24.440   7.970
 2776DPPE   C3B55175  14.780  24.550   7.530
 2776DPPE   C4B55176  15.120  24.470   7.220
 2777DPPE   NH355177  10.400  18.860  22.990
 2777DPPE   PO455178  10.430  18.270  22.970
 2777DPPE   GL155179  10.220  18.370  23.410
 2777DPPE   GL255180  10.390  18.620  23.420
 2777DPPE   C1A55181   9.830  18.340  23.730
 2777DPPE   C2A55182   9.460  18.440  24.020
 2777DPPE   C3A55183   8.980  18.610  24.160
 2777DPPE   C4A55184   8.540  18.540  24.220
 2777DPPE   C1B55185  10.400  18.580  23.860
 2777DPPE   C2B55186  10.210  18.650  24.160
 2777DPPE   C3B55187   9.750  18.720  24.270
 2777DPPE   C4B55188   9.400  18.770  24.510
 2778DPPE   NH355189   9.700  19.830  22.480
 2778DPPE   PO455190   9.510  20.080  22.350
 2778DPPE   GL155191   9.140  19.970  22.650
 2778DPPE   GL255192   9.320  19.690  22.800
 2778DPPE   C1A55193   8.780  20.180  22.930
 2778DPPE   C2A55194   8.570  20.450  23.190
 2778DPPE   C3A55195   8.200  20.700  23.410
 2778DPPE   C4A55196   7.820  21.000  23.570
 2778DPPE   C1B55197   8.970  19.720  23.100
 2778DPPE   C2B55198   8.680  19.830  23.300
 2778DPPE   C3B55199   8.590  20.130  23.600
 2778DPPE   C4B55200   8.340  20.290  23.970
 2779DPPE   NH355201   5.110  19.620  16.950
 2779DPPE   PO455202   5.080  20.060  16.720
 2779DPPE   GL155203   4.730  20.050  16.730
 2779DPPE   GL255204   4.570  19.900  16.610
 2779DPPE   C1A55205   4.360  20.280  16.840
 2779DPPE   C2A55206   3.960  20.310  16.890
 2779DPPE   C3A55207   3.520  20.590  16.830
 2779DPPE   C4A55208   3.210  20.810  16.660
 2779DPPE   C1B55209   4.140  19.810  16.750
 2779DPPE   C2B55210   3.970  20.040  16.460
 2779DPPE   C3B55211   3.640  20.260  16.480
 2779DPPE   C4B55212   3.230  20.220  16.350
 2780DPPE   NH355213   8.780  13.720  20.560
 2780DPPE   PO455214   8.510  13.780  20.270
 2780DPPE   GL155215   8.170  13.620  20.500
 2780DPPE   GL255216   8.250  13.300  20.620
 2780DPPE   C1A55217   7.850  13.620  20.880
 2780DPPE   C2A55218   7.470  13.650  21.000
 2780DPPE   C3A55219   7.050  13.750  21.230
 2780DPPE   C4A55220   6.670  13.760  21.330
 2780DPPE   C1B55221   8.100  13.120  20.970
 2780DPPE   C2B55222   7.710  13.200  21.200
 2780DPPE   C3B55223   7.390  13.380  21.360
 2780DPPE   C4B55224   7.180  13.460  21.810
 2781DPPE   NH355225  10.410  23.370  20.560
 2781DPPE   PO455226  10.030  23.480  20.460
 2781DPPE   GL155227  10.090  23.850  20.570
 2781DPPE   GL255228  10.120  23.800  20.930
 2781DPPE   C1A55229   9.940  24.190  20.780
 2781DPPE   C2A55230   9.620  24.490  20.970
 2781DPPE   C3A55231   9.580  24.700  21.400
 2781DPPE   C4A55232   9.690  24.490  21.720
 2781DPPE   C1B55233  10.050  24.170  21.320
 2781DPPE   C2B55234  10.160  24.610  21.460
 2781DPPE   C3B55235  10.370  24.890  21.360
 2781DPPE   C4B55236  10.370  25.350  21.340
 2782DPPE   NH355237   5.960  16.860  17.730
 2782DPPE   PO455238   5.770  17.210  17.480
 2782DPPE   GL155239   5.370  17.330  17.620
 2782DPPE   GL255240   5.310  17.520  17.810
 2782DPPE   C1A55241   4.890  17.570  17.540
 2782DPPE   C2A55242   4.490  17.410  17.680
 2782DPPE   C3A55243   4.190  17.220  17.850
 2782DPPE   C4A55244   3.720  17.350  18.070
 2782DPPE   C1B55245   4.930  17.390  18.060
 2782DPPE   C2B55246   4.630  17.270  18.150
 2782DPPE   C3B55247   4.140  17.190  18.330
 2782DPPE   C4B55248   3.840  16.860  18.320
 2783DPPE   NH355249   8.950  16.630  21.870
 2783DPPE   PO455250   9.350  16.540  22.160
 2783DPPE   GL155251   9.180  16.670  22.500
 2783DPPE   GL255252   9.270  16.670  22.830
 2783DPPE   C1A55253   8.810  16.680  22.710
 2783DPPE   C2A55254   8.480  16.600  23.050
 2783DPPE   C3A55255   8.270  16.670  23.330
 2783DPPE   C4A55256   8.260  16.530  23.730
 2783DPPE   C1B55257   8.950  16.810  23.150
 2783DPPE   C2B55258   8.710  16.880  23.560
 2783DPPE   C3B55259   8.530  16.910  23.950
 2783DPPE   C4B55260   8.100  16.890  24.090
 2784DPPE   NH355261  13.940   9.330  21.270
 2784DPPE   PO455262  14.310   9.270  21.530
 2784DPPE   GL155263  14.380   8.940  21.790
 2784DPPE   GL255264  14.190   8.830  21.760
 2784DPPE   C1A55265  14.330   8.570  22.160
 2784DPPE   C2A55266  14.300   8.250  22.430
 2784DPPE   C3A55267  14.340   8.190  22.860
 2784DPPE   C4A55268  14.640   8.340  23.170
 2784DPPE   C1B55269  14.260   8.360  21.690
 2784DPPE   C2B55270  14.380   8.120  21.910
 2784DPPE   C3B55271  14.700   8.240  22.080
 2784DPPE   C4B55272  15.070   8.140  21.790
 2785DPPE   NH355273  13.140   9.130  18.880
 2785DPPE   PO455274  13.460   8.710  19.000
 2785DPPE   GL155275  13.790   8.560  18.680
 2785DPPE   GL255276  14.080   8.740  18.550
 2785DPPE   C1A55277  14.100   8.290  18.530
 2785DPPE   C2A55278  14.320   8.250  18.150
 2785DPPE   C3A55279  14.040   8.050  17.820
 2785DPPE   C4A55280  14.120   7.790  17.450
 2785DPPE   C1B55281  14.310   8.820  18.270
 2785DPPE   C2B55282  14.400   9.040  17.990
 2785DPPE   C3B55283  14.540   9.050  17.630
 2785DPPE   C4B55284  14.480   9.260  17.320
 2786DPPE   NH355285   6.220  17.160  16.010
 2786DPPE   PO455286   6.530  17.550  16.160
 2786DPPE   GL155287   6.850  17.740  15.830
 2786DPPE   GL255288   6.540  17.720  15.620
 2786DPPE   C1A55289   7.160  17.690  15.410
 2786DPPE   C2A55290   7.560  17.900  15.450
 2786DPPE   C3A55291   8.030  17.730  15.500
 2786DPPE   C4A55292   8.380  17.920  15.600
 2786DPPE   C1B55293   6.810  17.990  15.350
 2786DPPE   C2B55294   7.190  18.170  15.250
 2786DPPE   C3B55295   7.410  18.010  15.000
 2786DPPE   C4B55296   7.700  18.210  14.680
 2787DPPE   NH355297   5.770  15.230  15.640
 2787DPPE   PO455298   5.500  15.450  15.550
 2787DPPE   GL155299   5.200  15.290  15.880
 2787DPPE   GL255300   5.160  15.530  15.980
 2787DPPE   C1A55301   4.670  15.300  15.910
 2787DPPE   C2A55302   4.110  15.270  16.020
 2787DPPE   C3A55303   3.770  15.470  15.830
 2787DPPE   C4A55304   3.720  15.810  15.540
 2787DPPE   C1B55305   4.790  15.750  16.110
 2787DPPE   C2B55306   4.380  15.740  16.180
 2787DPPE   C3B55307   3.950  15.690  16.280
 2787DPPE   C4B55308   3.630  15.500  16.290
 2788DPPE   NH355309  12.390  21.270  22.650
 2788DPPE   PO455310  12.350  21.330  23.070
 2788DPPE   GL155311  11.990  21.380  23.270
 2788DPPE   GL255312  11.780  21.130  23.300
 2788DPPE   C1A55313  11.930  21.330  23.710
 2788DPPE   C2A55314  12.220  21.470  24.070
 2788DPPE   C3A55315  12.160  21.890  24.320
 2788DPPE   C4A55316  12.480  22.210  24.330
 2788DPPE   C1B55317  11.500  21.160  23.600
 2788DPPE   C2B55318  11.630  21.070  24.020
 2788DPPE   C3B55319  11.590  20.880  24.480
 2788DPPE   C4B55320  11.400  20.910  24.830
 2789DPPE   NH355321   5.720  17.770  17.840
 2789DPPE   PO455322   5.760  18.040  18.140
 2789DPPE   GL155323   5.440  18.130  18.340
 2789DPPE   GL255324   5.360  17.970  18.640
 2789DPPE   C1A55325   5.060  17.930  18.180
 2789DPPE   C2A55326   4.710  17.700  18.400
 2789DPPE   C3A55327   4.310  17.700  18.340
 2789DPPE   C4A55328   3.930  17.720  18.350
 2789DPPE   C1B55329   5.040  17.980  18.800
 2789DPPE   C2B55330   4.870  18.060  19.200
 2789DPPE   C3B55331   4.530  17.990  19.490
 2789DPPE   C4B55332   4.490  17.930  19.890
 2790DPPE   NH355333   8.840   9.140  14.260
 2790DPPE   PO455334   9.150   9.270  14.410
 2790DPPE   GL155335   9.400   8.940  14.230
 2790DPPE   GL255336   9.180   8.830  13.940
 2790DPPE   C1A55337   9.720   8.930  13.920
 2790DPPE   C2A55338  10.080   8.630  13.680
 2790DPPE   C3A55339  10.460   8.670  13.720
 2790DPPE   C4A55340  10.660   8.290  13.560
 2790DPPE   C1B55341   9.110   8.740  13.610
 2790DPPE   C2B55342   8.960   8.400  13.520
 2790DPPE   C3B55343   8.590   8.260  13.690
 2790DPPE   C4B55344   8.350   7.910  13.590
 2791DPPE   NH355345   5.870  20.090  18.550
 2791DPPE   PO455346   6.210  20.370  18.610
 2791DPPE   GL155347   5.800  20.590  18.590
 2791DPPE   GL255348   5.780  20.980  18.500
 2791DPPE   C1A55349   5.400  20.660  18.810
 2791DPPE   C2A55350   4.940  20.640  18.810
 2791DPPE   C3A55351   4.580  20.710  18.570
 2791DPPE   C4A55352   4.280  21.030  18.590
 2791DPPE   C1B55353   5.250  21.040  18.480
 2791DPPE   C2B55354   4.920  21.160  18.640
 2791DPPE   C3B55355   4.630  21.370  18.510
 2791DPPE   C4B55356   4.240  21.380  18.270
 2792DPPE   NH355357  13.580  12.910  22.020
 2792DPPE   PO455358  14.030  12.770  21.940
 2792DPPE   GL155359  14.200  12.930  21.500
 2792DPPE   GL255360  14.420  13.150  21.470
 2792DPPE   C1A55361  14.580  12.790  21.260
 2792DPPE   C2A55362  14.640  12.500  20.900
 2792DPPE   C3A55363  14.450  12.490  20.480
 2792DPPE   C4A55364  14.210  12.770  20.380
 2792DPPE   C1B55365  14.830  13.250  21.460
 2792DPPE   C2B55366  15.020  13.630  21.430
 2792DPPE   C3B55367  15.450  13.810  21.290
 2792DPPE   C4B55368  15.900  14.060  21.190
 2793DPPE   NH355369  14.850  12.600  23.720
 2793DPPE   PO455370  14.630  12.170  23.820
 2793DPPE   GL155371  14.850  11.930  24.100
 2793DPPE   GL255372  14.590  11.820  24.310
 2793DPPE   C1A55373  15.050  11.780  24.540
 2793DPPE   C2A55374  15.320  11.570  24.810
 2793DPPE   C3A55375  15.390  11.460  25.200
 2793DPPE   C4A55376  15.540  11.300  25.630
 2793DPPE   C1B55377  14.440  11.610  24.660
 2793DPPE   C2B55378  14.330  11.520  25.080
 2793DPPE   C3B55379  14.320  11.340  25.400
 2793DPPE   C4B55380  14.210  10.960  25.610
 2794DPPE   NH355381  10.810  19.300  21.610
 2794DPPE   PO455382  10.860  19.530  21.860
 2794DPPE   GL155383  11.010  19.810  21.460
 2794DPPE   GL255384  11.380  19.900  21.470
 2794DPPE   C1A55385  11.070  19.840  21.030
 2794DPPE   C2A55386  11.220  19.740  20.620
 2794DPPE   C3A55387  11.510  19.810  20.400
 2794DPPE   C4A55388  11.780  19.990  20.100
 2794DPPE   C1B55389  11.460  19.590  21.200
 2794DPPE   C2B55390  11.610  19.460  20.750
 2794DPPE   C3B55391  11.760  19.240  20.430
 2794DPPE   C4B55392  12.210  18.980  20.180
 2795DPPE   NH355393  10.390  26.420  21.750
 2795DPPE   PO455394  10.100  26.670  21.540
 2795DPPE   GL155395   9.850  26.460  21.720
 2795DPPE   GL255396   9.870  26.460  22.020
 2795DPPE   C1A55397   9.630  26.050  21.720
 2795DPPE   C2A55398   9.410  25.760  21.450
 2795DPPE   C3A55399   9.270  25.420  21.490
 2795DPPE   C4A55400   9.190  24.960  21.350
 2795DPPE   C1B55401   9.700  25.940  22.240
 2795DPPE   C2B55402   9.450  25.670  22.430
 2795DPPE   C3B55403   9.430  25.420  22.720
 2795DPPE   C4B55404   9.530  25.260  23.150
 2796DPPE   NH355405  14.550  23.140  25.340
 2796DPPE   PO455406  14.400  22.850  25.540
 2796DPPE   GL155407  14.300  22.690  25.130
 2796DPPE   GL255408  14.230  23.040  24.900
 2796DPPE   C1A55409  14.600  22.520  24.860
 2796DPPE   C2A55410  14.900  22.620  24.500
 2796DPPE   C3A55411  14.880  22.780  24.140
 2796DPPE   C4A55412  14.990  23.250  23.880
 2796DPPE   C1B55413  14.470  22.910  24.500
 2796DPPE   C2B55414  14.450  22.540  24.270
 2796DPPE   C3B55415  14.490  22.080  24.240
 2796DPPE   C4B55416  14.350  21.710  24.370
 2797DPPE   NH355417  24.700  12.240   3.980
 2797DPPE   PO455418  24.720  12.240   4.400
 2797DPPE   GL155419  24.320  12.220   4.500
 2797DPPE   GL255420  24.420  12.000   4.710
 2797DPPE   C1A55421  23.900  12.300   4.770
 2797DPPE   C2A55422  23.520  12.500   4.870
 2797DPPE   C3A55423  23.160  12.660   4.930
 2797DPPE   C4A55424  22.820  12.900   5.130
 2797DPPE   C1B55425  24.160  12.030   5.060
 2797DPPE   C2B55426  23.750  12.130   5.310
 2797DPPE   C3B55427  23.550  12.160   5.630
 2797DPPE   C4B55428  23.450  12.090   6.050
 2798DPPE   NH355429  23.730  12.240   3.700
 2798DPPE   PO455430  23.570  12.450   3.320
 2798DPPE   GL155431  23.570  12.810   3.520
 2798DPPE   GL255432  23.260  12.530   3.680
 2798DPPE   C1A55433  23.390  13.090   3.630
 2798DPPE   C2A55434  23.160  13.210   3.900
 2798DPPE   C3A55435  22.870  13.240   4.200
 2798DPPE   C4A55436  22.530  13.290   4.440
 2798DPPE   C1B55437  23.000  12.720   4.050
 2798DPPE   C2B55438  22.610  12.790   4.260
 2798DPPE   C3B55439  22.130  12.970   4.350
 2798DPPE   C4B55440  21.850  13.140   4.170
 2799DPPE   NH355441  22.100   8.370   5.450
 2799DPPE   PO455442  21.700   8.250   5.480
 2799DPPE   GL155443  21.650   8.600   5.740
 2799DPPE   GL255444  21.750   8.720   5.480
 2799DPPE   C1A55445  21.650   8.800   6.020
 2799DPPE   C2A55446  21.690   9.200   6.310
 2799DPPE   C3A55447  21.800   9.690   6.210
 2799DPPE   C4A55448  21.770  10.050   6.410
 2799DPPE   C1B55449  21.610   9.120   5.620
 2799DPPE   C2B55450  21.510   9.570   5.840
 2799DPPE   C3B55451  21.420   9.990   6.030
 2799DPPE   C4B55452  21.260  10.200   6.340
 2800DPPE   NH355453   5.630  25.530  16.950
 2800DPPE   PO455454   5.350  25.340  17.130
 2800DPPE   GL155455   5.430  24.880  17.210
 2800DPPE   GL255456   5.820  24.820  17.310
 2800DPPE   C1A55457   5.580  24.400  17.320
 2800DPPE   C2A55458   5.640  24.020  17.320
 2800DPPE   C3A55459   5.850  23.610  17.570
 2800DPPE   C4A55460   6.040  23.400  17.340
 2800DPPE   C1B55461   6.060  24.450  17.500
 2800DPPE   C2B55462   6.260  23.990  17.290
 2800DPPE   C3B55463   6.030  23.830  17.020
 2800DPPE   C4B55464   5.680  23.720  16.920
 2801DPPE   NH355465   6.370  22.740   8.870
 2801DPPE   PO455466   6.370  23.170   9.060
 2801DPPE   GL155467   6.730  22.960   9.320
 2801DPPE   GL255468   6.870  23.200   9.570
 2801DPPE   C1A55469   7.250  22.820   9.520
 2801DPPE   C2A55470   7.620  22.640   9.600
 2801DPPE   C3A55471   7.880  22.370   9.790
 2801DPPE   C4A55472   7.770  22.120  10.160
 2801DPPE   C1B55473   6.770  22.820   9.780
 2801DPPE   C2B55474   6.800  22.330   9.950
 2801DPPE   C3B55475   6.780  21.950  10.110
 2801DPPE   C4B55476   6.830  21.640  10.450
 2802DPPE   NH355477   8.310  26.410  17.480
 2802DPPE   PO455478   7.810  26.420  17.420
 2802DPPE   GL155479   7.960  26.020  17.620
 2802DPPE   GL255480   7.820  25.830  17.400
 2802DPPE   C1A55481   8.200  25.810  17.790
 2802DPPE   C2A55482   8.190  25.340  17.620
 2802DPPE   C3A55483   8.250  24.990  17.430
 2802DPPE   C4A55484   8.390  24.570  17.590
 2802DPPE   C1B55485   7.850  25.680  16.920
 2802DPPE   C2B55486   7.950  25.420  16.610
 2802DPPE   C3B55487   8.220  25.270  16.470
 2802DPPE   C4B55488   8.510  25.310  16.180
 2803DPPE   NH355489  11.950   5.300  15.040
 2803DPPE   PO455490  11.620   5.480  15.260
 2803DPPE   GL155491  11.890   5.810  15.130
 2803DPPE   GL255492  11.840   5.700  14.790
 2803DPPE   C1A55493  11.660   6.140  15.060
 2803DPPE   C2A55494  11.610   6.520  14.960
 2803DPPE   C3A55495  11.580   6.970  14.840
 2803DPPE   C4A55496  11.660   7.310  15.050
 2803DPPE   C1B55497  11.780   6.130  14.590
 2803DPPE   C2B55498  12.110   6.530  14.720
 2803DPPE   C3B55499  12.460   6.770  14.790
 2803DPPE   C4B55500  12.670   7.080  14.870
 2804DPPE   NH355501   4.910  22.610  22.130
 2804DPPE   PO455502   4.820  22.280  22.470
 2804DPPE   GL155503   5.170  22.110  22.330
 2804DPPE   GL255504   5.180  21.740  22.170
 2804DPPE   C1A55505   5.630  22.020  22.310
 2804DPPE   C2A55506   5.830  21.700  22.140
 2804DPPE   C3A55507   6.170  21.550  21.960
 2804DPPE   C4A55508   6.410  21.510  21.570
 2804DPPE   C1B55509   5.370  22.020  21.880
 2804DPPE   C2B55510   5.520  21.730  21.570
 2804DPPE   C3B55511   5.520  21.560  21.150
 2804DPPE   C4B55512   5.870  21.630  20.760
 2805DPPE   NH355513   3.890  21.230  22.440
 2805DPPE   PO455514   4.330  21.380  22.390
 2805DPPE   GL155515   4.660  21.120  22.160
 2805DPPE   GL255516   4.740  21.450  22.090
 2805DPPE   C1A55517   4.980  20.850  21.950
 2805DPPE   C2A55518   4.950  20.600  21.610
 2805DPPE   C3A55519   5.370  20.530  21.290
 2805DPPE   C4A55520   5.660  20.560  20.980
 2805DPPE   C1B55521   5.160  21.330  22.020
 2805DPPE   C2B55522   5.650  21.280  21.870
 2805DPPE   C3B55523   5.890  21.350  21.580
 2805DPPE   C4B55524   6.210  21.060  21.390
 2806DPPE   NH355525  20.630   9.950  20.330
 2806DPPE   PO455526  20.400   9.700  20.500
 2806DPPE   GL155527  20.110   9.940  20.300
 2806DPPE   GL255528  20.150   9.720  20.020
 2806DPPE   C1A55529  20.070  10.240  20.070
 2806DPPE   C2A55530  20.080  10.620  20.110
 2806DPPE   C3A55531  20.120  10.960  19.850
 2806DPPE   C4A55532  19.890  11.070  19.640
 2806DPPE   C1B55533  19.850   9.910  19.810
 2806DPPE   C2B55534  19.810  10.290  19.680
 2806DPPE   C3B55535  19.650  10.710  19.760
 2806DPPE   C4B55536  19.590  10.930  20.020
 2807DPPE   NH355537  17.460  18.060  26.030
 2807DPPE   PO455538  17.170  18.240  26.210
 2807DPPE   GL155539  16.990  18.110  25.780
 2807DPPE   GL255540  17.040  17.810  25.800
 2807DPPE   C1A55541  16.950  17.950  25.360
 2807DPPE   C2A55542  16.730  17.700  25.010
 2807DPPE   C3A55543  16.440  17.770  24.710
 2807DPPE   C4A55544  16.420  18.030  24.300
 2807DPPE   C1B55545  16.610  17.710  25.890
 2807DPPE   C2B55546  16.160  17.850  25.840
 2807DPPE   C3B55547  15.810  17.830  26.030
 2807DPPE   C4B55548  15.310  17.750  25.940
 2808DPPE   NH355549  13.970   6.700   4.070
 2808DPPE   PO455550  14.210   7.090   4.190
 2808DPPE   GL155551  14.170   7.450   4.210
 2808DPPE   GL255552  14.400   7.630   4.040
 2808DPPE   C1A55553  14.280   7.790   4.540
 2808DPPE   C2A55554  14.190   7.830   4.930
 2808DPPE   C3A55555  14.260   8.070   5.320
 2808DPPE   C4A55556  14.120   8.390   5.630
 2808DPPE   C1B55557  14.650   7.490   4.410
 2808DPPE   C2B55558  15.090   7.370   4.460
 2808DPPE   C3B55559  15.460   7.550   4.780
 2808DPPE   C4B55560  15.810   7.400   4.960
 2809DPPE   NH355561  26.080  17.210   5.350
 2809DPPE   PO455562  25.930  17.640   5.390
 2809DPPE   GL155563  25.510  17.400   5.450
 2809DPPE   GL255564  25.630  17.260   5.710
 2809DPPE   C1A55565  25.230  17.090   5.440
 2809DPPE   C2A55566  25.060  16.760   5.580
 2809DPPE   C3A55567  24.750  16.610   5.920
 2809DPPE   C4A55568  24.440  16.780   6.190
 2809DPPE   C1B55569  25.670  17.380   6.100
 2809DPPE   C2B55570  25.310  17.560   6.290
 2809DPPE   C3B55571  24.920  17.490   6.620
 2809DPPE   C4B55572  24.540  17.590   6.630
 2810DPPE   NH355573  15.760  12.110  27.780
 2810DPPE   PO455574  16.050  12.200  27.530
 2810DPPE   GL155575  15.860  12.350  27.130
 2810DPPE   GL255576  16.040  12.530  27.060
 2810DPPE   C1A55577  15.940  12.100  26.720
 2810DPPE   C2A55578  16.040  11.920  26.270
 2810DPPE   C3A55579  16.110  11.630  25.980
 2810DPPE   C4A55580  16.490  11.560  25.780
 2810DPPE   C1B55581  15.840  12.610  26.640
 2810DPPE   C2B55582  15.540  12.920  26.420
 2810DPPE   C3B55583  15.490  12.860  25.950
 2810DPPE   C4B55584  15.240  12.500  25.640
 2811DPPE   NH355585   3.300  13.350  20.460
 2811DPPE   PO455586   3.570  13.460  20.840
 2811DPPE   GL155587   4.020  13.470  20.790
 2811DPPE   GL255588   4.150  13.150  20.760
 2811DPPE   C1A55589   4.440  13.580  20.860
 2811DPPE   C2A55590   4.560  13.990  20.680
 2811DPPE   C3A55591   4.190  14.110  20.230
 2811DPPE   C4A55592   4.100  14.350  19.890
 2811DPPE   C1B55593   4.640  13.150  20.780
 2811DPPE   C2B55594   4.930  13.540  20.700
 2811DPPE   C3B55595   5.230  13.820  20.390
 2811DPPE   C4B55596   5.360  14.090  20.140
 2812DPPE   NH355597   4.670  22.230  11.410
 2812DPPE   PO455598   4.810  21.850  11.230
 2812DPPE   GL155599   5.110  21.430  11.220
 2812DPPE   GL255600   5.210  21.410  10.970
 2812DPPE   C1A55601   5.420  21.120  11.470
 2812DPPE   C2A55602   5.780  21.180  11.510
 2812DPPE   C3A55603   6.190  21.210  11.690
 2812DPPE   C4A55604   6.560  21.120  12.010
 2812DPPE   C1B55605   5.690  21.230  10.990
 2812DPPE   C2B55606   6.070  21.120  11.110
 2812DPPE   C3B55607   6.480  21.100  11.220
 2812DPPE   C4B55608   6.620  20.940  11.530
 2813DPPE   NH355609   8.070  23.010  25.050
 2813DPPE   PO455610   8.300  22.670  25.420
 2813DPPE   GL155611   8.400  22.250  25.200
 2813DPPE   GL255612   8.390  21.950  25.250
 2813DPPE   C1A55613   8.600  22.130  24.730
 2813DPPE   C2A55614   8.680  22.030  24.390
 2813DPPE   C3A55615   9.120  22.050  24.120
 2813DPPE   C4A55616   9.610  22.120  24.230
 2813DPPE   C1B55617   8.490  21.600  24.990
 2813DPPE   C2B55618   8.740  21.420  24.800
 2813DPPE   C3B55619   8.790  21.300  24.440
 2813DPPE   C4B55620   8.620  20.940  24.200
 2814DPPE   NH355621   7.280   9.510  14.810
 2814DPPE   PO455622   7.510   9.160  14.820
 2814DPPE   GL155623   7.200   9.030  14.650
 2814DPPE   GL255624   6.950   9.240  14.530
 2814DPPE   C1A55625   7.010   8.680  14.440
 2814DPPE   C2A55626   6.950   8.300  14.560
 2814DPPE   C3A55627   7.090   7.960  14.380
 2814DPPE   C4A55628   7.080   7.690  14.180
 2814DPPE   C1B55629   6.670   9.150  14.210
 2814DPPE   C2B55630   6.330   9.110  14.040
 2814DPPE   C3B55631   6.020   9.340  13.890
 2814DPPE   C4B55632   5.650   9.410  13.760
 2815DPPE   NH355633   5.160  16.830  13.960
 2815DPPE   PO455634   5.160  17.270  13.870
 2815DPPE   GL155635   5.320  17.210  13.560
 2815DPPE   GL255636   5.280  17.510  13.440
 2815DPPE   C1A55637   5.130  17.180  13.110
 2815DPPE   C2A55638   5.220  16.930  12.700
 2815DPPE   C3A55639   4.970  16.700  12.300
 2815DPPE   C4A55640   4.920  16.450  11.910
 2815DPPE   C1B55641   5.290  17.740  12.960
 2815DPPE   C2B55642   5.260  17.900  12.520
 2815DPPE   C3B55643   5.050  18.200  12.240
 2815DPPE   C4B55644   5.160  18.560  11.920
 2816DPPE   NH355645   7.860  19.960  18.150
 2816DPPE   PO455646   7.910  20.360  17.960
 2816DPPE   GL155647   8.220  20.320  17.700
 2816DPPE   GL255648   8.100  20.220  17.430
 2816DPPE   C1A55649   8.510  20.000  17.780
 2816DPPE   C2A55650   8.910  19.810  17.740
 2816DPPE   C3A55651   9.190  19.660  17.510
 2816DPPE   C4A55652   9.450  19.590  17.200
 2816DPPE   C1B55653   8.600  20.310  17.410
 2816DPPE   C2B55654   8.870  20.050  17.330
 2816DPPE   C3B55655   9.270  20.050  17.110
 2816DPPE   C4B55656   9.660  19.850  16.740
 2817DPPE   NH355657  12.930  21.980  22.490
 2817DPPE   PO455658  12.870  21.890  22.040
 2817DPPE   GL155659  13.140  22.150  21.650
 2817DPPE   GL255660  13.510  22.150  21.470
 2817DPPE   C1A55661  13.340  22.710  21.630
 2817DPPE   C2A55662  13.730  22.960  21.790
 2817DPPE   C3A55663  14.150  23.140  21.800
 2817DPPE   C4A55664  14.540  23.330  21.600
 2817DPPE   C1B55665  13.790  22.590  21.290
 2817DPPE   C2B55666  13.820  22.840  21.140
 2817DPPE   C3B55667  13.910  23.310  21.290
 2817DPPE   C4B55668  14.100  23.650  21.080
 2818DPPE   NH355669  15.600  12.070  23.550
 2818DPPE   PO455670  15.760  11.900  23.140
 2818DPPE   GL155671  16.100  11.890  23.460
 2818DPPE   GL255672  16.090  12.050  23.870
 2818DPPE   C1A55673  16.590  11.800  23.580
 2818DPPE   C2A55674  17.080  11.890  23.670
 2818DPPE   C3A55675  17.520  11.740  23.760
 2818DPPE   C4A55676  17.980  11.920  23.770
 2818DPPE   C1B55677  15.940  11.680  23.840
 2818DPPE   C2B55678  15.750  11.430  23.900
 2818DPPE   C3B55679  15.950  10.970  24.160
 2818DPPE   C4B55680  16.240  10.740  24.160
 2819DPPE   NH355681   6.540  22.040  19.190
 2819DPPE   PO455682   6.380  22.040  18.820
 2819DPPE   GL155683   6.060  22.200  18.650
 2819DPPE   GL255684   6.160  22.540  18.510
 2819DPPE   C1A55685   5.710  22.320  18.550
 2819DPPE   C2A55686   5.320  22.600  18.770
 2819DPPE   C3A55687   4.960  22.690  19.030
 2819DPPE   C4A55688   4.700  22.550  19.350
 2819DPPE   C1B55689   5.900  22.810  18.220
 2819DPPE   C2B55690   5.640  23.180  18.020
 2819DPPE   C3B55691   5.450  23.510  18.330
 2819DPPE   C4B55692   5.180  23.850  18.300
 2820DPPE   NH355693  11.890  16.070  22.680
 2820DPPE   PO455694  11.610  16.010  22.530
 2820DPPE   GL155695  11.670  15.940  22.150
 2820DPPE   GL255696  11.340  15.800  22.000
 2820DPPE   C1A55697  11.880  15.980  21.770
 2820DPPE   C2A55698  12.100  16.070  21.440
 2820DPPE   C3A55699  12.360  16.240  21.160
 2820DPPE   C4A55700  12.680  16.360  20.930
 2820DPPE   C1B55701  11.430  15.840  21.590
 2820DPPE   C2B55702  11.640  16.000  21.270
 2820DPPE   C3B55703  12.050  15.910  21.010
 2820DPPE   C4B55704  12.360  15.990  20.670
 2821DPPE   NH355705   7.890  23.440  19.050
 2821DPPE   PO455706   7.810  23.370  18.600
 2821DPPE   GL155707   7.500  23.740  18.630
 2821DPPE   GL255708   7.170  23.610  18.600
 2821DPPE   C1A55709   7.510  23.940  19.130
 2821DPPE   C2A55710   7.540  24.330  19.330
 2821DPPE   C3A55711   7.680  24.840  19.400
 2821DPPE   C4A55712   7.890  25.160  19.580
 2821DPPE   C1B55713   6.700  23.900  18.620
 2821DPPE   C2B55714   6.670  24.440  18.620
 2821DPPE   C3B55715   6.370  24.690  18.360
 2821DPPE   C4B55716   6.120  24.970  18.170
 2822DPPE   NH355717   5.590  20.540  15.850
 2822DPPE   PO455718   5.640  21.060  15.740
 2822DPPE   GL155719   5.530  21.450  15.670
 2822DPPE   GL255720   5.220  21.480  15.490
 2822DPPE   C1A55721   5.550  21.850  15.460
 2822DPPE   C2A55722   5.280  22.020  15.070
 2822DPPE   C3A55723   5.280  22.140  14.640
 2822DPPE   C4A55724   5.370  22.140  14.200
 2822DPPE   C1B55725   4.850  21.710  15.310
 2822DPPE   C2B55726   4.450  21.840  15.320
 2822DPPE   C3B55727   4.090  21.640  15.270
 2822DPPE   C4B55728   3.790  21.360  15.300
 2823DPPE   NH355729   7.270  10.590  13.900
 2823DPPE   PO455730   7.340  10.420  13.570
 2823DPPE   GL155731   7.250  10.500  13.060
 2823DPPE   GL255732   7.360  10.600  12.790
 2823DPPE   C1A55733   6.950  10.180  12.850
 2823DPPE   C2A55734   6.740   9.720  12.910
 2823DPPE   C3A55735   6.770   9.390  13.200
 2823DPPE   C4A55736   6.900   8.950  13.240
 2823DPPE   C1B55737   7.370  10.890  12.320
 2823DPPE   C2B55738   7.390  11.040  11.840
 2823DPPE   C3B55739   7.670  11.370  11.640
 2823DPPE   C4B55740   7.950  11.520  11.360
 2824DPPE   NH355741   7.490  12.900  18.530
 2824DPPE   PO455742   7.720  13.080  18.290
 2824DPPE   GL155743   8.040  13.410  18.200
 2824DPPE   GL255744   7.940  13.350  17.910
 2824DPPE   C1A55745   8.320  13.780  18.260
 2824DPPE   C2A55746   8.740  13.800  18.400
 2824DPPE   C3A55747   9.230  13.970  18.110
 2824DPPE   C4A55748   9.610  14.160  18.100
 2824DPPE   C1B55749   8.340  13.330  17.790
 2824DPPE   C2B55750   8.700  13.310  17.510
 2824DPPE   C3B55751   8.840  13.420  17.120
 2824DPPE   C4B55752   9.160  13.750  17.030
 2825DPPE   NH355753  16.110  12.170  22.910
 2825DPPE   PO455754  15.820  12.340  22.590
 2825DPPE   GL155755  16.150  12.400  22.330
 2825DPPE   GL255756  16.460  12.400  22.560
 2825DPPE   C1A55757  16.450  12.520  22.070
 2825DPPE   C2A55758  16.960  12.440  22.120
 2825DPPE   C3A55759  17.450  12.340  22.150
 2825DPPE   C4A55760  17.860  12.560  22.360
 2825DPPE   C1B55761  16.740  12.820  22.400
 2825DPPE   C2B55762  16.910  13.190  22.180
 2825DPPE   C3B55763  17.290  13.390  22.000
 2825DPPE   C4B55764  17.610  13.530  21.900
 2826DPPE   NH355765   9.300   9.040  16.320
 2826DPPE   PO455766   9.040   8.740  16.480
 2826DPPE   GL155767   9.170   8.410  16.600
 2826DPPE   GL255768   9.050   8.260  16.270
 2826DPPE   C1A55769   9.100   8.040  16.760
 2826DPPE   C2A55770   8.900   7.790  17.110
 2826DPPE   C3A55771   8.860   7.510  17.470
 2826DPPE   C4A55772   8.990   7.270  17.730
 2826DPPE   C1B55773   9.000   7.970  16.080
 2826DPPE   C2B55774   8.740   7.660  15.970
 2826DPPE   C3B55775   8.580   7.180  15.950
 2826DPPE   C4B55776   8.720   6.750  16.070
 2827DPPE   NH355777   6.740  16.980  19.750
 2827DPPE   PO455778   6.560  17.140  19.460
 2827DPPE   GL155779   6.240  16.980  19.740
 2827DPPE   GL255780   6.110  17.290  19.660
 2827DPPE   C1A55781   5.900  16.730  19.910
 2827DPPE   C2A55782   5.520  16.580  20.190
 2827DPPE   C3A55783   5.260  16.310  20.420
 2827DPPE   C4A55784   5.030  16.330  20.860
 2827DPPE   C1B55785   5.700  17.270  19.920
 2827DPPE   C2B55786   5.470  17.140  20.170
 2827DPPE   C3B55787   5.130  16.980  20.330
 2827DPPE   C4B55788   4.950  16.800  20.570
 2828DPPE   NH355789  10.920   9.400  18.870
 2828DPPE   PO455790  10.500   9.310  18.930
 2828DPPE   GL155791  10.510   9.060  19.300
 2828DPPE   GL255792  10.520   9.320  19.520
 2828DPPE   C1A55793  10.300   8.720  19.360
 2828DPPE   C2A55794  10.180   8.220  19.350
 2828DPPE   C3A55795  10.190   7.830  19.660
 2828DPPE   C4A55796   9.930   7.470  19.590
 2828DPPE   C1B55797  10.200   9.220  19.650
 2828DPPE   C2B55798   9.990   8.860  19.790
 2828DPPE   C3B55799   9.670   8.680  19.990
 2828DPPE   C4B55800   9.430   8.380  20.230
 2829DPPE   NH355801   9.070  20.570  20.110
 2829DPPE   PO455802   9.450  20.320  20.340
 2829DPPE   GL155803   9.740  20.450  20.010
 2829DPPE   GL255804   9.610  20.850  19.930
 2829DPPE   C1A55805  10.210  20.430  19.870
 2829DPPE   C2A55806  10.570  20.370  19.670
 2829DPPE   C3A55807  10.950  20.220  19.360
 2829DPPE   C4A55808  11.010  20.320  18.830
 2829DPPE   C1B55809   9.990  20.790  19.650
 2829DPPE   C2B55810  10.270  20.770  19.350
 2829DPPE   C3B55811  10.360  21.050  18.980
 2829DPPE   C4B55812  10.620  21.270  18.790
 2830DPPE   NH355813  12.560   7.620  18.290
 2830DPPE   PO455814  12.790   7.530  17.870
 2830DPPE   GL155815  12.830   7.280  17.540
 2830DPPE   GL255816  12.450   7.250  17.410
 2830DPPE   C1A55817  13.070   6.920  17.410
 2830DPPE   C2A55818  13.450   6.800  17.460
 2830DPPE   C3A55819  13.790   6.680  17.190
 2830DPPE   C4A55820  14.140   6.350  17.250
 2830DPPE   C1B55821  12.410   6.930  17.080
 2830DPPE   C2B55822  12.040   7.110  16.890
 2830DPPE   C3B55823  12.110   7.450  16.580
 2830DPPE   C4B55824  12.200   7.660  16.190
 2831DPPE   NH355825   6.530  13.400  17.620
 2831DPPE   PO455826   6.880  13.180  17.790
 2831DPPE   GL155827   6.560  12.910  17.650
 2831DPPE   GL255828   6.330  13.010  17.910
 2831DPPE   C1A55829   6.130  12.830  17.560
 2831DPPE   C2A55830   5.730  12.870  17.500
 2831DPPE   C3A55831   5.360  12.710  17.590
 2831DPPE   C4A55832   4.900  12.780  17.770
 2831DPPE   C1B55833   5.870  12.980  17.970
 2831DPPE   C2B55834   5.690  12.940  18.300
 2831DPPE   C3B55835   5.230  12.940  18.430
 2831DPPE   C4B55836   4.790  12.690  18.290
 2832DPPE   NH355837  11.350  22.200  22.080
 2832DPPE   PO455838  11.250  22.650  21.950
 2832DPPE   GL155839  11.000  22.950  22.180
 2832DPPE   GL255840  10.970  23.010  22.520
 2832DPPE   C1A55841  10.720  23.340  22.090
 2832DPPE   C2A55842  10.700  23.800  22.320
 2832DPPE   C3A55843  10.270  23.980  22.210
 2832DPPE   C4A55844  10.190  24.190  21.840
 2832DPPE   C1B55845  10.730  23.330  22.610
 2832DPPE   C2B55846  10.380  23.740  22.730
 2832DPPE   C3B55847   9.990  23.660  22.540
 2832DPPE   C4B55848   9.710  23.370  22.720
 2833DPPE   NH355849  10.480  19.460  22.270
 2833DPPE   PO455850  10.000  19.470  22.340
 2833DPPE   GL155851   9.820  19.600  22.880
 2833DPPE   GL255852   9.660  19.290  23.040
 2833DPPE   C1A55853   9.510  19.710  23.230
 2833DPPE   C2A55854   9.300  19.910  23.620
 2833DPPE   C3A55855   9.050  19.950  23.980
 2833DPPE   C4A55856   9.250  20.110  24.260
 2833DPPE   C1B55857   9.180  19.310  23.170
 2833DPPE   C2B55858   9.010  19.500  23.520
 2833DPPE   C3B55859   8.690  19.570  23.780
 2833DPPE   C4B55860   8.390  19.800  24.030
 2834DPPE   NH355861  24.290  13.240  19.500
 2834DPPE   PO455862  24.260  12.730  19.640
 2834DPPE   GL155863  24.060  12.820  19.270
 2834DPPE   GL255864  23.800  12.630  19.170
 2834DPPE   C1A55865  24.110  13.040  18.910
 2834DPPE   C2A55866  24.110  13.210  18.480
 2834DPPE   C3A55867  24.160  13.470  18.170
 2834DPPE   C4A55868  23.830  13.710  17.950
 2834DPPE   C1B55869  23.650  12.670  18.810
 2834DPPE   C2B55870  23.620  12.470  18.520
 2834DPPE   C3B55871  23.500  12.110  18.390
 2834DPPE   C4B55872  23.710  11.810  18.230
 2835DPPE   NH355873  16.420  25.540  21.800
 2835DPPE   PO455874  16.040  25.800  21.860
 2835DPPE   GL155875  16.010  25.520  21.440
 2835DPPE   GL255876  16.100  25.210  21.540
 2835DPPE   C1A55877  15.810  25.200  21.140
 2835DPPE   C2A55878  15.600  25.080  20.800
 2835DPPE   C3A55879  15.160  25.280  20.840
 2835DPPE   C4A55880  14.790  25.600  20.900
 2835DPPE   C1B55881  16.230  24.890  21.320
 2835DPPE   C2B55882  16.050  24.450  21.290
 2835DPPE   C3B55883  16.190  24.010  21.170
 2835DPPE   C4B55884  16.310  23.650  21.120
 2836DPPE   NH355885  11.780  13.790  15.070
 2836DPPE   PO455886  11.780  13.740  14.620
 2836DPPE   GL155887  11.280  13.640  14.720
 2836DPPE   GL255888  11.110  13.380  14.740
 2836DPPE   C1A55889  11.000  13.870  14.800
 2836DPPE   C2A55890  10.740  13.700  15.040
 2836DPPE   C3A55891  10.640  13.570  15.430
 2836DPPE   C4A55892  10.420  13.380  15.720
 2836DPPE   C1B55893  10.870  13.240  15.150
 2836DPPE   C2B55894  10.550  13.110  15.270
 2836DPPE   C3B55895  10.250  12.940  15.540
 2836DPPE   C4B55896  10.060  12.750  15.870
 2837DPPE   NH355897   5.330  18.800   6.350
 2837DPPE   PO455898   5.560  18.530   6.170
 2837DPPE   GL155899   5.860  18.450   6.550
 2837DPPE   GL255900   5.980  18.160   6.500
 2837DPPE   C1A55901   6.040  18.630   6.870
 2837DPPE   C2A55902   6.500  18.570   7.140
 2837DPPE   C3A55903   6.900  18.270   7.110
 2837DPPE   C4A55904   7.350  18.300   7.150
 2837DPPE   C1B55905   5.920  18.000   6.810
 2837DPPE   C2B55906   5.890  17.670   7.200
 2837DPPE   C3B55907   6.040  17.290   7.240
 2837DPPE   C4B55908   6.310  17.180   7.540
 2838DPPE   NH355909   9.800   5.900  20.580
 2838DPPE   PO455910   9.690   5.950  21.050
 2838DPPE   GL155911   9.750   6.340  20.860
 2838DPPE   GL255912   9.670   6.400  20.490
 2838DPPE   C1A55913   9.710   6.880  20.770
 2838DPPE   C2A55914   9.430   7.140  20.450
 2838DPPE   C3A55915   9.210   7.190  20.040
 2838DPPE   C4A55916   9.100   7.440  19.800
 2838DPPE   C1B55917   9.920   6.760  20.280
 2838DPPE   C2B55918  10.100   7.170  20.050
 2838DPPE   C3B55919  10.390   7.350  19.720
 2838DPPE   C4B55920  10.750   7.460  19.470
 2839DPPE   NH355921   1.470  18.980  16.870
 2839DPPE   PO455922   1.590  19.250  16.610
 2839DPPE   GL155923   1.960  19.460  16.650
 2839DPPE   GL255924   1.940  19.800  16.640
 2839DPPE   C1A55925   2.290  19.510  16.990
 2839DPPE   C2A55926   2.620  19.340  17.190
 2839DPPE   C3A55927   3.080  19.300  17.370
 2839DPPE   C4A55928   3.320  19.160  17.690
 2839DPPE   C1B55929   2.270  19.710  16.390
 2839DPPE   C2B55930   2.710  19.670  16.190
 2839DPPE   C3B55931   2.980  19.880  16.000
 2839DPPE   C4B55932   3.380  19.900  15.740
 2840DPPE   NH355933   4.870  12.890  23.200
 2840DPPE   PO455934   4.920  13.110  22.810
 2840DPPE   GL155935   5.310  13.360  22.670
 2840DPPE   GL255936   5.590  13.440  22.920
 2840DPPE   C1A55937   5.460  13.680  22.410
 2840DPPE   C2A55938   5.800  13.590  22.010
 2840DPPE   C3A55939   6.230  13.690  21.840
 2840DPPE   C4A55940   6.640  14.020  21.920
 2840DPPE   C1B55941   5.730  13.260  22.420
 2840DPPE   C2B55942   5.830  13.010  22.060
 2840DPPE   C3B55943   6.010  12.730  21.810
 2840DPPE   C4B55944   6.180  12.590  21.400
 2841DPPE   NH355945  12.450  24.560  15.980
 2841DPPE   PO455946  12.810  24.790  15.920
 2841DPPE   GL155947  12.900  25.150  15.920
 2841DPPE   GL255948  12.770  25.400  16.210
 2841DPPE   C1A55949  13.060  25.500  15.780
 2841DPPE   C2A55950  13.180  25.960  15.640
 2841DPPE   C3A55951  13.480  26.260  15.530
 2841DPPE   C4A55952  13.700  26.540  15.850
 2841DPPE   C1B55953  12.610  25.670  16.070
 2841DPPE   C2B55954  12.310  25.860  15.850
 2841DPPE   C3B55955  11.910  25.660  16.030
 2841DPPE   C4B55956  11.690  25.650  16.400
 2842DPPE   NH355957  16.690  19.420  20.950
 2842DPPE   PO455958  17.050  19.440  20.600
 2842DPPE   GL155959  17.220  19.480  20.960
 2842DPPE   GL255960  17.510  19.280  21.060
 2842DPPE   C1A55961  17.280  19.630  21.310
 2842DPPE   C2A55962  17.330  19.610  21.770
 2842DPPE   C3A55963  17.330  19.370  22.180
 2842DPPE   C4A55964  17.740  19.430  22.420
 2842DPPE   C1B55965  17.660  19.300  21.460
 2842DPPE   C2B55966  17.920  19.370  21.900
 2842DPPE   C3B55967  18.190  19.320  22.290
 2842DPPE   C4B55968  18.470  19.190  22.620
 2843DPPE   NH355969   4.360  17.610  22.770
 2843DPPE   PO455970   4.410  18.070  22.850
 2843DPPE   GL155971   4.390  17.930  22.420
 2843DPPE   GL255972   4.280  18.180  22.210
 2843DPPE   C1A55973   4.700  17.840  22.080
 2843DPPE   C2A55974   5.070  17.600  21.960
 2843DPPE   C3A55975   5.210  17.300  21.730
 2843DPPE   C4A55976   5.340  16.930  21.560
 2843DPPE   C1B55977   4.580  18.290  21.840
 2843DPPE   C2B55978   4.940  18.070  21.740
 2843DPPE   C3B55979   5.180  17.940  21.600
 2843DPPE   C4B55980   5.510  17.650  21.580
 2844DPPE   NH355981   5.660  20.610  23.890
 2844DPPE   PO455982   5.250  20.740  23.690
 2844DPPE   GL155983   5.420  20.820  23.280
 2844DPPE   GL255984   5.730  21.010  23.290
 2844DPPE   C1A55985   5.760  20.570  23.000
 2844DPPE   C2A55986   6.020  20.330  22.650
 2844DPPE   C3A55987   6.390  20.220  22.480
 2844DPPE   C4A55988   6.780  19.880  22.470
 2844DPPE   C1B55989   6.050  20.990  23.150
 2844DPPE   C2B55990   6.480  20.960  23.070
 2844DPPE   C3B55991   6.780  20.790  23.190
 2844DPPE   C4B55992   6.990  20.810  23.490
 2845DPPE   NH355993  17.130  10.700   1.410
 2845DPPE   PO455994  17.150  11.220   1.170
 2845DPPE   GL155995  17.280  11.500   1.450
 2845DPPE   GL255996  17.090  11.740   1.290
 2845DPPE   C1A55997  17.220  11.840   1.830
 2845DPPE   C2A55998  17.210  11.930   2.330
 2845DPPE   C3A55999  16.940  12.100   2.690
 2845DPPE   C4A56000  16.970  12.610   2.790
 2845DPPE   C1B56001  16.820  12.020   1.580
 2845DPPE   C2B56002  16.420  12.250   1.720
 2845DPPE   C3B56003  16.260  12.280   2.110
 2845DPPE   C4B56004  16.350  12.060   2.440
 2846DPPE   NH356005   6.730  18.010  25.380
 2846DPPE   PO456006   7.040  17.920  25.570
 2846DPPE   GL156007   7.390  17.900  25.220
 2846DPPE   GL256008   7.530  17.660  25.120
 2846DPPE   C1A56009   7.580  18.120  24.790
 2846DPPE   C2A56010   7.690  18.450  24.650
 2846DPPE   C3A56011   7.310  18.760  24.630
 2846DPPE   C4A56012   7.020  18.840  24.290
 2846DPPE   C1B56013   7.900  17.760  25.010
 2846DPPE   C2B56014   8.060  17.620  24.660
 2846DPPE   C3B56015   7.800  17.440  24.330
 2846DPPE   C4B56016   7.790  17.220  23.910
 2847DPPE   NH356017  14.160  25.270  24.610
 2847DPPE   PO456018  13.740  25.130  24.300
 2847DPPE   GL156019  13.920  24.710  24.420
 2847DPPE   GL256020  14.240  24.760  24.410
 2847DPPE   C1A56021  13.790  24.360  24.120
 2847DPPE   C2A56022  14.150  24.180  23.810
 2847DPPE   C3A56023  14.240  24.450  23.440
 2847DPPE   C4A56024  14.130  24.510  23.040
 2847DPPE   C1B56025  14.270  24.600  23.990
 2847DPPE   C2B56026  13.930  24.870  23.720
 2847DPPE   C3B56027  13.780  24.800  23.250
 2847DPPE   C4B56028  13.670  24.530  22.870
 2848DPPE   NH356029  21.090  24.050  14.710
 2848DPPE   PO456030  21.070  23.840  15.120
 2848DPPE   GL156031  20.960  24.290  15.140
 2848DPPE   GL256032  21.310  24.380  15.130
 2848DPPE   C1A56033  21.020  24.720  15.310
 2848DPPE   C2A56034  21.360  25.020  15.300
 2848DPPE   C3A56035  21.370  25.430  15.210
 2848DPPE   C4A56036  21.330  25.710  15.540
 2848DPPE   C1B56037  21.640  24.620  15.430
 2848DPPE   C2B56038  21.960  24.910  15.600
 2848DPPE   C3B56039  22.250  24.850  15.860
 2848DPPE   C4B56040  22.330  25.080  16.230
 2849DPPE   NH356041   1.800  21.090  13.740
 2849DPPE   PO456042   2.030  20.810  13.450
 2849DPPE   GL156043   2.490  20.690  13.470
 2849DPPE   GL256044   2.870  20.820  13.360
 2849DPPE   C1A56045   2.790  20.410  13.700
 2849DPPE   C2A56046   3.010  20.490  14.090
 2849DPPE   C3A56047   3.200  20.390  14.420
 2849DPPE   C4A56048   3.580  20.240  14.410
 2849DPPE   C1B56049   3.020  20.460  13.230
 2849DPPE   C2B56050   3.210  19.980  13.140
 2849DPPE   C3B56051   3.140  19.570  13.240
 2849DPPE   C4B56052   2.910  19.360  13.130
 2850DPPE   NH356053  14.480  14.250  17.250
 2850DPPE   PO456054  14.410  13.980  17.610
 2850DPPE   GL156055  14.160  13.620  17.740
 2850DPPE   GL256056  14.060  13.340  17.650
 2850DPPE   C1A56057  14.230  13.450  18.130
 2850DPPE   C2A56058  14.130  13.110  18.380
 2850DPPE   C3A56059  13.820  13.160  18.680
 2850DPPE   C4A56060  13.730  13.140  19.130
 2850DPPE   C1B56061  13.790  13.290  17.980
 2850DPPE   C2B56062  13.520  13.030  18.270
 2850DPPE   C3B56063  13.290  12.740  18.410
 2850DPPE   C4B56064  12.880  12.770  18.510
 2851DPPE   NH356065   9.840  15.470  13.120
 2851DPPE   PO456066   9.890  15.050  13.330
 2851DPPE   GL156067   9.570  14.700  13.470
 2851DPPE   GL256068   9.630  14.290  13.480
 2851DPPE   C1A56069   9.160  14.720  13.360
 2851DPPE   C2A56070   8.760  14.500  13.370
 2851DPPE   C3A56071   8.370  14.560  13.680
 2851DPPE   C4A56072   7.980  14.450  13.850
 2851DPPE   C1B56073   9.530  13.940  13.630
 2851DPPE   C2B56074   9.170  13.730  13.740
 2851DPPE   C3B56075   8.810  13.730  14.010
 2851DPPE   C4B56076   8.610  13.340  14.110
 2852DPPE   NH356077   2.800  17.940  12.080
 2852DPPE   PO456078   2.750  17.630  11.800
 2852DPPE   GL156079   2.980  17.300  11.980
 2852DPPE   GL256080   3.060  17.520  12.200
 2852DPPE   C1A56081   3.140  16.980  12.290
 2852DPPE   C2A56082   3.420  16.710  12.500
 2852DPPE   C3A56083   3.640  16.440  12.310
 2852DPPE   C4A56084   3.930  16.270  12.090
 2852DPPE   C1B56085   3.220  17.580  12.590
 2852DPPE   C2B56086   3.620  17.550  12.700
 2852DPPE   C3B56087   3.750  17.490  13.160
 2852DPPE   C4B56088   3.780  17.390  13.590
 2853DPPE   NH356089  21.080  17.270   0.960
 2853DPPE   PO456090  20.620  17.480   0.880
 2853DPPE   GL156091  20.340  17.360   1.130
 2853DPPE   GL256092  20.110  17.180   0.990
 2853DPPE   C1A56093  20.100  17.420   1.590
 2853DPPE   C2A56094  19.640  17.310   1.920
 2853DPPE   C3A56095  19.250  17.090   2.180
 2853DPPE   C4A56096  18.810  17.150   2.320
 2853DPPE   C1B56097  19.790  17.450   1.140
 2853DPPE   C2B56098  19.430  17.300   1.420
 2853DPPE   C3B56099  19.080  17.300   1.690
 2853DPPE   C4B56100  19.020  17.550   2.120
 2854DPPE   NH356101  27.420  16.230   8.750
 2854DPPE   PO456102  27.530  15.920   8.540
 2854DPPE   GL156103  27.160  15.750   8.590
 2854DPPE   GL256104  26.960  16.060   8.620
 2854DPPE   C1A56105  26.860  15.450   8.780
 2854DPPE   C2A56106  26.680  15.450   9.210
 2854DPPE   C3A56107  26.300  15.680   9.430
 2854DPPE   C4A56108  25.830  15.700   9.410
 2854DPPE   C1B56109  26.720  16.460   8.380
 2854DPPE   C2B56110  26.390  16.710   8.490
 2854DPPE   C3B56111  26.040  16.810   8.870
 2854DPPE   C4B56112  25.830  17.090   9.090
 2855DPPE   NH356113  16.210  19.280   4.740
 2855DPPE   PO456114  16.160  18.870   4.540
 2855DPPE   GL156115  16.210  19.160   4.150
 2855DPPE   GL256116  16.020  19.000   3.940
 2855DPPE   C1A56117  16.150  19.490   3.850
 2855DPPE   C2A56118  15.940  19.600   3.390
 2855DPPE   C3A56119  15.820  19.760   2.950
 2855DPPE   C4A56120  15.620  19.390   2.760
 2855DPPE   C1B56121  15.640  19.140   3.690
 2855DPPE   C2B56122  15.520  19.220   3.250
 2855DPPE   C3B56123  15.380  18.990   2.930
 2855DPPE   C4B56124  15.090  18.700   2.910
 2856DPPE   NH356125  10.350   6.360   9.430
 2856DPPE   PO456126  10.340   6.000   9.730
 2856DPPE   GL156127  10.620   6.280   9.910
 2856DPPE   GL256128  10.560   6.280  10.290
 2856DPPE   C1A56129  10.610   6.640  10.010
 2856DPPE   C2A56130  10.520   7.070  10.060
 2856DPPE   C3A56131  10.520   7.440   9.950
 2856DPPE   C4A56132  10.420   7.870  10.140
 2856DPPE   C1B56133  10.530   6.620  10.570
 2856DPPE   C2B56134  10.590   6.980  10.770
 2856DPPE   C3B56135  10.890   7.220  11.120
 2856DPPE   C4B56136  11.300   7.360  11.250
 2857DPPE   NH356137   8.030  19.180  10.990
 2857DPPE   PO456138   8.100  18.680  10.890
 2857DPPE   GL156139   7.640  18.640  11.020
 2857DPPE   GL256140   7.530  19.000  11.060
 2857DPPE   C1A56141   7.210  18.560  11.100
 2857DPPE   C2A56142   6.810  18.470  11.280
 2857DPPE   C3A56143   6.450  18.390  11.050
 2857DPPE   C4A56144   6.410  18.410  10.660
 2857DPPE   C1B56145   7.450  19.170  11.400
 2857DPPE   C2B56146   7.460  19.060  11.840
 2857DPPE   C3B56147   7.180  18.880  12.010
 2857DPPE   C4B56148   6.800  18.960  12.110
 2858DPPE   NH356149  23.170  19.230  21.660
 2858DPPE   PO456150  23.240  19.680  21.680
 2858DPPE   GL156151  23.030  19.800  21.300
 2858DPPE   GL256152  22.730  19.710  21.320
 2858DPPE   C1A56153  23.000  19.830  20.820
 2858DPPE   C2A56154  22.840  19.670  20.440
 2858DPPE   C3A56155  22.780  19.240  20.190
 2858DPPE   C4A56156  22.530  18.920  20.070
 2858DPPE   C1B56157  22.460  19.630  21.000
 2858DPPE   C2B56158  22.420  19.350  20.580
 2858DPPE   C3B56159  22.130  19.180  20.410
 2858DPPE   C4B56160  21.800  18.970  20.440
 2859DPPE   NH356161  13.330   8.910  26.300
 2859DPPE   PO456162  13.780   8.800  26.170
 2859DPPE   GL156163  14.070   9.140  25.940
 2859DPPE   GL256164  14.360   8.970  25.850
 2859DPPE   C1A56165  14.090   9.410  25.650
 2859DPPE   C2A56166  13.970   9.590  25.230
 2859DPPE   C3A56167  14.080   9.730  24.790
 2859DPPE   C4A56168  14.420   9.620  24.410
 2859DPPE   C1B56169  14.480   9.170  25.460
 2859DPPE   C2B56170  14.650   9.410  25.030
 2859DPPE   C3B56171  14.650   9.750  24.810
 2859DPPE   C4B56172  14.460  10.090  24.580
 2860DPPE   NH356173   5.240  21.580   9.030
 2860DPPE   PO456174   5.140  21.650   9.510
 2860DPPE   GL156175   5.540  21.610   9.670
 2860DPPE   GL256176   5.940  21.930   9.670
 2860DPPE   C1A56177   5.850  21.640  10.090
 2860DPPE   C2A56178   6.320  21.780  10.380
 2860DPPE   C3A56179   6.390  21.850  10.720
 2860DPPE   C4A56180   6.760  21.600  10.920
 2860DPPE   C1B56181   6.290  21.890   9.890
 2860DPPE   C2B56182   6.610  21.610   9.780
 2860DPPE   C3B56183   7.010  21.470  10.020
 2860DPPE   C4B56184   7.200  21.140  10.200
 2861DPPE   NH356185  16.050  17.130  20.620
 2861DPPE   PO456186  15.930  17.430  20.380
 2861DPPE   GL156187  15.550  17.220  20.670
 2861DPPE   GL256188  15.700  17.180  21.020
 2861DPPE   C1A56189  15.150  16.990  20.790
 2861DPPE   C2A56190  14.780  16.850  20.850
 2861DPPE   C3A56191  14.570  16.610  20.610
 2861DPPE   C4A56192  14.390  16.530  20.180
 2861DPPE   C1B56193  15.700  17.470  21.400
 2861DPPE   C2B56194  15.390  17.900  21.460
 2861DPPE   C3B56195  15.310  18.290  21.250
 2861DPPE   C4B56196  15.180  18.710  21.090
 2862DPPE   NH356197  17.210  29.000  16.370
 2862DPPE   PO456198  17.640  28.850  16.220
 2862DPPE   GL156199  17.500  28.590  16.520
 2862DPPE   GL256200  17.150  28.500  16.350
 2862DPPE   C1A56201  17.520  28.200  16.500
 2862DPPE   C2A56202  17.350  27.810  16.690
 2862DPPE   C3A56203  17.200  27.530  16.800
 2862DPPE   C4A56204  17.240  27.120  17.080
 2862DPPE   C1B56205  17.090  27.990  16.300
 2862DPPE   C2B56206  16.840  27.800  16.520
 2862DPPE   C3B56207  16.610  27.350  16.550
 2862DPPE   C4B56208  16.800  26.930  16.570
 2863DPPE   NH356209  16.300  13.040  18.950
 2863DPPE   PO456210  16.680  12.870  18.980
 2863DPPE   GL156211  16.690  12.880  19.500
 2863DPPE   GL256212  16.610  13.210  19.680
 2863DPPE   C1A56213  16.540  12.560  19.720
 2863DPPE   C2A56214  16.200  12.320  19.770
 2863DPPE   C3A56215  15.740  12.100  19.940
 2863DPPE   C4A56216  15.350  11.770  19.960
 2863DPPE   C1B56217  16.610  12.960  20.010
 2863DPPE   C2B56218  16.700  12.820  20.470
 2863DPPE   C3B56219  16.880  12.500  20.690
 2863DPPE   C4B56220  17.030  12.120  20.760
 2864DPPE   NH356221  11.590  10.440   8.820
 2864DPPE   PO456222  11.320  10.700   8.590
 2864DPPE   GL156223  11.030  10.530   8.350
 2864DPPE   GL256224  10.680  10.680   8.290
 2864DPPE   C1A56225  10.790  10.360   7.890
 2864DPPE   C2A56226  10.630  10.140   7.500
 2864DPPE   C3A56227  10.390  10.070   7.110
 2864DPPE   C4A56228  10.140   9.880   6.870
 2864DPPE   C1B56229  10.310  10.350   8.170
 2864DPPE   C2B56230  10.150  10.070   7.790
 2864DPPE   C3B56231  10.220   9.780   7.470
 2864DPPE   C4B56232  10.430   9.570   7.220
 2865DPPE   NH356233  11.700  14.080  27.840
 2865DPPE   PO456234  11.680  13.550  27.750
 2865DPPE   GL156235  11.870  13.440  27.280
 2865DPPE   GL256236  11.660  13.180  27.210
 2865DPPE   C1A56237  12.070  13.630  27.040
 2865DPPE   C2A56238  12.320  13.680  26.590
 2865DPPE   C3A56239  12.490  14.030  26.340
 2865DPPE   C4A56240  12.420  14.320  25.970
 2865DPPE   C1B56241  11.290  13.400  27.020
 2865DPPE   C2B56242  11.280  13.430  26.550
 2865DPPE   C3B56243  11.520  13.100  26.280
 2865DPPE   C4B56244  11.380  12.770  25.970
 2866DPPE   NH356245  10.130  17.330  14.530
 2866DPPE   PO456246  10.080  16.990  14.920
 2866DPPE   GL156247   9.880  16.960  15.310
 2866DPPE   GL256248   9.940  17.130  15.570
 2866DPPE   C1A56249   9.440  17.180  15.390
 2866DPPE   C2A56250   9.080  17.060  15.340
 2866DPPE   C3A56251   8.640  17.150  15.450
 2866DPPE   C4A56252   8.300  17.350  15.420
 2866DPPE   C1B56253   9.820  16.800  15.830
 2866DPPE   C2B56254   9.330  16.480  15.990
 2866DPPE   C3B56255   9.030  16.220  15.790
 2866DPPE   C4B56256   9.120  15.990  15.410
 2867DPPE   NH356257  14.780  29.410  13.250
 2867DPPE   PO456258  14.590  29.270  13.670
 2867DPPE   GL156259  14.570  28.920  13.590
 2867DPPE   GL256260  14.640  28.840  13.980
 2867DPPE   C1A56261  14.510  28.650  13.340
 2867DPPE   C2A56262  14.490  28.290  13.240
 2867DPPE   C3A56263  14.580  27.920  13.410
 2867DPPE   C4A56264  14.540  27.480  13.300
 2867DPPE   C1B56265  14.730  28.490  13.850
 2867DPPE   C2B56266  14.900  28.160  13.690
 2867DPPE   C3B56267  15.210  27.790  13.870
 2867DPPE   C4B56268  15.650  27.520  13.840
 2868DPPE   NH356269  10.890   7.400   7.170
 2868DPPE   PO456270  10.530   7.200   7.390
 2868DPPE   GL156271  10.880   7.470   7.660
 2868DPPE   GL256272  10.960   7.230   7.940
 2868DPPE   C1A56273  11.200   7.750   7.790
 2868DPPE   C2A56274  11.360   8.130   7.770
 2868DPPE   C3A56275  11.550   8.380   7.570
 2868DPPE   C4A56276  11.600   8.740   7.420
 2868DPPE   C1B56277  11.260   7.480   8.190
 2868DPPE   C2B56278  11.450   7.870   8.190
 2868DPPE   C3B56279  11.540   8.270   8.220
 2868DPPE   C4B56280  11.320   8.630   8.390
 2869DPPE   NH356281  12.610  14.670  17.200
 2869DPPE   PO456282  12.920  14.480  17.400
 2869DPPE   GL156283  12.900  14.150  17.740
 2869DPPE   GL256284  12.980  13.800  17.730
 2869DPPE   C1A56285  12.650  14.080  18.090
 2869DPPE   C2A56286  12.380  14.080  18.480
 2869DPPE   C3A56287  12.090  14.440  18.520
 2869DPPE   C4A56288  11.800  14.640  18.260
 2869DPPE   C1B56289  12.600  13.630  17.960
 2869DPPE   C2B56290  12.270  13.420  18.160
 2869DPPE   C3B56291  12.080  13.630  18.560
 2869DPPE   C4B56292  11.940  13.990  18.580
 2870DPPE   NH356293   8.900  12.030  25.890
 2870DPPE   PO456294   8.390  11.960  25.630
 2870DPPE   GL156295   8.480  11.890  25.200
 2870DPPE   GL256296   8.310  12.070  24.910
 2870DPPE   C1A56297   8.800  11.640  25.000
 2870DPPE   C2A56298   9.060  11.310  24.740
 2870DPPE   C3A56299   9.010  10.930  24.520
 2870DPPE   C4A56300   8.770  10.820  24.060
 2870DPPE   C1B56301   8.550  11.860  24.600
 2870DPPE   C2B56302   8.880  11.730  24.390
 2870DPPE   C3B56303   9.180  11.820  24.040
 2870DPPE   C4B56304   9.180  11.860  23.620
 2871DPPE   NH356305  12.050  14.680  16.800
 2871DPPE   PO456306  12.450  14.460  16.720
 2871DPPE   GL156307  12.180  14.320  17.090
 2871DPPE   GL256308  11.790  14.170  16.980
 2871DPPE   C1A56309  12.000  14.330  17.510
 2871DPPE   C2A56310  12.140  14.720  17.730
 2871DPPE   C3A56311  12.400  14.800  17.990
 2871DPPE   C4A56312  12.560  14.580  18.390
 2871DPPE   C1B56313  11.890  13.850  17.400
 2871DPPE   C2B56314  11.580  13.580  17.560
 2871DPPE   C3B56315  11.280  13.350  17.770
 2871DPPE   C4B56316  10.910  13.190  17.740
 2872DPPE   NH356317  13.380   8.720  25.800
 2872DPPE   PO456318  13.780   8.450  25.800
 2872DPPE   GL156319  13.870   8.780  25.540
 2872DPPE   GL256320  13.690   9.060  25.600
 2872DPPE   C1A56321  14.140   9.030  25.120
 2872DPPE   C2A56322  14.200   9.260  24.770
 2872DPPE   C3A56323  14.280   9.090  24.440
 2872DPPE   C4A56324  14.290   9.050  23.910
 2872DPPE   C1B56325  13.570   9.260  25.320
 2872DPPE   C2B56326  13.710   9.270  24.910
 2872DPPE   C3B56327  13.760   9.310  24.450
 2872DPPE   C4B56328  13.950   9.610  24.180
 2873DPPE   NH356329  13.080   9.800  14.560
 2873DPPE   PO456330  13.070   9.390  14.690
 2873DPPE   GL156331  13.060   9.050  14.870
 2873DPPE   GL256332  13.370   8.930  15.020
 2873DPPE   C1A56333  12.940   8.630  15.070
 2873DPPE   C2A56334  12.660   8.350  15.130
 2873DPPE   C3A56335  12.280   8.120  14.950
 2873DPPE   C4A56336  12.020   8.130  15.270
 2873DPPE   C1B56337  13.580   8.510  15.040
 2873DPPE   C2B56338  13.840   8.170  15.210
 2873DPPE   C3B56339  14.140   8.040  15.490
 2873DPPE   C4B56340  14.300   7.810  15.700
 2874DPPE   NH356341  13.690  16.250  18.580
 2874DPPE   PO456342  13.540  16.750  18.470
 2874DPPE   GL156343  13.280  16.580  18.820
 2874DPPE   GL256344  13.320  16.250  18.920
 2874DPPE   C1A56345  13.140  16.810  19.210
 2874DPPE   C2A56346  12.970  16.810  19.640
 2874DPPE   C3A56347  12.750  16.860  19.890
 2874DPPE   C4A56348  12.680  16.870  20.230
 2874DPPE   C1B56349  13.180  15.910  19.190
 2874DPPE   C2B56350  12.890  15.790  19.460
 2874DPPE   C3B56351  12.650  15.570  19.560
 2874DPPE   C4B56352  12.300  15.270  19.550
 2875DPPE   NH356353   6.970   8.130  21.390
 2875DPPE   PO456354   7.330   8.150  21.650
 2875DPPE   GL156355   7.450   8.200  21.180
 2875DPPE   GL256356   7.420   8.140  20.900
 2875DPPE   C1A56357   7.840   8.370  21.000
 2875DPPE   C2A56358   8.200   8.760  20.920
 2875DPPE   C3A56359   8.570   8.760  20.650
 2875DPPE   C4A56360   8.830   9.070  20.320
 2875DPPE   C1B56361   7.490   8.190  20.440
 2875DPPE   C2B56362   7.700   8.450  20.400
 2875DPPE   C3B56363   8.140   8.520  20.390
 2875DPPE   C4B56364   8.440   8.700  20.150
 2876DPPE   NH356365   9.520  20.750  14.430
 2876DPPE   PO456366   9.290  20.430  14.100
 2876DPPE   GL156367   9.080  20.370  14.440
 2876DPPE   GL256368   8.760  20.230  14.430
 2876DPPE   C1A56369   8.910  20.540  14.870
 2876DPPE   C2A56370   8.650  20.500  15.220
 2876DPPE   C3A56371   8.180  20.580  15.260
 2876DPPE   C4A56372   7.780  20.900  15.230
 2876DPPE   C1B56373   8.430  20.470  14.740
 2876DPPE   C2B56374   8.350  20.770  14.860
 2876DPPE   C3B56375   8.170  21.160  14.670
 2876DPPE   C4B56376   8.510  21.480  14.680
 2877DPPE   NH356377   3.860  14.290  22.270
 2877DPPE   PO456378   4.120  13.970  22.160
 2877DPPE   GL156379   4.460  13.930  21.930
 2877DPPE   GL256380   4.720  13.890  22.160
 2877DPPE   C1A56381   4.690  13.900  21.610
 2877DPPE   C2A56382   5.160  13.990  21.400
 2877DPPE   C3A56383   5.440  14.240  21.240
 2877DPPE   C4A56384   5.900  14.210  21.050
 2877DPPE   C1B56385   5.140  14.090  22.290
 2877DPPE   C2B56386   5.540  14.160  22.290
 2877DPPE   C3B56387   5.730  14.480  22.120
 2877DPPE   C4B56388   6.190  14.630  22.130
 2878DPPE   NH356389  11.450  12.090   1.750
 2878DPPE   PO456390  11.050  11.780   2.030
 2878DPPE   GL156391  11.200  12.190   2.140
 2878DPPE   GL256392  11.570  12.350   2.180
 2878DPPE   C1A56393  10.940  12.500   2.430
 2878DPPE   C2A56394  11.010  12.610   2.840
 2878DPPE   C3A56395  11.260  12.900   3.170
 2878DPPE   C4A56396  11.390  13.270   3.280
 2878DPPE   C1B56397  11.470  12.400   2.590
 2878DPPE   C2B56398  11.550  12.440   3.200
 2878DPPE   C3B56399  11.540  12.860   3.590
 2878DPPE   C4B56400  11.500  12.870   4.040
 2879DPPE   NH356401  17.540   7.570  19.760
 2879DPPE   PO456402  17.260   7.340  20.070
 2879DPPE   GL156403  17.050   7.740  19.890
 2879DPPE   GL256404  17.220   8.020  19.960
 2879DPPE   C1A56405  16.660   7.650  19.810
 2879DPPE   C2A56406  16.360   8.030  19.680
 2879DPPE   C3A56407  16.360   8.420  19.480
 2879DPPE   C4A56408  16.390   8.920  19.260
 2879DPPE   C1B56409  16.860   8.190  19.820
 2879DPPE   C2B56410  16.680   8.660  19.800
 2879DPPE   C3B56411  16.230   8.800  19.760
 2879DPPE   C4B56412  16.070   9.130  19.650
 2880DPPE   NH356413  20.540  22.210  17.470
 2880DPPE   PO456414  20.250  22.470  17.800
 2880DPPE   GL156415  20.360  22.730  18.090
 2880DPPE   GL256416  20.710  22.650  18.030
 2880DPPE   C1A56417  20.280  23.110  18.310
 2880DPPE   C2A56418  20.540  23.440  18.560
 2880DPPE   C3A56419  20.590  23.830  18.700
 2880DPPE   C4A56420  20.510  24.240  18.930
 2880DPPE   C1B56421  20.800  22.950  18.390
 2880DPPE   C2B56422  20.990  23.260  18.650
 2880DPPE   C3B56423  21.110  23.630  18.930
 2880DPPE   C4B56424  21.460  23.930  18.970
 2881DPPE   NH356425  11.980  25.930   6.430
 2881DPPE   PO456426  12.360  26.110   6.200
 2881DPPE   GL156427  12.550  25.830   6.500
 2881DPPE   GL256428  12.450  25.570   6.280
 2881DPPE   C1A56429  12.850  25.850   6.810
 2881DPPE   C2A56430  13.040  25.940   7.150
 2881DPPE   C3A56431  13.350  26.240   7.210
 2881DPPE   C4A56432  13.770  26.080   7.420
 2881DPPE   C1B56433  12.730  25.370   6.630
 2881DPPE   C2B56434  12.750  25.260   6.990
 2881DPPE   C3B56435  12.410  25.260   7.290
 2881DPPE   C4B56436  12.250  25.480   7.660
 2882DPPE   NH356437  19.180  19.690   0.550
 2882DPPE   PO456438  19.030  19.900   0.890
 2882DPPE   GL156439  18.910  19.880   1.300
 2882DPPE   GL256440  19.210  19.960   1.480
 2882DPPE   C1A56441  19.060  19.510   1.690
 2882DPPE   C2A56442  18.840  19.290   1.950
 2882DPPE   C3A56443  18.890  18.930   2.250
 2882DPPE   C4A56444  18.870  18.540   2.270
 2882DPPE   C1B56445  18.900  19.990   1.780
 2882DPPE   C2B56446  18.830  19.750   2.070
 2882DPPE   C3B56447  18.630  19.390   2.350
 2882DPPE   C4B56448  18.250  19.280   2.680
 2883DPPE   NH356449  17.210  21.600  19.620
 2883DPPE   PO456450  17.650  21.710  19.620
 2883DPPE   GL156451  17.900  22.010  19.730
 2883DPPE   GL256452  18.150  22.010  19.780
 2883DPPE   C1A56453  17.900  22.410  19.890
 2883DPPE   C2A56454  17.980  22.870  19.970
 2883DPPE   C3A56455  17.890  23.200  20.090
 2883DPPE   C4A56456  17.790  23.570  20.240
 2883DPPE   C1B56457  18.340  22.290  20.180
 2883DPPE   C2B56458  18.410  22.680  20.250
 2883DPPE   C3B56459  18.770  22.950  20.280
 2883DPPE   C4B56460  18.840  23.280  20.070
 2884DPPE   NH356461  14.710  10.790  27.690
 2884DPPE   PO456462  15.150  11.120  27.660
 2884DPPE   GL156463  15.070  11.150  27.190
 2884DPPE   GL256464  14.670  11.210  27.150
 2884DPPE   C1A56465  14.990  11.270  26.710
 2884DPPE   C2A56466  14.910  10.990  26.300
 2884DPPE   C3A56467  14.610  10.670  26.220
 2884DPPE   C4A56468  14.270  10.550  25.940
 2884DPPE   C1B56469  14.520  11.380  26.750
 2884DPPE   C2B56470  14.340  11.320  26.460
 2884DPPE   C3B56471  14.350  11.130  26.120
 2884DPPE   C4B56472  14.630  11.270  25.840
 2885DPPE   NH356473  11.640  13.420  15.620
 2885DPPE   PO456474  11.510  13.400  15.100
 2885DPPE   GL156475  11.360  13.090  15.380
 2885DPPE   GL256476  11.670  12.880  15.500
 2885DPPE   C1A56477  11.060  12.840  15.360
 2885DPPE   C2A56478  10.880  12.680  15.180
 2885DPPE   C3A56479  10.510  12.510  15.310
 2885DPPE   C4A56480  10.060  12.440  15.410
 2885DPPE   C1B56481  11.350  12.610  15.680
 2885DPPE   C2B56482  10.920  12.420  15.680
 2885DPPE   C3B56483  10.460  12.330  15.800
 2885DPPE   C4B56484  10.120  12.080  15.800
 2886DPPE   NH356485  19.160  29.800  11.820
 2886DPPE   PO456486  19.110  29.330  11.980
 2886DPPE   GL156487  19.140  28.930  12.000
 2886DPPE   GL256488  19.040  28.860  12.310
 2886DPPE   C1A56489  18.950  28.480  11.970
 2886DPPE   C2A56490  18.680  28.130  11.950
 2886DPPE   C3A56491  18.370  27.980  12.190
 2886DPPE   C4A56492  18.500  27.550  12.150
 2886DPPE   C1B56493  18.820  28.470  12.490
 2886DPPE   C2B56494  18.790  28.030  12.440
 2886DPPE   C3B56495  18.790  27.600  12.540
 2886DPPE   C4B56496  19.110  27.310  12.520
 2887DPPE   NH356497   5.760  10.460  10.680
 2887DPPE   PO456498   5.910   9.990  10.490
 2887DPPE   GL156499   6.160  10.080  10.700
 2887DPPE   GL256500   6.320   9.940  10.910
 2887DPPE   C1A56501   6.370  10.430  10.880
 2887DPPE   C2A56502   6.640  10.560  11.220
 2887DPPE   C3A56503   7.080  10.630  11.330
 2887DPPE   C4A56504   7.360  10.980  11.200
 2887DPPE   C1B56505   6.760   9.940  10.820
 2887DPPE   C2B56506   7.130  10.320  10.920
 2887DPPE   C3B56507   7.470  10.290  11.110
 2887DPPE   C4B56508   7.880  10.250  11.160
 2888DPPE   NH356509  12.120  14.120  16.520
 2888DPPE   PO456510  11.800  14.380  16.400
 2888DPPE   GL156511  11.350  14.190  16.410
 2888DPPE   GL256512  11.040  14.070  16.140
 2888DPPE   C1A56513  11.170  14.130  16.800
 2888DPPE   C2A56514  11.100  14.410  17.210
 2888DPPE   C3A56515  11.180  14.170  17.540
 2888DPPE   C4A56516  11.350  13.980  17.840
 2888DPPE   C1B56517  10.720  13.930  16.490
 2888DPPE   C2B56518  10.760  13.820  16.910
 2888DPPE   C3B56519  10.710  13.960  17.350
 2888DPPE   C4B56520  10.570  14.030  17.760
 2889DPPE   NH356521  11.860  17.260  27.890
 2889DPPE   PO456522  11.650  17.010  27.670
 2889DPPE   GL156523  11.670  17.380  27.440
 2889DPPE   GL256524  11.910  17.650  27.610
 2889DPPE   C1A56525  11.730  17.430  27.050
 2889DPPE   C2A56526  11.740  17.490  26.690
 2889DPPE   C3A56527  11.720  17.320  26.330
 2889DPPE   C4A56528  11.630  16.770  26.150
 2889DPPE   C1B56529  12.080  17.650  27.310
 2889DPPE   C2B56530  12.130  17.640  26.860
 2889DPPE   C3B56531  12.190  17.550  26.510
 2889DPPE   C4B56532  12.230  17.410  26.140
 2890DPPE   NH356533  13.170  20.090   0.530
 2890DPPE   PO456534  13.250  19.820   0.930
 2890DPPE   GL156535  13.550  19.880   1.300
 2890DPPE   GL256536  13.410  19.900   1.510
 2890DPPE   C1A56537  13.820  19.540   1.500
 2890DPPE   C2A56538  14.090  19.480   1.960
 2890DPPE   C3A56539  14.470  19.310   1.950
 2890DPPE   C4A56540  14.840  19.420   1.960
 2890DPPE   C1B56541  13.850  19.940   1.760
 2890DPPE   C2B56542  14.170  20.030   2.050
 2890DPPE   C3B56543  14.360  19.730   2.280
 2890DPPE   C4B56544  14.210  19.370   2.550
 2891DPPE   NH356545  18.570  28.820  10.990
 2891DPPE   PO456546  18.200  29.020  10.890
 2891DPPE   GL156547  18.070  28.850  11.180
 2891DPPE   GL256548  17.870  28.910  11.370
 2891DPPE   C1A56549  18.020  28.410  11.160
 2891DPPE   C2A56550  17.890  28.020  11.390
 2891DPPE   C3A56551  17.660  27.680  11.540
 2891DPPE   C4A56552  17.480  27.210  11.550
 2891DPPE   C1B56553  17.530  28.480  11.480
 2891DPPE   C2B56554  17.340  28.070  11.550
 2891DPPE   C3B56555  17.310  27.720  11.930
 2891DPPE   C4B56556  17.440  27.680  12.380
 2892DPPE   NH356557  22.210  13.160  15.030
 2892DPPE   PO456558  22.210  12.940  14.590
 2892DPPE   GL156559  22.550  12.880  14.860
 2892DPPE   GL256560  22.500  12.540  14.990
 2892DPPE   C1A56561  22.880  12.900  15.020
 2892DPPE   C2A56562  23.140  12.770  15.240
 2892DPPE   C3A56563  23.400  12.460  15.470
 2892DPPE   C4A56564  23.570  12.150  15.500
 2892DPPE   C1B56565  22.880  12.320  15.190
 2892DPPE   C2B56566  23.140  11.940  15.260
 2892DPPE   C3B56567  23.400  11.650  15.450
 2892DPPE   C4B56568  23.540  11.250  15.500
 2893DPPE   NH356569  25.440  10.910  16.830
 2893DPPE   PO456570  25.200  10.670  16.760
 2893DPPE   GL156571  24.810  10.710  16.730
 2893DPPE   GL256572  24.560  10.540  16.690
 2893DPPE   C1A56573  24.540  10.980  16.490
 2893DPPE   C2A56574  24.250  11.060  16.330
 2893DPPE   C3A56575  23.960  11.260  16.120
 2893DPPE   C4A56576  23.690  11.550  15.850
 2893DPPE   C1B56577  24.120  10.650  16.610
 2893DPPE   C2B56578  23.830  11.020  16.600
 2893DPPE   C3B56579  23.560  11.010  16.240
 2893DPPE   C4B56580  23.300  11.250  15.940
 2894DPPE   NH356581   6.650   7.490  11.460
 2894DPPE   PO456582   7.000   7.230  11.490
 2894DPPE   GL156583   7.110   7.560  11.710
 2894DPPE   GL256584   7.450   7.730  11.570
 2894DPPE   C1A56585   7.100   7.900  11.960
 2894DPPE   C2A56586   7.050   8.230  12.220
 2894DPPE   C3A56587   7.000   8.760  12.360
 2894DPPE   C4A56588   7.100   8.800  12.780
 2894DPPE   C1B56589   7.600   8.080  11.380
 2894DPPE   C2B56590   7.880   8.450  11.560
 2894DPPE   C3B56591   8.250   8.700  11.550
 2894DPPE   C4B56592   8.560   9.050  11.550
 2895DPPE   NH356593  23.260   7.380   8.850
 2895DPPE   PO456594  22.960   7.270   9.240
 2895DPPE   GL156595  22.620   7.420   9.340
 2895DPPE   GL256596  22.390   7.450   9.030
 2895DPPE   C1A56597  22.280   7.760   9.390
 2895DPPE   C2A56598  22.040   8.140   9.270
 2895DPPE   C3A56599  22.090   8.660   9.340
 2895DPPE   C4A56600  22.100   8.970   9.660
 2895DPPE   C1B56601  22.310   7.830   8.730
 2895DPPE   C2B56602  21.980   8.130   8.760
 2895DPPE   C3B56603  21.700   8.440   9.000
 2895DPPE   C4B56604  21.530   8.880   8.910
 2896DPPE   NH356605   6.230  25.900  20.690
 2896DPPE   PO456606   5.940  25.630  20.710
 2896DPPE   GL156607   6.270  25.370  20.520
 2896DPPE   GL256608   6.530  25.610  20.410
 2896DPPE   C1A56609   6.650  25.130  20.460
 2896DPPE   C2A56610   6.800  24.710  20.390
 2896DPPE   C3A56611   6.510  24.530  20.680
 2896DPPE   C4A56612   6.560  24.340  21.070
 2896DPPE   C1B56613   6.660  25.650  19.940
 2896DPPE   C2B56614   6.910  25.220  19.950
 2896DPPE   C3B56615   7.180  25.010  19.690
 2896DPPE   C4B56616   7.160  24.660  19.400
 2897DPPE   NH356617  17.890  13.250  26.560
 2897DPPE   PO456618  17.670  13.600  26.740
 2897DPPE   GL156619  17.330  13.850  26.530
 2897DPPE   GL256620  17.020  13.670  26.560
 2897DPPE   C1A56621  16.950  14.090  26.310
 2897DPPE   C2A56622  16.520  14.080  26.130
 2897DPPE   C3A56623  16.120  14.170  25.830
 2897DPPE   C4A56624  15.990  14.280  25.440
 2897DPPE   C1B56625  16.780  13.610  26.210
 2897DPPE   C2B56626  16.760  13.570  25.810
 2897DPPE   C3B56627  17.190  13.450  25.430
 2897DPPE   C4B56628  17.330  13.380  24.980
 2898DPPE   NH356629   5.640  26.170  19.320
 2898DPPE   PO456630   5.270  25.880  19.400
 2898DPPE   GL156631   5.320  25.420  19.380
 2898DPPE   GL256632   5.290  25.430  19.110
 2898DPPE   C1A56633   5.190  25.040  19.520
 2898DPPE   C2A56634   5.260  24.730  19.880
 2898DPPE   C3A56635   5.380  24.370  20.170
 2898DPPE   C4A56636   5.300  24.000  20.210
 2898DPPE   C1B56637   5.270  25.060  19.000
 2898DPPE   C2B56638   5.200  24.650  19.060
 2898DPPE   C3B56639   5.420  24.280  19.230
 2898DPPE   C4B56640   5.570  23.930  19.260
 2899DPPE   NH356641  12.100  15.670  16.710
 2899DPPE   PO456642  11.890  15.810  17.040
 2899DPPE   GL156643  11.490  15.700  17.360
 2899DPPE   GL256644  11.460  15.580  17.670
 2899DPPE   C1A56645  11.190  15.850  17.360
 2899DPPE   C2A56646  10.770  15.860  17.390
 2899DPPE   C3A56647  10.460  15.890  17.770
 2899DPPE   C4A56648  10.120  15.870  18.050
 2899DPPE   C1B56649  11.090  15.520  17.740
 2899DPPE   C2B56650  10.830  15.320  17.990
 2899DPPE   C3B56651  10.640  14.990  18.030
 2899DPPE   C4B56652  10.720  14.680  18.300
 2900DPPE   NH356653   6.350  25.330  22.320
 2900DPPE   PO456654   6.710  25.270  22.000
 2900DPPE   GL156655   6.700  25.090  21.500
 2900DPPE   GL256656   6.640  24.710  21.400
 2900DPPE   C1A56657   7.080  25.060  21.260
 2900DPPE   C2A56658   7.520  24.800  21.370
 2900DPPE   C3A56659   7.990  24.620  21.450
 2900DPPE   C4A56660   8.030  24.420  21.820
 2900DPPE   C1B56661   6.970  24.490  21.340
 2900DPPE   C2B56662   7.120  24.120  21.220
 2900DPPE   C3B56663   7.410  23.960  20.850
 2900DPPE   C4B56664   7.520  23.890  20.430
 2901DPPE   NH356665   9.780  21.050  26.580
 2901DPPE   PO456666  10.020  20.720  26.720
 2901DPPE   GL156667   9.990  20.740  26.280
 2901DPPE   GL256668  10.240  20.580  26.060
 2901DPPE   C1A56669  10.130  21.060  25.920
 2901DPPE   C2A56670  10.450  21.050  25.650
 2901DPPE   C3A56671  10.970  21.080  25.540
 2901DPPE   C4A56672  11.260  20.900  25.800
 2901DPPE   C1B56673  10.600  20.790  26.100
 2901DPPE   C2B56674  10.720  21.150  26.000
 2901DPPE   C3B56675  11.120  21.490  25.970
 2901DPPE   C4B56676  11.520  21.620  26.020
 2902DPPE   NH356677  23.890  27.050  13.440
 2902DPPE   PO456678  23.870  27.280  13.060
 2902DPPE   GL156679  23.610  26.880  13.030
 2902DPPE   GL256680  23.790  26.570  12.700
 2902DPPE   C1A56681  23.420  26.590  13.320
 2902DPPE   C2A56682  23.200  26.430  13.660
 2902DPPE   C3A56683  22.910  26.250  13.830
 2902DPPE   C4A56684  22.840  25.920  14.060
 2902DPPE   C1B56685  23.520  26.230  12.920
 2902DPPE   C2B56686  23.130  26.210  13.190
 2902DPPE   C3B56687  23.120  25.910  13.530
 2902DPPE   C4B56688  22.930  25.530  13.630
 2903DPPE   NH356689   5.200  21.150  22.970
 2903DPPE   PO456690   4.940  21.480  22.960
 2903DPPE   GL156691   5.140  21.370  22.510
 2903DPPE   GL256692   5.160  21.010  22.450
 2903DPPE   C1A56693   5.490  21.350  22.360
 2903DPPE   C2A56694   5.820  21.150  22.290
 2903DPPE   C3A56695   5.850  20.840  21.840
 2903DPPE   C4A56696   5.730  20.860  21.330
 2903DPPE   C1B56697   5.420  20.910  22.100
 2903DPPE   C2B56698   5.280  20.440  22.260
 2903DPPE   C3B56699   4.950  20.070  22.330
 2903DPPE   C4B56700   5.160  19.670  22.310
 2904DPPE   NH356701  22.330  22.610  13.950
 2904DPPE   PO456702  22.200  22.930  13.620
 2904DPPE   GL156703  22.340  23.220  13.860
 2904DPPE   GL256704  22.190  23.440  13.650
 2904DPPE   C1A56705  22.590  23.390  14.080
 2904DPPE   C2A56706  22.890  23.600  14.240
 2904DPPE   C3A56707  22.970  23.830  14.480
 2904DPPE   C4A56708  23.270  24.030  14.590
 2904DPPE   C1B56709  22.420  23.780  13.480
 2904DPPE   C2B56710  22.560  24.160  13.630
 2904DPPE   C3B56711  22.790  24.550  13.480
 2904DPPE   C4B56712  22.980  24.960  13.560
 2905DPPE   NH356713   4.390  18.540  22.590
 2905DPPE   PO456714   4.480  18.720  23.070
 2905DPPE   GL156715   4.820  18.610  22.860
 2905DPPE   GL256716   5.050  18.570  23.100
 2905DPPE   C1A56717   5.150  18.840  22.670
 2905DPPE   C2A56718   5.540  18.780  22.340
 2905DPPE   C3A56719   5.690  18.560  22.050
 2905DPPE   C4A56720   5.610  18.410  21.640
 2905DPPE   C1B56721   5.350  18.360  22.970
 2905DPPE   C2B56722   5.610  17.940  22.920
 2905DPPE   C3B56723   5.790  17.510  22.970
 2905DPPE   C4B56724   5.900  17.150  23.060
 2906DPPE   NH356725  15.920  16.230  27.550
 2906DPPE   PO456726  16.270  16.420  27.320
 2906DPPE   GL156727  16.280  16.730  26.910
 2906DPPE   GL256728  16.020  16.940  26.840
 2906DPPE   C1A56729  16.440  16.860  26.500
 2906DPPE   C2A56730  16.670  17.140  26.180
 2906DPPE   C3A56731  16.810  17.060  25.790
 2906DPPE   C4A56732  17.210  16.860  25.510
 2906DPPE   C1B56733  15.900  16.990  26.450
 2906DPPE   C2B56734  16.090  16.920  26.090
 2906DPPE   C3B56735  16.530  16.680  26.010
 2906DPPE   C4B56736  16.560  16.490  25.650
 2907DPPE   NH356737  20.750   8.490  18.500
 2907DPPE   PO456738  20.810   8.730  18.850
 2907DPPE   GL156739  20.720   8.980  18.410
 2907DPPE   GL256740  20.670   9.200  18.570
 2907DPPE   C1A56741  20.280   9.130  18.320
 2907DPPE   C2A56742  19.920   9.200  18.070
 2907DPPE   C3A56743  19.630   9.330  17.800
 2907DPPE   C4A56744  19.430   9.210  17.470
 2907DPPE   C1B56745  20.340   9.560  18.530
 2907DPPE   C2B56746  20.260   9.740  18.280
 2907DPPE   C3B56747  20.560   9.760  17.990
 2907DPPE   C4B56748  20.820   9.550  18.290
 2908DPPE   NH356749   5.970  11.090   8.250
 2908DPPE   PO456750   6.040  11.530   8.220
 2908DPPE   GL156751   6.150  11.860   8.420
 2908DPPE   GL256752   6.040  11.830   8.720
 2908DPPE   C1A56753   6.130  12.290   8.590
 2908DPPE   C2A56754   6.440  12.520   8.690
 2908DPPE   C3A56755   6.860  12.700   8.870
 2908DPPE   C4A56756   7.270  12.740   8.860
 2908DPPE   C1B56757   6.350  12.070   9.010
 2908DPPE   C2B56758   6.560  12.510   9.290
 2908DPPE   C3B56759   6.460  12.960   9.050
 2908DPPE   C4B56760   6.340  13.110   8.780
 2909DPPE   NH356761   5.920   6.920  18.280
 2909DPPE   PO456762   5.840   7.350  18.260
 2909DPPE   GL156763   6.090   7.430  17.870
 2909DPPE   GL256764   6.130   7.140  17.610
 2909DPPE   C1A56765   6.140   7.750  17.580
 2909DPPE   C2A56766   6.460   8.050  17.280
 2909DPPE   C3A56767   6.780   8.310  17.420
 2909DPPE   C4A56768   6.880   8.640  17.730
 2909DPPE   C1B56769   6.490   7.460  17.510
 2909DPPE   C2B56770   6.850   7.810  17.530
 2909DPPE   C3B56771   7.160   8.110  17.200
 2909DPPE   C4B56772   7.560   8.160  17.210
 2910DPPE   NH356773  13.390  28.900  10.140
 2910DPPE   PO456774  13.090  28.760  10.540
 2910DPPE   GL156775  13.390  28.490  10.480
 2910DPPE   GL256776  13.520  28.470  10.830
 2910DPPE   C1A56777  13.610  28.050  10.570
 2910DPPE   C2A56778  13.920  27.780  10.740
 2910DPPE   C3A56779  13.950  27.400  10.870
 2910DPPE   C4A56780  14.040  27.210  11.270
 2910DPPE   C1B56781  13.840  28.180  11.050
 2910DPPE   C2B56782  13.890  27.730  11.240
 2910DPPE   C3B56783  13.580  27.350  11.280
 2910DPPE   C4B56784  13.400  26.940  11.370
 2911DPPE   NH356785   9.620   6.140  12.590
 2911DPPE   PO456786   9.340   6.010  12.890
 2911DPPE   GL156787   9.630   6.250  13.220
 2911DPPE   GL256788   9.860   6.070  13.460
 2911DPPE   C1A56789   9.860   6.560  13.400
 2911DPPE   C2A56790  10.290   6.730  13.510
 2911DPPE   C3A56791  10.470   7.150  13.560
 2911DPPE   C4A56792  10.740   7.390  13.780
 2911DPPE   C1B56793   9.840   6.080  13.930
 2911DPPE   C2B56794   9.790   6.030  14.390
 2911DPPE   C3B56795   9.730   6.360  14.720
 2911DPPE   C4B56796   9.800   6.560  15.040
 2912DPPE   NH356797  10.740  14.500  27.690
 2912DPPE   PO456798  10.830  14.840  27.360
 2912DPPE   GL156799  10.650  14.840  26.920
 2912DPPE   GL256800  10.920  14.610  26.830
 2912DPPE   C1A56801  10.710  14.740  26.420
 2912DPPE   C2A56802  10.830  14.660  26.020
 2912DPPE   C3A56803  11.080  14.330  25.860
 2912DPPE   C4A56804  11.360  14.100  25.770
 2912DPPE   C1B56805  11.330  14.660  26.680
 2912DPPE   C2B56806  11.680  14.610  26.660
 2912DPPE   C3B56807  11.920  14.860  26.460
 2912DPPE   C4B56808  12.230  14.960  26.200
 2913DPPE   NH356809  16.540  16.350   3.980
 2913DPPE   PO456810  16.260  16.000   4.050
 2913DPPE   GL156811  16.210  16.070   3.550
 2913DPPE   GL256812  16.160  16.410   3.420
 2913DPPE   C1A56813  16.410  16.040   3.130
 2913DPPE   C2A56814  16.700  16.230   3.010
 2913DPPE   C3A56815  17.110  16.180   2.760
 2913DPPE   C4A56816  17.480  15.990   2.540
 2913DPPE   C1B56817  16.180  16.610   2.920
 2913DPPE   C2B56818  16.550  16.660   2.700
 2913DPPE   C3B56819  16.490  16.670   2.250
 2913DPPE   C4B56820  16.660  16.910   1.860
 2914DPPE   NH356821   1.540  14.620  16.920
 2914DPPE   PO456822   1.620  14.820  17.320
 2914DPPE   GL156823   1.950  14.520  17.420
 2914DPPE   GL256824   2.080  14.630  17.070
 2914DPPE   C1A56825   2.330  14.220  17.390
 2914DPPE   C2A56826   2.630  13.990  17.230
 2914DPPE   C3A56827   3.030  13.810  17.080
 2914DPPE   C4A56828   3.270  13.490  16.780
 2914DPPE   C1B56829   2.420  14.570  16.990
 2914DPPE   C2B56830   2.810  14.440  17.150
 2914DPPE   C3B56831   3.240  14.470  16.880
 2914DPPE   C4B56832   3.490  14.840  16.850
 2915DPPE   NH356833  14.880  24.810  16.390
 2915DPPE   PO456834  14.460  24.710  16.230
 2915DPPE   GL156835  14.510  25.140  16.480
 2915DPPE   GL256836  14.560  25.460  16.450
 2915DPPE   C1A56837  14.730  25.270  16.900
 2915DPPE   C2A56838  14.670  25.800  17.100
 2915DPPE   C3A56839  14.530  26.160  17.360
 2915DPPE   C4A56840  14.340  26.590  17.700
 2915DPPE   C1B56841  14.800  25.720  16.640
 2915DPPE   C2B56842  14.990  26.070  16.720
 2915DPPE   C3B56843  15.220  26.170  16.430
 2915DPPE   C4B56844  15.370  26.550  16.240
 2916DPPE   NH356845  22.860  10.120  19.240
 2916DPPE   PO456846  23.270  10.050  19.060
 2916DPPE   GL156847  23.020  10.240  18.740
 2916DPPE   GL256848  22.850  10.530  18.890
 2916DPPE   C1A56849  22.870  10.180  18.320
 2916DPPE   C2A56850  23.000  10.210  17.820
 2916DPPE   C3A56851  22.950  10.560  17.520
 2916DPPE   C4A56852  23.180  10.870  17.350
 2916DPPE   C1B56853  22.910  10.650  18.460
 2916DPPE   C2B56854  22.680  10.580  18.120
 2916DPPE   C3B56855  22.560  10.880  17.870
 2916DPPE   C4B56856  22.270  11.100  17.750
 2917DPPE   NH356857  17.490  19.860  25.280
 2917DPPE   PO456858  17.470  19.840  25.670
 2917DPPE   GL156859  17.150  19.520  25.430
 2917DPPE   GL256860  17.330  19.300  25.240
 2917DPPE   C1A56861  16.830  19.650  25.140
 2917DPPE   C2A56862  16.580  19.660  24.790
 2917DPPE   C3A56863  16.240  19.680  24.420
 2917DPPE   C4A56864  15.910  19.710  24.150
 2917DPPE   C1B56865  17.070  19.260  24.910
 2917DPPE   C2B56866  16.930  19.160  24.540
 2917DPPE   C3B56867  16.860  18.760  24.300
 2917DPPE   C4B56868  16.500  18.510  24.210
 2918DPPE   NH356869  25.100  15.470   4.050
 2918DPPE   PO456870  24.790  15.760   3.780
 2918DPPE   GL156871  24.370  15.860   3.940
 2918DPPE   GL256872  24.110  15.610   3.900
 2918DPPE   C1A56873  24.170  16.300   4.120
 2918DPPE   C2A56874  24.180  16.640   4.280
 2918DPPE   C3A56875  24.380  16.760   4.730
 2918DPPE   C4A56876  24.300  16.870   5.030
 2918DPPE   C1B56877  23.930  15.850   4.300
 2918DPPE   C2B56878  23.710  15.950   4.610
 2918DPPE   C3B56879  23.410  15.890   5.060
 2918DPPE   C4B56880  23.280  15.870   5.480
 2919DPPE   NH356881  16.810  17.640  27.120
 2919DPPE   PO456882  16.540  17.550  27.380
 2919DPPE   GL156883  16.360  17.450  26.940
 2919DPPE   GL256884  16.050  17.410  27.010
 2919DPPE   C1A56885  16.330  17.370  26.550
 2919DPPE   C2A56886  16.140  17.430  26.150
 2919DPPE   C3A56887  15.680  17.260  26.060
 2919DPPE   C4A56888  15.320  17.260  25.870
 2919DPPE   C1B56889  15.720  17.300  26.770
 2919DPPE   C2B56890  15.300  17.430  26.870
 2919DPPE   C3B56891  14.860  17.230  26.870
 2919DPPE   C4B56892  14.920  16.770  26.850
 2920DPPE   NH356893   6.700   8.740  21.280
 2920DPPE   PO456894   6.570   8.410  21.050
 2920DPPE   GL156895   6.830   8.550  20.850
 2920DPPE   GL256896   7.050   8.370  20.660
 2920DPPE   C1A56897   6.750   8.820  20.490
 2920DPPE   C2A56898   6.830   9.140  20.270
 2920DPPE   C3A56899   7.090   9.460  20.260
 2920DPPE   C4A56900   7.530   9.600  20.020
 2920DPPE   C1B56901   7.420   8.620  20.820
 2920DPPE   C2B56902   7.770   8.840  20.690
 2920DPPE   C3B56903   8.110   9.010  20.460
 2920DPPE   C4B56904   8.090   9.420  20.330
 2921DPPE   NH356905  17.650  29.330  12.490
 2921DPPE   PO456906  17.260  29.590  12.230
 2921DPPE   GL156907  17.000  29.190  12.170
 2921DPPE   GL256908  17.160  28.910  12.420
 2921DPPE   C1A56909  16.740  28.780  12.010
 2921DPPE   C2A56910  16.380  28.590  11.910
 2921DPPE   C3A56911  16.380  28.200  11.780
 2921DPPE   C4A56912  16.440  27.930  11.450
 2921DPPE   C1B56913  16.940  28.580  12.440
 2921DPPE   C2B56914  16.640  28.280  12.270
 2921DPPE   C3B56915  16.390  27.920  12.210
 2921DPPE   C4B56916  16.330  27.520  11.940
 2922DPPE   NH356917   2.760  14.780  10.410
 2922DPPE   PO456918   2.920  15.260  10.470
 2922DPPE   GL156919   3.270  15.010  10.600
 2922DPPE   GL256920   3.270  14.720  10.780
 2922DPPE   C1A56921   3.650  15.060  10.880
 2922DPPE   C2A56922   3.580  15.480  11.150
 2922DPPE   C3A56923   3.240  15.640  11.360
 2922DPPE   C4A56924   3.190  15.820  11.630
 2922DPPE   C1B56925   3.420  14.590  11.180
 2922DPPE   C2B56926   3.700  14.320  11.360
 2922DPPE   C3B56927   3.850  13.840  11.290
 2922DPPE   C4B56928   3.580  13.500  11.350
 2923DPPE   NH356929  19.590  28.250   8.510
 2923DPPE   PO456930  19.680  27.730   8.540
 2923DPPE   GL156931  19.570  27.290   8.330
 2923DPPE   GL256932  19.380  27.170   8.610
 2923DPPE   C1A56933  19.540  26.930   8.040
 2923DPPE   C2A56934  19.410  26.530   7.990
 2923DPPE   C3A56935  19.430  26.140   8.250
 2923DPPE   C4A56936  19.470  26.100   8.700
 2923DPPE   C1B56937  19.040  26.970   8.670
 2923DPPE   C2B56938  18.630  26.740   8.570
 2923DPPE   C3B56939  18.240  26.780   8.360
 2923DPPE   C4B56940  18.040  26.840   8.040
 2924DPPE   NH356941   2.980  20.770  20.790
 2924DPPE   PO456942   3.040  20.310  20.910
 2924DPPE   GL156943   3.330  20.040  20.680
 2924DPPE   GL256944   3.550  19.880  20.840
 2924DPPE   C1A56945   3.640  19.780  20.360
 2924DPPE   C2A56946   3.670  19.580  19.940
 2924DPPE   C3A56947   3.810  19.140  19.920
 2924DPPE   C4A56948   3.610  18.750  20.130
 2924DPPE   C1B56949   3.800  20.200  20.760
 2924DPPE   C2B56950   4.130  20.230  20.460
 2924DPPE   C3B56951   4.420  20.100  20.040
 2924DPPE   C4B56952   4.490  20.450  19.840
 2925DPPE   NH356953   8.500  19.850  13.240
 2925DPPE   PO456954   8.660  19.630  12.870
 2925DPPE   GL156955   8.230  19.610  12.830
 2925DPPE   GL256956   8.130  19.550  13.070
 2925DPPE   C1A56957   7.700  19.720  12.820
 2925DPPE   C2A56958   7.330  19.660  12.610
 2925DPPE   C3A56959   6.980  19.750  12.520
 2925DPPE   C4A56960   6.510  19.920  12.440
 2925DPPE   C1B56961   7.810  19.830  13.340
 2925DPPE   C2B56962   7.580  20.120  13.490
 2925DPPE   C3B56963   7.350  20.300  13.860
 2925DPPE   C4B56964   7.100  20.640  14.110
 2926DPPE   NH356965  14.970  14.740  18.660
 2926DPPE   PO456966  14.710  15.000  18.470
 2926DPPE   GL156967  14.460  14.800  18.820
 2926DPPE   GL256968  14.180  14.530  18.690
 2926DPPE   C1A56969  14.330  14.590  19.170
 2926DPPE   C2A56970  14.060  14.350  19.390
 2926DPPE   C3A56971  13.740  14.150  19.490
 2926DPPE   C4A56972  13.560  13.860  19.740
 2926DPPE   C1B56973  13.940  14.270  18.910
 2926DPPE   C2B56974  13.500  14.020  19.070
 2926DPPE   C3B56975  13.440  13.610  19.240
 2926DPPE   C4B56976  13.060  13.390  19.230
 2927DPPE   NH356977   7.660  22.190   6.010
 2927DPPE   PO456978   7.520  22.040   5.640
 2927DPPE   GL156979   7.880  21.750   5.910
 2927DPPE   GL256980   7.830  21.350   5.940
 2927DPPE   C1A56981   8.110  21.840   6.240
 2927DPPE   C2A56982   8.150  21.970   6.610
 2927DPPE   C3A56983   8.470  21.760   6.900
 2927DPPE   C4A56984   8.560  21.460   7.200
 2927DPPE   C1B56985   8.210  21.120   5.980
 2927DPPE   C2B56986   8.660  21.030   5.860
 2927DPPE   C3B56987   9.000  20.780   5.900
 2927DPPE   C4B56988   9.220  20.640   6.230
 2928DPPE   NH356989  14.280   8.450  25.520
 2928DPPE   PO456990  13.830   8.360  25.240
 2928DPPE   GL156991  14.070   8.540  25.040
 2928DPPE   GL256992  13.840   8.710  24.820
 2928DPPE   C1A56993  14.250   8.570  24.570
 2928DPPE   C2A56994  13.990   8.570  24.270
 2928DPPE   C3A56995  13.830   8.920  24.100
 2928DPPE   C4A56996  13.850   9.160  23.700
 2928DPPE   C1B56997  13.550   8.810  24.440
 2928DPPE   C2B56998  13.270   8.940  24.130
 2928DPPE   C3B56999  13.020   9.210  23.880
 2928DPPE   C4B57000  12.680   9.240  23.510
 2929DPPE   NH357001  16.570  11.610  17.270
 2929DPPE   PO457002  16.280  11.290  17.380
 2929DPPE   GL157003  16.120  11.060  17.680
 2929DPPE   GL257004  15.890  11.250  17.780
 2929DPPE   C1A57005  15.990  10.750  17.950
 2929DPPE   C2A57006  15.890  10.510  18.330
 2929DPPE   C3A57007  15.900  10.140  18.510
 2929DPPE   C4A57008  15.620   9.960  18.780
 2929DPPE   C1B57009  15.720  11.270  18.230
 2929DPPE   C2B57010  15.540  11.350  18.610
 2929DPPE   C3B57011  15.080  11.610  18.590
 2929DPPE   C4B57012  14.960  11.950  18.760
 2930DPPE   NH357013  19.860  23.080   7.860
 2930DPPE   PO457014  19.620  22.770   7.810
 2930DPPE   GL157015  19.430  23.020   7.490
 2930DPPE   GL257016  19.270  23.260   7.630
 2930DPPE   C1A57017  19.670  23.450   7.420
 2930DPPE   C2A57018  19.910  23.720   7.620
 2930DPPE   C3A57019  20.240  24.060   7.590
 2930DPPE   C4A57020  20.350  24.400   7.310
 2930DPPE   C1B57021  19.170  23.530   7.250
 2930DPPE   C2B57022  19.570  23.660   6.940
 2930DPPE   C3B57023  19.730  23.930   6.750
 2930DPPE   C4B57024  19.640  24.370   6.600
 2931DPPE   NH357025  14.210  15.230  18.510
 2931DPPE   PO457026  14.180  14.820  18.290
 2931DPPE   GL157027  13.890  14.890  18.610
 2931DPPE   GL257028  13.910  14.860  18.940
 2931DPPE   C1A57029  13.440  14.940  18.920
 2931DPPE   C2A57030  13.140  15.000  19.160
 2931DPPE   C3A57031  12.720  15.030  19.440
 2931DPPE   C4A57032  12.580  14.880  19.790
 2931DPPE   C1B57033  13.640  14.610  19.180
 2931DPPE   C2B57034  13.300  14.660  19.480
 2931DPPE   C3B57035  12.870  14.540  19.510
 2931DPPE   C4B57036  12.420  14.420  19.640
 2932DPPE   NH357037  11.920   9.250   3.010
 2932DPPE   PO457038  12.210   8.950   3.070
 2932DPPE   GL157039  12.170   9.270   3.420
 2932DPPE   GL257040  12.220   9.170   3.760
 2932DPPE   C1A57041  12.230   9.630   3.560
 2932DPPE   C2A57042  12.150   9.900   3.750
 2932DPPE   C3A57043  12.020  10.030   4.160
 2932DPPE   C4A57044  12.090  10.350   4.510
 2932DPPE   C1B57045  12.620   9.280   3.830
 2932DPPE   C2B57046  12.960   9.200   4.020
 2932DPPE   C3B57047  13.230   8.950   4.220
 2932DPPE   C4B57048  13.190   8.670   4.560
 2933DPPE   NH357049  11.690  14.870  16.400
 2933DPPE   PO457050  11.530  14.660  16.090
 2933DPPE   GL157051  11.120  14.660  16.190
 2933DPPE   GL257052  11.020  14.760  15.920
 2933DPPE   C1A57053  10.750  14.460  16.340
 2933DPPE   C2A57054  10.430  14.190  16.230
 2933DPPE   C3A57055   9.920  14.060  16.200
 2933DPPE   C4A57056   9.510  14.190  16.150
 2933DPPE   C1B57057  10.710  14.540  15.890
 2933DPPE   C2B57058  10.250  14.400  15.770
 2933DPPE   C3B57059   9.840  14.680  15.660
 2933DPPE   C4B57060   9.380  14.610  15.740
 2934DPPE   NH357061   2.510  18.370  11.650
 2934DPPE   PO457062   2.620  18.690  11.890
 2934DPPE   GL157063   2.940  18.820  12.080
 2934DPPE   GL257064   3.010  18.500  12.220
 2934DPPE   C1A57065   3.390  18.780  12.280
 2934DPPE   C2A57066   3.840  19.040  12.290
 2934DPPE   C3A57067   4.070  19.250  12.640
 2934DPPE   C4A57068   4.340  19.270  13.000
 2934DPPE   C1B57069   3.360  18.240  12.340
 2934DPPE   C2B57070   3.510  18.050  12.690
 2934DPPE   C3B57071   3.600  18.010  13.130
 2934DPPE   C4B57072   3.950  17.900  13.360
 2935DPPE   NH357073  13.180  28.850  14.040
 2935DPPE   PO457074  12.850  28.790  13.840
 2935DPPE   GL157075  13.150  28.460  13.690
 2935DPPE   GL257076  13.430  28.540  13.450
 2935DPPE   C1A57077  13.240  28.080  13.510
 2935DPPE   C2A57078  13.590  27.770  13.470
 2935DPPE   C3A57079  13.840  27.520  13.430
 2935DPPE   C4A57080  14.160  27.190  13.500
 2935DPPE   C1B57081  13.690  28.260  13.160
 2935DPPE   C2B57082  13.660  27.890  12.990
 2935DPPE   C3B57083  13.640  27.520  13.010
 2935DPPE   C4B57084  13.510  27.150  13.380
 2936DPPE   NH357085  12.070  25.410   5.570
 2936DPPE   PO457086  12.390  25.370   5.210
 2936DPPE   GL157087  12.460  25.050   5.510
 2936DPPE   GL257088  12.840  24.920   5.550
 2936DPPE   C1A57089  12.350  24.760   5.780
 2936DPPE   C2A57090  12.140  24.680   6.210
 2936DPPE   C3A57091  12.290  24.570   6.590
 2936DPPE   C4A57092  12.550  24.240   6.700
 2936DPPE   C1B57093  13.160  24.860   5.820
 2936DPPE   C2B57094  13.240  24.700   6.300
 2936DPPE   C3B57095  13.510  24.500   6.520
 2936DPPE   C4B57096  13.350  24.410   6.890
 2937DPPE   NH357097  12.880  23.290  26.410
 2937DPPE   PO457098  13.210  23.340  26.120
 2937DPPE   GL157099  13.090  23.120  25.750
 2937DPPE   GL257100  13.320  22.850  25.670
 2937DPPE   C1A57101  12.910  22.830  25.390
 2937DPPE   C2A57102  12.830  22.530  25.030
 2937DPPE   C3A57103  12.780  22.490  24.570
 2937DPPE   C4A57104  12.960  22.390  24.160
 2937DPPE   C1B57105  13.610  22.810  25.350
 2937DPPE   C2B57106  13.850  22.630  25.040
 2937DPPE   C3B57107  14.020  22.670  24.650
 2937DPPE   C4B57108  14.060  23.080  24.310
 2938DPPE   NH357109  17.280   5.230   9.010
 2938DPPE   PO457110  16.970   5.180   8.950
 2938DPPE   GL157111  16.510   5.130   9.100
 2938DPPE   GL257112  16.380   5.430   8.950
 2938DPPE   C1A57113  16.300   5.080   9.480
 2938DPPE   C2A57114  15.950   5.330   9.840
 2938DPPE   C3A57115  15.690   5.660   9.970
 2938DPPE   C4A57116  15.620   6.080  10.140
 2938DPPE   C1B57117  16.070   5.580   9.180
 2938DPPE   C2B57118  16.050   5.900   8.840
 2938DPPE   C3B57119  16.300   6.280   8.780
 2938DPPE   C4B57120  16.730   6.510   8.750
 2939DPPE   NH357121  14.230   5.550  20.990
 2939DPPE   PO457122  14.270   5.690  21.480
 2939DPPE   GL157123  14.100   5.970  21.240
 2939DPPE   GL257124  14.280   6.060  21.020
 2939DPPE   C1A57125  13.640   6.120  21.190
 2939DPPE   C2A57126  13.550   6.560  21.120
 2939DPPE   C3A57127  13.570   6.900  21.340
 2939DPPE   C4A57128  13.550   7.380  21.460
 2939DPPE   C1B57129  14.610   6.190  20.750
 2939DPPE   C2B57130  15.000   6.430  20.590
 2939DPPE   C3B57131  15.340   6.530  20.700
 2939DPPE   C4B57132  15.770   6.780  20.790
 2940DPPE   NH357133   6.550  11.800  24.100
 2940DPPE   PO457134   6.620  12.260  24.180
 2940DPPE   GL157135   6.910  12.360  23.790
 2940DPPE   GL257136   6.700  12.550  23.630
 2940DPPE   C1A57137   7.200  12.220  23.500
 2940DPPE   C2A57138   7.500  12.180  23.060
 2940DPPE   C3A57139   7.690  12.240  22.710
 2940DPPE   C4A57140   8.070  12.450  22.510
 2940DPPE   C1B57141   7.040  12.730  23.450
 2940DPPE   C2B57142   7.340  13.020  23.630
 2940DPPE   C3B57143   7.720  13.140  23.400
 2940DPPE   C4B57144   8.130  13.250  23.450
 2941DPPE   NH357145   6.460  12.580   5.590
 2941DPPE   PO457146   6.860  12.380   5.480
 2941DPPE   GL157147   7.220  12.430   5.630
 2941DPPE   GL257148   7.250  12.750   5.750
 2941DPPE   C1A57149   7.310  12.480   6.150
 2941DPPE   C2A57150   7.300  12.670   6.530
 2941DPPE   C3A57151   7.470  12.770   6.790
 2941DPPE   C4A57152   7.650  12.440   7.090
 2941DPPE   C1B57153   7.330  13.050   6.030
 2941DPPE   C2B57154   7.500  13.210   6.490
 2941DPPE   C3B57155   7.900  13.270   6.550
 2941DPPE   C4B57156   8.280  13.320   6.930
 2942DPPE   NH357157  11.770  16.660  17.330
 2942DPPE   PO457158  12.030  16.580  17.660
 2942DPPE   GL157159  11.640  16.530  17.890
 2942DPPE   GL257160  11.870  16.450  18.130
 2942DPPE   C1A57161  11.370  16.320  18.240
 2942DPPE   C2A57162  11.020  16.260  18.480
 2942DPPE   C3A57163  10.670  16.470  18.700
 2942DPPE   C4A57164  10.260  16.410  18.720
 2942DPPE   C1B57165  11.960  16.640  18.560
 2942DPPE   C2B57166  11.780  16.630  18.900
 2942DPPE   C3B57167  11.890  16.430  19.280
 2942DPPE   C4B57168  11.970  16.330  19.670
 2943DPPE   NH357169  11.070  27.480  11.060
 2943DPPE   PO457170  10.650  27.650  11.100
 2943DPPE   GL157171  10.760  27.210  11.370
 2943DPPE   GL257172  11.080  27.030  11.290
 2943DPPE   C1A57173  10.710  26.860  11.660
 2943DPPE   C2A57174  10.890  26.570  11.780
 2943DPPE   C3A57175  11.250  26.370  11.990
 2943DPPE   C4A57176  11.490  25.950  12.080
 2943DPPE   C1B57177  11.290  26.780  11.550
 2943DPPE   C2B57178  11.550  26.370  11.540
 2943DPPE   C3B57179  11.770  26.020  11.690
 2943DPPE   C4B57180  12.160  25.950  11.510
 2944DPPE   NH357181  11.330  22.850  26.670
 2944DPPE   PO457182  10.940  23.030  26.440
 2944DPPE   GL157183  10.800  23.060  26.040
 2944DPPE   GL257184  10.670  23.160  25.800
 2944DPPE   C1A57185  10.700  22.710  25.720
 2944DPPE   C2A57186  10.280  22.600  25.490
 2944DPPE   C3A57187   9.860  22.600  25.380
 2944DPPE   C4A57188   9.420  22.810  25.200
 2944DPPE   C1B57189  10.930  23.140  25.440
 2944DPPE   C2B57190  11.240  23.210  25.280
 2944DPPE   C3B57191  11.680  23.160  25.230
 2944DPPE   C4B57192  12.090  23.210  24.920
 2945DPPE   NH357193  19.340  24.810  16.330
 2945DPPE   PO457194  19.000  24.860  16.290
 2945DPPE   GL157195  19.000  25.220  16.360
 2945DPPE   GL257196  19.360  25.320  16.430
 2945DPPE   C1A57197  19.060  25.680  16.510
 2945DPPE   C2A57198  19.160  26.120  16.480
 2945DPPE   C3A57199  19.480  26.490  16.440
 2945DPPE   C4A57200  19.870  26.630  16.590
 2945DPPE   C1B57201  19.450  25.750  16.200
 2945DPPE   C2B57202  19.230  26.130  15.880
 2945DPPE   C3B57203  19.020  26.520  15.780
 2945DPPE   C4B57204  18.880  26.950  15.660
 2946DPPE   NH357205  27.580  16.790  16.190
 2946DPPE   PO457206  27.490  17.170  16.020
 2946DPPE   GL157207  27.130  17.290  15.980
 2946DPPE   GL257208  26.730  17.240  16.030
 2946DPPE   C1A57209  26.900  17.560  15.740
 2946DPPE   C2A57210  26.490  17.550  15.420
 2946DPPE   C3A57211  26.080  17.360  15.480
 2946DPPE   C4A57212  25.940  17.150  15.850
 2946DPPE   C1B57213  26.430  17.420  16.230
 2946DPPE   C2B57214  26.080  17.610  16.100
 2946DPPE   C3B57215  25.660  17.860  16.060
 2946DPPE   C4B57216  25.460  18.260  15.960
 2947DPPE   NH357217  16.330  15.000  31.190
 2947DPPE   PO457218  16.590  15.100   0.180
 2947DPPE   GL157219  16.490  14.950   0.600
 2947DPPE   GL257220  16.200  14.920   0.630
 2947DPPE   C1A57221  16.440  15.110   1.060
 2947DPPE   C2A57222  16.130  15.120   1.440
 2947DPPE   C3A57223  15.890  15.070   1.770
 2947DPPE   C4A57224  15.670  15.240   2.170
 2947DPPE   C1B57225  15.950  15.060   0.950
 2947DPPE   C2B57226  15.610  14.890   1.300
 2947DPPE   C3B57227  15.510  14.790   1.610
 2947DPPE   C4B57228  15.310  14.610   1.990
 2948DPPE   NH357229  20.220  23.340   3.330
 2948DPPE   PO457230  20.510  23.090   3.070
 2948DPPE   GL157231  20.440  22.740   3.360
 2948DPPE   GL257232  20.850  22.810   3.330
 2948DPPE   C1A57233  20.220  22.490   3.520
 2948DPPE   C2A57234  20.200  22.050   3.430
 2948DPPE   C3A57235  20.200  21.640   3.680
 2948DPPE   C4A57236  20.080  21.410   3.980
 2948DPPE   C1B57237  20.730  22.620   3.780
 2948DPPE   C2B57238  20.460  22.540   3.980
 2948DPPE   C3B57239  20.170  22.510   4.320
 2948DPPE   C4B57240  20.220  22.380   4.730
 2949DPPE   NH357241  13.750  15.540  18.210
 2949DPPE   PO457242  13.920  15.760  18.580
 2949DPPE   GL157243  13.960  15.460  18.960
 2949DPPE   GL257244  13.710  15.320  19.010
 2949DPPE   C1A57245  13.980  15.450  19.450
 2949DPPE   C2A57246  13.870  15.320  19.830
 2949DPPE   C3A57247  13.760  15.030  20.180
 2949DPPE   C4A57248  13.360  15.000  20.320
 2949DPPE   C1B57249  13.640  15.140  19.380
 2949DPPE   C2B57250  13.560  14.940  19.760
 2949DPPE   C3B57251  13.420  14.640  19.980
 2949DPPE   C4B57252  13.190  14.520  20.280
 2950DPPE   NH357253  20.670  13.510   5.980
 2950DPPE   PO457254  20.390  13.190   6.190
 2950DPPE   GL157255  20.640  13.000   5.780
 2950DPPE   GL257256  20.330  12.720   5.660
 2950DPPE   C1A57257  20.730  13.070   5.370
 2950DPPE   C2A57258  20.540  13.200   4.850
 2950DPPE   C3A57259  20.510  13.110   4.230
 2950DPPE   C4A57260  20.130  13.320   4.010
 2950DPPE   C1B57261  20.460  12.660   5.190
 2950DPPE   C2B57262  20.590  12.640   4.850
 2950DPPE   C3B57263  21.010  12.590   4.670
 2950DPPE   C4B57264  21.200  12.490   4.280
 2951DPPE   NH357265  19.290  20.290   1.080
 2951DPPE   PO457266  19.700  20.280   1.210
 2951DPPE   GL157267  19.810  19.880   1.510
 2951DPPE   GL257268  20.130  19.790   1.560
 2951DPPE   C1A57269  19.470  19.720   1.860
 2951DPPE   C2A57270  19.270  19.530   2.240
 2951DPPE   C3A57271  19.020  19.640   2.530
 2951DPPE   C4A57272  18.580  19.830   2.660
 2951DPPE   C1B57273  19.950  19.610   1.920
 2951DPPE   C2B57274  19.720  19.380   2.220
 2951DPPE   C3B57275  19.700  19.070   2.580
 2951DPPE   C4B57276  20.030  18.790   2.590
 2952DPPE   NH357277  14.920  10.770  15.960
 2952DPPE   PO457278  14.990  10.270  16.230
 2952DPPE   GL157279  15.090   9.820  16.460
 2952DPPE   GL257280  15.240  10.010  16.760
 2952DPPE   C1A57281  14.950   9.460  16.500
 2952DPPE   C2A57282  14.990   9.070  16.710
 2952DPPE   C3A57283  14.840   8.680  16.780
 2952DPPE   C4A57284  14.700   8.370  16.860
 2952DPPE   C1B57285  15.080   9.880  17.140
 2952DPPE   C2B57286  14.840   9.420  17.040
 2952DPPE   C3B57287  14.520   9.180  16.850
 2952DPPE   C4B57288  14.370   8.780  17.090
 2953DPPE   NH357289   8.230  18.950  26.730
 2953DPPE   PO457290   7.880  19.000  26.580
 2953DPPE   GL157291   8.070  19.070  26.160
 2953DPPE   GL257292   7.930  18.830  25.910
 2953DPPE   C1A57293   8.540  19.100  25.970
 2953DPPE   C2A57294   8.920  18.980  25.730
 2953DPPE   C3A57295   9.380  19.060  25.760
 2953DPPE   C4A57296   9.650  19.510  25.760
 2953DPPE   C1B57297   8.340  18.660  25.790
 2953DPPE   C2B57298   8.750  18.520  25.570
 2953DPPE   C3B57299   8.410  18.420  25.170
 2953DPPE   C4B57300   8.070  18.220  25.250
 2954DPPE   NH357301   7.970   9.950  23.630
 2954DPPE   PO457302   7.950   9.660  23.300
 2954DPPE   GL157303   8.290   9.700  23.040
 2954DPPE   GL257304   8.460   9.680  23.320
 2954DPPE   C1A57305   8.510   9.840  22.660
 2954DPPE   C2A57306   8.680  10.260  22.450
 2954DPPE   C3A57307   8.500  10.570  22.200
 2954DPPE   C4A57308   8.040  10.670  22.170
 2954DPPE   C1B57309   8.810   9.740  23.070
 2954DPPE   C2B57310   9.000  10.020  22.820
 2954DPPE   C3B57311   9.320  10.350  22.790
 2954DPPE   C4B57312   9.360  10.740  22.490
 2955DPPE   NH357313  16.690   5.480   7.670
 2955DPPE   PO457314  17.090   5.560   7.540
 2955DPPE   GL157315  17.270   5.940   7.590
 2955DPPE   GL257316  17.270   5.930   7.920
 2955DPPE   C1A57317  17.070   6.350   7.540
 2955DPPE   C2A57318  16.680   6.460   7.400
 2955DPPE   C3A57319  16.400   6.150   7.180
 2955DPPE   C4A57320  16.040   5.950   7.050
 2955DPPE   C1B57321  16.890   6.250   7.950
 2955DPPE   C2B57322  16.590   6.580   7.840
 2955DPPE   C3B57323  16.510   7.000   8.070
 2955DPPE   C4B57324  16.100   7.090   8.210
 2956DPPE   NH357325   9.420  17.280  13.610
 2956DPPE   PO457326   9.460  17.000  13.910
 2956DPPE   GL157327   9.310  16.660  14.140
 2956DPPE   GL257328   9.520  16.630  14.410
 2956DPPE   C1A57329   9.050  16.310  14.300
 2956DPPE   C2A57330   8.650  16.080  14.560
 2956DPPE   C3A57331   8.500  15.700  14.690
 2956DPPE   C4A57332   8.380  15.620  15.150
 2956DPPE   C1B57333   9.320  16.270  14.710
 2956DPPE   C2B57334   8.940  16.170  14.920
 2956DPPE   C3B57335   8.650  16.040  15.130
 2956DPPE   C4B57336   8.620  16.250  15.440
 2957DPPE   NH357337   2.850  12.610  11.410
 2957DPPE   PO457338   2.720  12.560  11.900
 2957DPPE   GL157339   3.080  12.710  11.900
 2957DPPE   GL257340   3.290  12.580  11.740
 2957DPPE   C1A57341   3.330  12.940  12.220
 2957DPPE   C2A57342   3.460  13.270  12.480
 2957DPPE   C3A57343   3.190  13.480  12.810
 2957DPPE   C4A57344   3.040  13.810  13.090
 2957DPPE   C1B57345   3.630  12.620  12.020
 2957DPPE   C2B57346   3.840  12.880  12.240
 2957DPPE   C3B57347   4.230  13.040  12.290
 2957DPPE   C4B57348   4.460  13.140  12.660
 2958DPPE   NH357349  15.830  18.390  19.860
 2958DPPE   PO457350  15.850  18.860  20.140
 2958DPPE   GL157351  15.520  18.670  20.390
 2958DPPE   GL257352  15.640  18.840  20.720
 2958DPPE   C1A57353  15.060  18.540  20.590
 2958DPPE   C2A57354  14.870  18.270  20.920
 2958DPPE   C3A57355  14.510  18.280  21.110
 2958DPPE   C4A57356  14.210  18.170  20.890
 2958DPPE   C1B57357  15.690  18.690  21.230
 2958DPPE   C2B57358  15.700  18.770  21.600
 2958DPPE   C3B57359  15.690  18.680  21.980
 2958DPPE   C4B57360  15.730  18.480  22.420
 2959DPPE   NH357361   3.940  16.000   9.460
 2959DPPE   PO457362   4.210  15.770   9.270
 2959DPPE   GL157363   4.510  15.740   9.630
 2959DPPE   GL257364   4.880  15.830   9.610
 2959DPPE   C1A57365   4.570  15.590   9.970
 2959DPPE   C2A57366   4.750  15.230   9.990
 2959DPPE   C3A57367   5.140  15.120   9.920
 2959DPPE   C4A57368   5.540  15.070  10.050
 2959DPPE   C1B57369   5.090  15.730  10.020
 2959DPPE   C2B57370   5.270  15.910  10.400
 2959DPPE   C3B57371   5.480  15.900  10.820
 2959DPPE   C4B57372   5.370  16.210  11.180
 2960DPPE   NH357373  23.370   9.460   4.870
 2960DPPE   PO457374  23.020   9.340   4.760
 2960DPPE   GL157375  22.850   9.680   4.940
 2960DPPE   GL257376  22.580   9.670   4.930
 2960DPPE   C1A57377  22.840  10.080   5.070
 2960DPPE   C2A57378  22.460  10.290   5.230
 2960DPPE   C3A57379  22.120  10.370   5.340
 2960DPPE   C4A57380  21.780  10.290   5.450
 2960DPPE   C1B57381  22.290   9.970   4.870
 2960DPPE   C2B57382  21.870  10.160   4.930
 2960DPPE   C3B57383  21.660  10.510   4.840
 2960DPPE   C4B57384  21.360  10.780   4.960
 2961DPPE   NH357385  27.330  17.130  16.480
 2961DPPE   PO457386  27.070  16.780  16.270
 2961DPPE   GL157387  27.140  16.810  15.920
 2961DPPE   GL257388  27.380  16.620  15.770
 2961DPPE   C1A57389  26.940  17.030  15.620
 2961DPPE   C2A57390  26.870  17.360  15.240
 2961DPPE   C3A57391  26.850  17.330  14.830
 2961DPPE   C4A57392  27.220  17.440  14.510
 2961DPPE   C1B57393  26.970  16.520  15.570
 2961DPPE   C2B57394  26.460  16.390  15.320
 2961DPPE   C3B57395  26.100  16.350  15.300
 2961DPPE   C4B57396  25.710  16.320  15.300
 2962DPPE   NH357397   7.450  23.590  24.710
 2962DPPE   PO457398   7.580  23.270  24.730
 2962DPPE   GL157399   7.620  23.160  24.330
 2962DPPE   GL257400   7.600  23.440  24.210
 2962DPPE   C1A57401   7.930  23.070  24.040
 2962DPPE   C2A57402   8.180  23.160  23.680
 2962DPPE   C3A57403   8.490  23.290  23.400
 2962DPPE   C4A57404   8.800  23.630  23.240
 2962DPPE   C1B57405   8.030  23.570  24.100
 2962DPPE   C2B57406   8.390  23.520  24.250
 2962DPPE   C3B57407   8.860  23.390  24.340
 2962DPPE   C4B57408   8.980  23.090  24.330
 2963DPPE   NH357409  13.200  14.030  17.330
 2963DPPE   PO457410  13.520  14.170  17.640
 2963DPPE   GL157411  13.510  14.200  17.990
 2963DPPE   GL257412  13.270  14.390  18.090
 2963DPPE   C1A57413  13.110  13.940  18.200
 2963DPPE   C2A57414  12.740  13.740  18.400
 2963DPPE   C3A57415  12.520  13.460  18.660
 2963DPPE   C4A57416  12.700  13.220  18.840
 2963DPPE   C1B57417  12.970  14.350  18.500
 2963DPPE   C2B57418  12.690  14.260  18.870
 2963DPPE   C3B57419  12.350  13.890  19.000
 2963DPPE   C4B57420  12.000  13.710  19.030
 2964DPPE   NH357421  12.090  19.580  16.960
 2964DPPE   PO457422  11.820  19.310  16.710
 2964DPPE   GL157423  11.610  19.610  16.960
 2964DPPE   GL257424  11.450  19.690  16.670
 2964DPPE   C1A57425  11.300  19.710  17.300
 2964DPPE   C2A57426  11.440  19.920  17.690
 2964DPPE   C3A57427  11.150  20.290  17.910
 2964DPPE   C4A57428  11.020  20.320  18.320
 2964DPPE   C1B57429  11.090  19.760  16.850
 2964DPPE   C2B57430  10.900  19.940  17.250
 2964DPPE   C3B57431  10.770  19.850  17.600
 2964DPPE   C4B57432  10.760  19.970  18.050
 2965DPPE   NH357433  13.710  17.170  28.530
 2965DPPE   PO457434  14.050  17.130  28.160
 2965DPPE   GL157435  13.900  16.980  27.740
 2965DPPE   GL257436  14.000  16.690  27.800
 2965DPPE   C1A57437  13.950  17.030  27.270
 2965DPPE   C2A57438  14.220  17.170  27.040
 2965DPPE   C3A57439  14.230  17.010  26.760
 2965DPPE   C4A57440  14.070  16.930  26.330
 2965DPPE   C1B57441  13.780  16.510  27.410
 2965DPPE   C2B57442  13.570  16.500  27.160
 2965DPPE   C3B57443  13.400  16.100  27.310
 2965DPPE   C4B57444  13.030  15.870  27.150
 2966DPPE   NH357445  11.460  14.820  15.620
 2966DPPE   PO457446  11.420  14.780  15.240
 2966DPPE   GL157447  10.910  14.850  15.440
 2966DPPE   GL257448  10.610  14.660  15.330
 2966DPPE   C1A57449  10.550  15.000  15.650
 2966DPPE   C2A57450  10.280  14.830  16.000
 2966DPPE   C3A57451  10.290  14.580  16.420
 2966DPPE   C4A57452   9.840  14.350  16.630
 2966DPPE   C1B57453  10.200  14.760  15.350
 2966DPPE   C2B57454   9.890  14.610  15.180
 2966DPPE   C3B57455   9.580  14.400  15.340
 2966DPPE   C4B57456   9.350  14.060  15.560
 2967DPPE   NH357457  12.240  16.100  17.870
 2967DPPE   PO457458  12.250  15.910  17.360
 2967DPPE   GL157459  11.870  16.040  17.530
 2967DPPE   GL257460  11.750  16.000  17.890
 2967DPPE   C1A57461  11.360  16.210  17.660
 2967DPPE   C2A57462  10.930  15.970  17.870
 2967DPPE   C3A57463  10.590  16.010  18.180
 2967DPPE   C4A57464  10.480  15.520  18.280
 2967DPPE   C1B57465  11.390  15.820  18.190
 2967DPPE   C2B57466  11.240  15.470  18.370
 2967DPPE   C3B57467  11.140  15.380  18.770
 2967DPPE   C4B57468  10.780  15.560  18.910
 2968DPPE   NH357469  18.780   6.500  17.530
 2968DPPE   PO457470  18.450   6.690  17.760
 2968DPPE   GL157471  18.650   6.990  17.460
 2968DPPE   GL257472  18.780   6.850  17.090
 2968DPPE   C1A57473  18.350   7.120  17.130
 2968DPPE   C2A57474  18.390   7.440  16.810
 2968DPPE   C3A57475  18.540   7.700  16.550
 2968DPPE   C4A57476  18.770   7.790  16.130
 2968DPPE   C1B57477  18.890   7.300  16.970
 2968DPPE   C2B57478  19.000   7.710  17.140
 2968DPPE   C3B57479  18.950   8.100  17.040
 2968DPPE   C4B57480  18.890   8.330  17.350
 2969DPPE   NH357481   5.300  22.960  22.520
 2969DPPE   PO457482   5.300  22.530  22.530
 2969DPPE   GL157483   5.500  22.490  22.260
 2969DPPE   GL257484   5.480  22.710  22.080
 2969DPPE   C1A57485   5.960  22.560  22.110
 2969DPPE   C2A57486   6.010  22.490  21.660
 2969DPPE   C3A57487   6.280  22.210  21.350
 2969DPPE   C4A57488   6.710  21.950  21.290
 2969DPPE   C1B57489   5.500  22.600  21.640
 2969DPPE   C2B57490   5.310  22.320  21.430
 2969DPPE   C3B57491   5.240  21.990  21.200
 2969DPPE   C4B57492   4.990  21.770  20.910
 2970DPPE   NH357493  17.260  24.800   3.600
 2970DPPE   PO457494  17.220  24.780   4.000
 2970DPPE   GL157495  17.180  24.660   4.350
 2970DPPE   GL257496  16.970  24.510   4.450
 2970DPPE   C1A57497  17.360  24.750   4.740
 2970DPPE   C2A57498  17.470  24.690   5.070
 2970DPPE   C3A57499  17.760  24.550   5.220
 2970DPPE   C4A57500  17.640  24.450   5.630
 2970DPPE   C1B57501  17.050  24.110   4.760
 2970DPPE   C2B57502  17.090  23.840   5.060
 2970DPPE   C3B57503  16.740  23.610   5.260
 2970DPPE   C4B57504  16.430  23.350   5.390
 2971DPPE   NH357505  14.440   9.080  12.380
 2971DPPE   PO457506  14.810   8.990  12.450
 2971DPPE   GL157507  14.680   8.610  12.580
 2971DPPE   GL257508  14.930   8.530  12.680
 2971DPPE   C1A57509  14.570   8.240  12.360
 2971DPPE   C2A57510  14.380   7.790  12.220
 2971DPPE   C3A57511  14.280   7.360  12.160
 2971DPPE   C4A57512  14.330   7.040  12.390
 2971DPPE   C1B57513  15.050   8.270  12.380
 2971DPPE   C2B57514  15.050   7.810  12.180
 2971DPPE   C3B57515  15.260   7.400  12.230
 2971DPPE   C4B57516  15.560   7.120  12.430
 2972DPPE   NH357517  15.430  28.210  18.510
 2972DPPE   PO457518  15.840  28.510  18.660
 2972DPPE   GL157519  15.960  28.100  18.490
 2972DPPE   GL257520  16.360  28.070  18.610
 2972DPPE   C1A57521  15.800  27.810  18.150
 2972DPPE   C2A57522  15.570  27.510  17.960
 2972DPPE   C3A57523  15.360  27.300  17.690
 2972DPPE   C4A57524  15.260  27.180  17.320
 2972DPPE   C1B57525  16.660  27.870  18.370
 2972DPPE   C2B57526  17.050  27.910  18.140
 2972DPPE   C3B57527  16.980  27.960  17.700
 2972DPPE   C4B57528  17.090  28.230  17.220
 2973DPPE   NH357529  17.470   5.470   8.120
 2973DPPE   PO457530  17.600   5.510   8.650
 2973DPPE   GL157531  17.340   5.730   8.940
 2973DPPE   GL257532  17.280   5.930   8.910
 2973DPPE   C1A57533  16.860   5.840   9.090
 2973DPPE   C2A57534  16.510   5.900   9.060
 2973DPPE   C3A57535  16.310   6.260   9.290
 2973DPPE   C4A57536  16.130   6.590   9.590
 2973DPPE   C1B57537  17.200   6.320   8.890
 2973DPPE   C2B57538  17.180   6.820   8.740
 2973DPPE   C3B57539  17.140   7.150   8.440
 2973DPPE   C4B57540  16.800   7.380   8.280
 2974DPPE   NH357541  17.070  24.490  10.430
 2974DPPE   PO457542  16.710  24.580  10.440
 2974DPPE   GL157543  16.810  24.990  10.280
 2974DPPE   GL257544  17.070  24.990  10.160
 2974DPPE   C1A57545  16.660  25.350  10.410
 2974DPPE   C2A57546  16.650  25.800  10.350
 2974DPPE   C3A57547  16.860  26.100  10.360
 2974DPPE   C4A57548  17.220  26.200  10.280
 2974DPPE   C1B57549  17.040  25.280   9.920
 2974DPPE   C2B57550  16.970  25.490   9.470
 2974DPPE   C3B57551  17.090  25.860   9.220
 2974DPPE   C4B57552  17.020  26.210   9.050
 2975DPPE   NH357553  18.950  17.500  24.210
 2975DPPE   PO457554  18.840  17.050  24.280
 2975DPPE   GL157555  18.760  17.120  23.900
 2975DPPE   GL257556  18.950  17.170  23.590
 2975DPPE   C1A57557  18.380  17.110  23.730
 2975DPPE   C2A57558  18.110  16.980  23.360
 2975DPPE   C3A57559  17.910  16.940  23.030
 2975DPPE   C4A57560  17.860  17.260  22.700
 2975DPPE   C1B57561  18.610  17.310  23.280
 2975DPPE   C2B57562  18.330  17.360  22.910
 2975DPPE   C3B57563  18.330  17.070  22.530
 2975DPPE   C4B57564  18.230  16.960  22.130
 2976DPPE   NH357565  10.780  17.270   1.870
 2976DPPE   PO457566  10.910  17.390   1.500
 2976DPPE   GL157567  11.340  17.310   1.700
 2976DPPE   GL257568  11.420  17.000   1.760
 2976DPPE   C1A57569  11.500  17.300   2.130
 2976DPPE   C2A57570  11.350  17.550   2.490
 2976DPPE   C3A57571  11.120  17.430   2.830
 2976DPPE   C4A57572  10.760  17.530   2.900
 2976DPPE   C1B57573  11.860  16.870   1.860
 2976DPPE   C2B57574  12.160  16.590   2.100
 2976DPPE   C3B57575  12.410  16.200   2.420
 2976DPPE   C4B57576  12.820  16.290   2.620
 2977DPPE   NH357577  23.170  13.150  12.640
 2977DPPE   PO457578  22.910  13.420  12.780
 2977DPPE   GL157579  23.370  13.350  13.050
 2977DPPE   GL257580  23.540  13.550  12.950
 2977DPPE   C1A57581  23.800  13.180  13.100
 2977DPPE   C2A57582  24.230  13.180  13.070
 2977DPPE   C3A57583  24.650  13.050  12.990
 2977DPPE   C4A57584  24.910  12.760  12.890
 2977DPPE   C1B57585  24.010  13.620  12.920
 2977DPPE   C2B57586  24.280  13.710  12.570
 2977DPPE   C3B57587  24.680  13.740  12.570
 2977DPPE   C4B57588  25.040  13.720  12.550
 2978DPPE   NH357589  11.180  15.310  27.530
 2978DPPE   PO457590  11.560  15.440  27.780
 2978DPPE   GL157591  11.870  15.660  27.590
 2978DPPE   GL257592  11.980  15.990  27.580
 2978DPPE   C1A57593  11.920  15.720  27.130
 2978DPPE   C2A57594  11.770  15.520  26.750
 2978DPPE   C3A57595  11.770  15.360  26.310
 2978DPPE   C4A57596  11.980  15.280  25.900
 2978DPPE   C1B57597  12.390  15.790  27.350
 2978DPPE   C2B57598  12.630  15.850  26.870
 2978DPPE   C3B57599  12.730  15.480  26.610
 2978DPPE   C4B57600  12.440  15.440  26.310
 2979DPPE   NH357601   1.830  15.620  11.570
 2979DPPE   PO457602   2.010  16.110  11.740
 2979DPPE   GL157603   2.480  15.990  11.750
 2979DPPE   GL257604   2.700  15.860  11.570
 2979DPPE   C1A57605   2.860  16.050  11.980
 2979DPPE   C2A57606   3.100  16.270  12.300
 2979DPPE   C3A57607   3.360  16.210  12.740
 2979DPPE   C4A57608   3.410  15.740  13.000
 2979DPPE   C1B57609   2.770  15.430  11.430
 2979DPPE   C2B57610   3.190  15.130  11.350
 2979DPPE   C3B57611   3.590  15.050  11.520
 2979DPPE   C4B57612   3.940  14.750  11.520
 2980DPPE   NH357613  13.950   7.220   4.600
 2980DPPE   PO457614  13.590   7.020   4.290
 2980DPPE   GL157615  13.530   7.480   4.540
 2980DPPE   GL257616  13.230   7.590   4.740
 2980DPPE   C1A57617  13.690   7.780   4.760
 2980DPPE   C2A57618  13.870   8.220   5.050
 2980DPPE   C3A57619  13.940   8.630   5.190
 2980DPPE   C4A57620  13.980   9.120   5.160
 2980DPPE   C1B57621  13.280   7.890   5.010
 2980DPPE   C2B57622  13.720   7.810   5.260
 2980DPPE   C3B57623  13.990   7.630   5.330
 2980DPPE   C4B57624  13.970   7.310   5.520
 2981DPPE   NH357625  10.820  24.870  25.050
 2981DPPE   PO457626  11.080  24.530  25.280
 2981DPPE   GL157627  11.170  24.400  24.830
 2981DPPE   GL257628  10.980  24.470  24.580
 2981DPPE   C1A57629  11.160  23.990  24.690
 2981DPPE   C2A57630  11.250  23.510  24.600
 2981DPPE   C3A57631  11.460  23.140  24.760
 2981DPPE   C4A57632  11.330  22.820  24.970
 2981DPPE   C1B57633  11.240  24.240  24.290
 2981DPPE   C2B57634  11.200  23.760  24.110
 2981DPPE   C3B57635  11.330  23.660  23.740
 2981DPPE   C4B57636  11.490  23.850  23.390
 2982DPPE   NH357637  20.560   5.480  10.690
 2982DPPE   PO457638  20.890   5.680  11.050
 2982DPPE   GL157639  20.580   6.050  10.990
 2982DPPE   GL257640  20.420   5.970  10.680
 2982DPPE   C1A57641  20.590   6.410  11.220
 2982DPPE   C2A57642  20.540   6.620  11.590
 2982DPPE   C3A57643  20.720   6.990  11.730
 2982DPPE   C4A57644  20.940   7.150  12.010
 2982DPPE   C1B57645  20.170   6.380  10.800
 2982DPPE   C2B57646  19.770   6.570  10.540
 2982DPPE   C3B57647  19.560   6.410  10.230
 2982DPPE   C4B57648  19.460   5.980  10.040
 2983DPPE   NH357649  11.520  21.900  26.870
 2983DPPE   PO457650  11.230  21.670  26.980
 2983DPPE   GL157651  11.420  21.460  26.530
 2983DPPE   GL257652  11.830  21.490  26.580
 2983DPPE   C1A57653  11.310  21.170  26.300
 2983DPPE   C2A57654  11.090  20.780  26.350
 2983DPPE   C3A57655  11.100  20.480  26.070
 2983DPPE   C4A57656  11.370  20.400  25.740
 2983DPPE   C1B57657  11.830  21.230  26.240
 2983DPPE   C2B57658  11.860  21.210  25.770
 2983DPPE   C3B57659  11.750  21.040  25.420
 2983DPPE   C4B57660  11.830  20.990  24.950
 2984DPPE   NH357661   2.110  19.770  19.470
 2984DPPE   PO457662   2.100  19.980  19.080
 2984DPPE   GL157663   2.310  19.960  18.670
 2984DPPE   GL257664   2.170  20.060  18.370
 2984DPPE   C1A57665   2.620  19.690  18.580
 2984DPPE   C2A57666   3.070  19.430  18.610
 2984DPPE   C3A57667   3.390  19.140  18.760
 2984DPPE   C4A57668   3.580  18.720  18.810
 2984DPPE   C1B57669   2.180  19.810  18.040
 2984DPPE   C2B57670   2.410  19.420  17.970
 2984DPPE   C3B57671   2.830  19.220  18.040
 2984DPPE   C4B57672   3.170  19.140  18.190
 2985DPPE   NH357673  12.030  21.730  17.030
 2985DPPE   PO457674  11.640  21.600  16.760
 2985DPPE   GL157675  11.310  21.680  17.000
 2985DPPE   GL257676  11.310  22.000  17.060
 2985DPPE   C1A57677  10.930  21.600  17.180
 2985DPPE   C2A57678  10.520  21.700  17.420
 2985DPPE   C3A57679  10.110  21.690  17.510
 2985DPPE   C4A57680   9.770  21.640  17.790
 2985DPPE   C1B57681  11.250  22.180  17.490
 2985DPPE   C2B57682  11.170  22.400  17.800
 2985DPPE   C3B57683  11.240  22.740  18.020
 2985DPPE   C4B57684  11.360  23.160  18.090
 2986DPPE   NH357685   1.320  14.430  13.420
 2986DPPE   PO457686   1.190  14.430  13.830
 2986DPPE   GL157687   1.520  14.640  13.930
 2986DPPE   GL257688   1.680  14.410  13.910
 2986DPPE   C1A57689   2.040  14.800  13.890
 2986DPPE   C2A57690   2.390  15.080  13.810
 2986DPPE   C3A57691   2.570  15.380  13.660
 2986DPPE   C4A57692   2.510  15.840  13.510
 2986DPPE   C1B57693   1.860  14.610  14.270
 2986DPPE   C2B57694   2.010  14.870  14.430
 2986DPPE   C3B57695   2.360  15.110  14.370
 2986DPPE   C4B57696   2.740  15.270  14.200
 2987DPPE   NH357697  11.610  17.720  17.010
 2987DPPE   PO457698  11.330  17.690  16.710
 2987DPPE   GL157699  10.930  17.770  16.970
 2987DPPE   GL257700  11.170  18.040  17.060
 2987DPPE   C1A57701  10.610  17.900  17.230
 2987DPPE   C2A57702  10.460  17.910  17.680
 2987DPPE   C3A57703  10.210  17.890  18.030
 2987DPPE   C4A57704  10.080  18.250  18.290
 2987DPPE   C1B57705  11.060  18.330  17.460
 2987DPPE   C2B57706  10.790  18.300  17.790
 2987DPPE   C3B57707  10.520  18.220  18.040
 2987DPPE   C4B57708  10.580  18.110  18.480
 2988DPPE   NH357709  10.050  24.540   5.860
 2988DPPE   PO457710  10.120  24.730   6.320
 2988DPPE   GL157711  10.440  24.590   6.290
 2988DPPE   GL257712  10.750  24.670   6.420
 2988DPPE   C1A57713  10.440  24.060   6.260
 2988DPPE   C2A57714  10.470  23.780   5.950
 2988DPPE   C3A57715  10.410  23.540   5.610
 2988DPPE   C4A57716  10.650  23.230   5.350
 2988DPPE   C1B57717  10.820  24.390   6.590
 2988DPPE   C2B57718  10.780  24.040   6.630
 2988DPPE   C3B57719  10.620  23.590   6.480
 2988DPPE   C4B57720  10.530  23.370   6.200
 2989DPPE   NH357721   8.490  17.040  12.230
 2989DPPE   PO457722   8.660  17.410  12.500
 2989DPPE   GL157723   8.250  17.220  12.640
 2989DPPE   GL257724   7.950  17.090  12.530
 2989DPPE   C1A57725   7.970  17.310  12.970
 2989DPPE   C2A57726   7.560  17.460  13.340
 2989DPPE   C3A57727   7.130  17.560  13.510
 2989DPPE   C4A57728   6.690  17.680  13.670
 2989DPPE   C1B57729   7.490  17.200  12.690
 2989DPPE   C2B57730   7.200  16.970  12.690
 2989DPPE   C3B57731   6.930  17.090  13.000
 2989DPPE   C4B57732   6.800  17.200  13.440
 2990DPPE   NH357733  13.680  11.620   1.110
 2990DPPE   PO457734  13.700  11.190   1.100
 2990DPPE   GL157735  13.850  11.250   1.420
 2990DPPE   GL257736  13.970  11.540   1.480
 2990DPPE   C1A57737  13.680  11.200   1.730
 2990DPPE   C2A57738  13.630  11.320   2.160
 2990DPPE   C3A57739  13.510  11.350   2.580
 2990DPPE   C4A57740  13.680  11.460   3.060
 2990DPPE   C1B57741  14.320  11.810   1.730
 2990DPPE   C2B57742  14.360  12.180   1.990
 2990DPPE   C3B57743  14.330  12.110   2.540
 2990DPPE   C4B57744  14.280  11.710   2.680
 2991DPPE   NH357745  14.970  20.740  26.840
 2991DPPE   PO457746  14.870  20.360  27.120
 2991DPPE   GL157747  14.620  19.960  27.130
 2991DPPE   GL257748  14.290  20.140  27.010
 2991DPPE   C1A57749  14.680  19.680  26.900
 2991DPPE   C2A57750  14.340  19.370  26.730
 2991DPPE   C3A57751  14.400  19.190  26.250
 2991DPPE   C4A57752  14.440  19.130  25.830
 2991DPPE   C1B57753  14.210  20.000  26.690
 2991DPPE   C2B57754  14.550  19.820  26.350
 2991DPPE   C3B57755  14.870  19.400  26.490
 2991DPPE   C4B57756  15.170  19.330  26.680
 2992DPPE   NH357757  23.710  18.840   2.030
 2992DPPE   PO457758  23.510  18.630   1.860
 2992DPPE   GL157759  23.110  18.650   2.260
 2992DPPE   GL257760  23.360  18.480   2.460
 2992DPPE   C1A57761  22.850  19.000   2.490
 2992DPPE   C2A57762  22.890  19.240   2.860
 2992DPPE   C3A57763  22.910  19.120   3.280
 2992DPPE   C4A57764  22.670  19.200   3.650
 2992DPPE   C1B57765  23.210  18.100   2.860
 2992DPPE   C2B57766  22.860  17.920   3.180
 2992DPPE   C3B57767  22.780  17.860   3.650
 2992DPPE   C4B57768  22.710  17.850   4.100
 2993DPPE   NH357769  10.430  21.120  15.270
 2993DPPE   PO457770  10.190  20.830  15.250
 2993DPPE   GL157771   9.850  20.710  15.380
 2993DPPE   GL257772   9.840  20.310  15.160
 2993DPPE   C1A57773   9.530  20.590  15.670
 2993DPPE   C2A57774   9.600  20.530  16.070
 2993DPPE   C3A57775  10.020  20.610  16.180
 2993DPPE   C4A57776  10.090  20.980  16.180
 2993DPPE   C1B57777   9.420  19.910  15.340
 2993DPPE   C2B57778   9.210  20.000  15.700
 2993DPPE   C3B57779   9.200  20.180  16.050
 2993DPPE   C4B57780   9.290  20.000  16.340
 2994DPPE   NH357781  10.750  27.100  18.300
 2994DPPE   PO457782  10.770  26.790  17.980
 2994DPPE   GL157783  10.560  26.420  18.080
 2994DPPE   GL257784  10.920  26.330  18.070
 2994DPPE   C1A57785  10.660  26.050  18.390
 2994DPPE   C2A57786  10.750  25.570  18.410
 2994DPPE   C3A57787  10.810  25.190  18.030
 2994DPPE   C4A57788  10.480  24.960  17.920
 2994DPPE   C1B57789  11.380  26.200  18.110
 2994DPPE   C2B57790  11.280  25.690  18.040
 2994DPPE   C3B57791  11.140  25.500  17.690
 2994DPPE   C4B57792  11.130  25.680  17.240
 2995DPPE   NH357793  17.700  16.410  26.250
 2995DPPE   PO457794  18.130  16.440  25.960
 2995DPPE   GL157795  17.820  16.300  25.630
 2995DPPE   GL257796  17.650  16.590  25.570
 2995DPPE   C1A57797  17.880  16.060  25.260
 2995DPPE   C2A57798  17.800  15.850  24.840
 2995DPPE   C3A57799  17.630  15.960  24.540
 2995DPPE   C4A57800  17.590  15.980  24.210
 2995DPPE   C1B57801  17.650  17.100  25.390
 2995DPPE   C2B57802  17.530  17.330  25.020
 2995DPPE   C3B57803  17.280  17.390  24.620
 2995DPPE   C4B57804  16.990  17.160  24.360
 2996DPPE   NH357805   9.740   7.600  22.790
 2996DPPE   PO457806   9.870   7.180  22.550
 2996DPPE   GL157807  10.150   7.400  22.290
 2996DPPE   GL257808  10.180   7.660  22.430
 2996DPPE   C1A57809  10.580   7.470  22.060
 2996DPPE   C2A57810  11.000   7.710  21.890
 2996DPPE   C3A57811  11.410   7.970  21.820
 2996DPPE   C4A57812  11.830   7.980  22.010
 2996DPPE   C1B57813  10.510   7.950  22.400
 2996DPPE   C2B57814  10.690   8.280  22.160
 2996DPPE   C3B57815  10.960   8.240  21.960
 2996DPPE   C4B57816  11.030   8.250  21.560
 2997DPPE   NH357817   3.330  20.420  11.240
 2997DPPE   PO457818   3.500  20.710  11.610
 2997DPPE   GL157819   3.850  20.690  11.880
 2997DPPE   GL257820   3.780  20.340  12.090
 2997DPPE   C1A57821   4.250  20.400  12.020
 2997DPPE   C2A57822   4.610  20.130  11.880
 2997DPPE   C3A57823   4.960  19.880  12.150
 2997DPPE   C4A57824   5.420  19.910  12.040
 2997DPPE   C1B57825   4.080  20.240  12.430
 2997DPPE   C2B57826   4.470  19.930  12.350
 2997DPPE   C3B57827   4.510  19.610  12.200
 2997DPPE   C4B57828   4.060  19.450  12.110
 2998DPPE   NH357829  10.460  17.010  27.280
 2998DPPE   PO457830  10.870  17.040  27.550
 2998DPPE   GL157831  10.900  17.030  27.050
 2998DPPE   GL257832  11.020  16.670  26.920
 2998DPPE   C1A57833  10.900  17.310  26.710
 2998DPPE   C2A57834  10.770  17.580  26.460
 2998DPPE   C3A57835  10.910  17.840  26.300
 2998DPPE   C4A57836  11.140  18.090  25.920
 2998DPPE   C1B57837  10.930  16.400  26.600
 2998DPPE   C2B57838  10.970  16.510  26.170
 2998DPPE   C3B57839  11.140  16.900  26.000
 2998DPPE   C4B57840  11.500  17.240  25.890
 2999DPPE   NH357841  15.810  25.300  14.060
 2999DPPE   PO457842  16.300  25.340  14.240
 2999DPPE   GL157843  16.020  25.500  14.530
 2999DPPE   GL257844  15.810  25.640  14.410
 2999DPPE   C1A57845  16.110  25.960  14.720
 2999DPPE   C2A57846  16.110  26.440  14.840
 2999DPPE   C3A57847  16.060  26.880  14.960
 2999DPPE   C4A57848  16.230  27.300  14.970
 2999DPPE   C1B57849  15.780  26.110  14.390
 2999DPPE   C2B57850  15.840  26.600  14.340
 2999DPPE   C3B57851  16.200  26.880  14.390
 2999DPPE   C4B57852  16.750  26.890  14.430
 3000DPPE   NH357853  19.230  20.360  19.450
 3000DPPE   PO457854  18.960  20.220  19.680
 3000DPPE   GL157855  19.270  20.370  20.040
 3000DPPE   GL257856  19.330  20.050  20.210
 3000DPPE   C1A57857  19.670  20.540  20.250
 3000DPPE   C2A57858  20.040  20.540  20.470
 3000DPPE   C3A57859  20.240  20.640  20.830
 3000DPPE   C4A57860  20.380  21.040  21.080
 3000DPPE   C1B57861  19.440  20.020  20.660
 3000DPPE   C2B57862  19.130  19.850  21.040
 3000DPPE   C3B57863  19.240  19.500  21.170
 3000DPPE   C4B57864  19.530  19.310  21.450
 3001DPPE   NH357865  20.250  11.910   2.080
 3001DPPE   PO457866  20.130  12.040   1.740
 3001DPPE   GL157867  20.000  12.430   2.070
 3001DPPE   GL257868  19.700  12.570   2.030
 3001DPPE   C1A57869  19.840  12.570   2.500
 3001DPPE   C2A57870  19.550  12.750   2.950
 3001DPPE   C3A57871  19.120  12.770   3.190
 3001DPPE   C4A57872  18.840  13.130   3.240
 3001DPPE   C1B57873  19.370  12.790   2.300
 3001DPPE   C2B57874  19.170  12.980   2.490
 3001DPPE   C3B57875  19.210  13.110   2.840
 3001DPPE   C4B57876  19.330  13.220   3.250
 3002DPPE   NH357877  19.940   6.290   7.320
 3002DPPE   PO457878  19.650   5.840   7.260
 3002DPPE   GL157879  19.400   6.180   7.290
 3002DPPE   GL257880  19.100   6.260   7.510
 3002DPPE   C1A57881  19.420   6.640   7.390
 3002DPPE   C2A57882  19.390   6.930   7.710
 3002DPPE   C3A57883  19.320   7.250   7.900
 3002DPPE   C4A57884  19.330   7.580   8.140
 3002DPPE   C1B57885  18.980   6.640   7.690
 3002DPPE   C2B57886  18.910   6.990   7.820
 3002DPPE   C3B57887  18.880   7.290   7.580
 3002DPPE   C4B57888  18.680   7.770   7.490
 3003DPPE   NH357889   9.620  25.490   8.400
 3003DPPE   PO457890   9.810  25.740   8.700
 3003DPPE   GL157891   9.960  25.410   8.780
 3003DPPE   GL257892  10.200  25.410   8.540
 3003DPPE   C1A57893   9.800  24.910   8.870
 3003DPPE   C2A57894   9.600  24.540   8.820
 3003DPPE   C3A57895   9.610  24.130   8.890
 3003DPPE   C4A57896   9.380  23.830   9.080
 3003DPPE   C1B57897  10.410  25.200   8.920
 3003DPPE   C2B57898  10.160  24.970   9.320
 3003DPPE   C3B57899  10.270  24.820   9.650
 3003DPPE   C4B57900  10.540  24.390   9.870
 3004DPPE   NH357901   7.090  17.400  25.300
 3004DPPE   PO457902   6.730  17.550  25.200
 3004DPPE   GL157903   6.980  17.780  24.930
 3004DPPE   GL257904   7.030  18.130  24.900
 3004DPPE   C1A57905   7.440  17.660  24.630
 3004DPPE   C2A57906   7.480  17.750  24.130
 3004DPPE   C3A57907   7.380  17.590  23.770
 3004DPPE   C4A57908   7.320  17.270  23.430
 3004DPPE   C1B57909   7.240  18.430  25.000
 3004DPPE   C2B57910   7.620  18.400  25.220
 3004DPPE   C3B57911   7.860  18.350  25.680
 3004DPPE   C4B57912   7.850  18.260  26.050
 3005DPPE   NH357913   4.140  21.320  21.880
 3005DPPE   PO457914   3.950  21.090  21.550
 3005DPPE   GL157915   4.160  20.790  21.310
 3005DPPE   GL257916   4.020  20.450  21.180
 3005DPPE   C1A57917   4.320  20.650  20.800
 3005DPPE   C2A57918   4.640  20.850  20.700
 3005DPPE   C3A57919   4.910  21.130  20.740
 3005DPPE   C4A57920   5.110  21.390  20.470
 3005DPPE   C1B57921   4.490  20.430  21.250
 3005DPPE   C2B57922   4.820  20.440  21.090
 3005DPPE   C3B57923   5.160  20.510  20.790
 3005DPPE   C4B57924   5.410  20.410  20.510
 3006DPPE   NH357925  27.050  11.130  13.200
 3006DPPE   PO457926  26.780  11.460  13.150
 3006DPPE   GL157927  26.320  11.420  13.120
 3006DPPE   GL257928  26.250  11.230  12.820
 3006DPPE   C1A57929  26.070  11.610  13.270
 3006DPPE   C2A57930  25.760  11.950  13.150
 3006DPPE   C3A57931  25.370  12.180  12.940
 3006DPPE   C4A57932  25.150  12.380  12.630
 3006DPPE   C1B57933  25.840  11.280  12.880
 3006DPPE   C2B57934  25.550  11.090  12.580
 3006DPPE   C3B57935  25.130  11.310  12.420
 3006DPPE   C4B57936  24.780  11.520  12.150
 3007DPPE   NH357937  16.300  17.020  27.280
 3007DPPE   PO457938  15.990  16.730  27.570
 3007DPPE   GL157939  15.760  16.660  27.270
 3007DPPE   GL257940  15.770  16.430  27.100
 3007DPPE   C1A57941  15.420  16.860  26.910
 3007DPPE   C2A57942  15.380  17.020  26.530
 3007DPPE   C3A57943  15.240  16.850  26.150
 3007DPPE   C4A57944  14.940  16.590  25.910
 3007DPPE   C1B57945  15.640  16.060  26.860
 3007DPPE   C2B57946  15.880  15.960  26.480
 3007DPPE   C3B57947  16.010  15.540  26.420
 3007DPPE   C4B57948  16.080  15.110  26.620
 3008DPPE   NH357949  20.880  18.230  23.290
 3008DPPE   PO457950  20.450  18.170  23.380
 3008DPPE   GL157951  20.130  18.100  23.230
 3008DPPE   GL257952  19.960  17.770  23.340
 3008DPPE   C1A57953  19.780  18.140  22.960
 3008DPPE   C2A57954  19.480  17.930  22.800
 3008DPPE   C3A57955  19.130  17.940  22.510
 3008DPPE   C4A57956  18.960  18.010  22.180
 3008DPPE   C1B57957  19.530  17.880  23.300
 3008DPPE   C2B57958  19.240  18.220  23.210
 3008DPPE   C3B57959  19.030  18.570  23.010
 3008DPPE   C4B57960  18.730  18.830  22.960
 3009DPPE   NH357961  16.470  12.050  27.660
 3009DPPE   PO457962  16.200  11.720  27.770
 3009DPPE   GL157963  15.980  11.680  27.350
 3009DPPE   GL257964  16.190  11.940  27.150
 3009DPPE   C1A57965  15.700  11.910  27.110
 3009DPPE   C2A57966  15.270  12.270  27.140
 3009DPPE   C3A57967  15.420  12.640  26.940
 3009DPPE   C4A57968  15.510  13.050  27.130
 3009DPPE   C1B57969  16.090  11.670  26.800
 3009DPPE   C2B57970  15.710  11.630  26.600
 3009DPPE   C3B57971  15.250  11.630  26.500
 3009DPPE   C4B57972  14.820  11.490  26.320
 3010DPPE   NH357973  10.020   8.870  23.980
 3010DPPE   PO457974   9.870   8.530  23.700
 3010DPPE   GL157975  10.000   8.690  23.400
 3010DPPE   GL257976   9.890   9.070  23.500
 3010DPPE   C1A57977  10.250   8.770  23.100
 3010DPPE   C2A57978  10.250   9.030  22.670
 3010DPPE   C3A57979  10.310   9.310  22.350
 3010DPPE   C4A57980  10.210   9.170  21.940
 3010DPPE   C1B57981   9.960   9.340  23.200
 3010DPPE   C2B57982  10.190   9.690  23.280
 3010DPPE   C3B57983  10.250  10.100  23.190
 3010DPPE   C4B57984  10.090  10.430  22.900
 3011DPPE   NH357985   8.950  15.410  26.180
 3011DPPE   PO457986   9.220  15.620  26.450
 3011DPPE   GL157987   9.490  15.430  26.080
 3011DPPE   GL257988   9.670  15.690  26.120
 3011DPPE   C1A57989   9.400  15.580  25.670
 3011DPPE   C2A57990   9.360  15.890  25.400
 3011DPPE   C3A57991   9.320  16.310  25.270
 3011DPPE   C4A57992   8.980  16.520  25.170
 3011DPPE   C1B57993   9.800  15.870  25.740
 3011DPPE   C2B57994  10.040  15.980  25.430
 3011DPPE   C3B57995  10.340  16.090  25.180
 3011DPPE   C4B57996  10.710  15.920  24.890
 3012DPPE   NH357997   8.580  24.330   7.250
 3012DPPE   PO457998   8.150  24.270   7.460
 3012DPPE   GL157999   8.270  24.020   7.840
 3012DPPE   GL258000   8.520  23.720   7.860
 3012DPPE   C1A58001   8.160  23.680   8.240
 3012DPPE   C2A58002   8.030  23.260   8.200
 3012DPPE   C3A58003   8.190  22.870   8.110
 3012DPPE   C4A58004   8.430  22.730   7.770
 3012DPPE   C1B58005   8.520  23.380   8.030
 3012DPPE   C2B58006   8.710  23.100   7.980
 3012DPPE   C3B58007   8.720  22.730   8.150
 3012DPPE   C4B58008   8.560  22.530   8.550
 3013DPPE   NH358009  10.900  16.470  27.420
 3013DPPE   PO458010  10.640  16.530  27.340
 3013DPPE   GL158011  10.530  16.470  26.990
 3013DPPE   GL258012  10.290  16.880  26.800
 3013DPPE   C1A58013  10.550  16.080  26.800
 3013DPPE   C2A58014  10.590  16.050  26.310
 3013DPPE   C3A58015  10.580  16.130  25.830
 3013DPPE   C4A58016  10.690  16.210  25.450
 3013DPPE   C1B58017  10.140  17.120  26.530
 3013DPPE   C2B58018   9.790  17.300  26.330
 3013DPPE   C3B58019   9.510  17.510  26.030
 3013DPPE   C4B58020   9.200  17.670  25.830
 3014DPPE   NH358021  15.330   5.170  19.490
 3014DPPE   PO458022  15.390   5.630  19.590
 3014DPPE   GL158023  15.180   6.010  19.320
 3014DPPE   GL258024  14.890   6.020  19.100
 3014DPPE   C1A58025  15.290   6.450  19.190
 3014DPPE   C2A58026  15.420   6.610  18.810
 3014DPPE   C3A58027  15.360   6.960  18.600
 3014DPPE   C4A58028  15.100   7.310  18.400
 3014DPPE   C1B58029  14.900   6.470  18.960
 3014DPPE   C2B58030  14.940   6.830  18.890
 3014DPPE   C3B58031  14.900   7.120  19.100
 3014DPPE   C4B58032  14.680   7.310  18.800
 3015DPPE   NH358033  15.760  10.260   6.700
 3015DPPE   PO458034  16.130   9.960   6.680
 3015DPPE   GL158035  16.460   9.750   6.530
 3015DPPE   GL258036  16.350   9.830   6.240
 3015DPPE   C1A58037  16.450   9.330   6.450
 3015DPPE   C2A58038  16.240   8.920   6.470
 3015DPPE   C3A58039  16.350   8.440   6.500
 3015DPPE   C4A58040  16.290   8.020   6.570
 3015DPPE   C1B58041  16.340   9.410   5.970
 3015DPPE   C2B58042  16.410   9.030   6.050
 3015DPPE   C3B58043  16.700   8.650   6.210
 3015DPPE   C4B58044  16.870   8.540   6.520
 3016DPPE   NH358045  20.390  27.950   9.110
 3016DPPE   PO458046  20.750  28.060   9.320
 3016DPPE   GL158047  20.640  27.660   9.530
 3016DPPE   GL258048  20.950  27.440   9.650
 3016DPPE   C1A58049  20.210  27.680   9.680
 3016DPPE   C2A58050  19.750  27.730   9.750
 3016DPPE   C3A58051  19.480  27.470   9.600
 3016DPPE   C4A58052  19.430  26.940   9.490
 3016DPPE   C1B58053  20.840  26.970   9.630
 3016DPPE   C2B58054  20.470  26.660   9.680
 3016DPPE   C3B58055  20.370  26.340   9.870
 3016DPPE   C4B58056  19.980  26.210  10.020
 3017DPPE   NH358057  11.380  16.890  15.680
 3017DPPE   PO458058  11.140  16.800  16.040
 3017DPPE   GL158059  10.770  16.670  16.230
 3017DPPE   GL258060  10.520  16.870  16.250
 3017DPPE   C1A58061  10.530  16.580  16.680
 3017DPPE   C2A58062  10.000  16.440  16.800
 3017DPPE   C3A58063   9.740  16.140  16.890
 3017DPPE   C4A58064   9.730  15.770  17.110
 3017DPPE   C1B58065  10.110  16.630  16.230
 3017DPPE   C2B58066   9.830  16.830  16.470
 3017DPPE   C3B58067   9.580  16.980  16.330
 3017DPPE   C4B58068   9.230  17.290  16.270
 3018DPPE   NH358069  18.010   9.160  11.010
 3018DPPE   PO458070  18.340   9.220  11.020
 3018DPPE   GL158071  18.450   8.830  11.060
 3018DPPE   GL258072  18.130   8.690  11.070
 3018DPPE   C1A58073  18.660   8.510  10.900
 3018DPPE   C2A58074  19.090   8.470  10.740
 3018DPPE   C3A58075  19.590   8.190  10.780
 3018DPPE   C4A58076  19.770   7.900  11.150
 3018DPPE   C1B58077  18.280   8.190  11.080
 3018DPPE   C2B58078  18.500   7.750  11.010
 3018DPPE   C3B58079  18.630   7.580  10.680
 3018DPPE   C4B58080  19.090   7.420  10.470
 3019DPPE   NH358081  15.940  16.040  19.950
 3019DPPE   PO458082  16.250  16.140  20.310
 3019DPPE   GL158083  15.980  16.190  20.590
 3019DPPE   GL258084  15.760  16.270  20.370
 3019DPPE   C1A58085  15.920  16.330  21.060
 3019DPPE   C2A58086  16.010  16.130  21.510
 3019DPPE   C3A58087  16.050  15.840  22.010
 3019DPPE   C4A58088  15.930  15.740  22.390
 3019DPPE   C1B58089  15.540  16.140  20.750
 3019DPPE   C2B58090  15.340  15.700  20.710
 3019DPPE   C3B58091  15.180  15.550  21.090
 3019DPPE   C4B58092  15.220  15.550  21.480
 3020DPPE   NH358093  22.530  19.570   1.900
 3020DPPE   PO458094  22.180  19.250   1.620
 3020DPPE   GL158095  22.000  19.410   1.970
 3020DPPE   GL258096  21.740  19.350   2.090
 3020DPPE   C1A58097  21.940  19.400   2.510
 3020DPPE   C2A58098  21.640  19.360   2.740
 3020DPPE   C3A58099  21.190  19.480   2.800
 3020DPPE   C4A58100  20.830  19.260   2.980
 3020DPPE   C1B58101  21.570  19.040   2.340
 3020DPPE   C2B58102  21.520  18.620   2.510
 3020DPPE   C3B58103  21.290  18.370   2.770
 3020DPPE   C4B58104  21.330  17.940   2.950
 3021DPPE   NH358105  14.270  27.550  20.120
 3021DPPE   PO458106  14.370  27.090  20.180
 3021DPPE   GL158107  14.660  26.840  19.950
 3021DPPE   GL258108  14.800  27.070  19.800
 3021DPPE   C1A58109  14.680  26.500  19.640
 3021DPPE   C2A58110  14.670  25.980  19.700
 3021DPPE   C3A58111  14.800  25.650  20.020
 3021DPPE   C4A58112  15.130  25.550  20.380
 3021DPPE   C1B58113  15.100  26.850  19.480
 3021DPPE   C2B58114  15.120  26.320  19.360
 3021DPPE   C3B58115  14.800  26.020  19.160
 3021DPPE   C4B58116  14.610  25.600  19.120
 3022DPPE   NH358117  14.290  11.460  27.990
 3022DPPE   PO458118  14.240  11.140  27.580
 3022DPPE   GL158119  14.180  11.360  27.150
 3022DPPE   GL258120  13.950  11.630  27.210
 3022DPPE   C1A58121  14.250  11.860  26.880
 3022DPPE   C2A58122  14.250  12.070  26.540
 3022DPPE   C3A58123  14.480  12.130  26.290
 3022DPPE   C4A58124  14.660  12.310  26.060
 3022DPPE   C1B58125  13.870  11.460  26.790
 3022DPPE   C2B58126  13.900  11.580  26.340
 3022DPPE   C3B58127  14.060  11.870  26.000
 3022DPPE   C4B58128  14.250  12.150  25.730
 3023DPPE   NH358129   8.300  22.270   5.190
 3023DPPE   PO458130   8.240  22.690   5.380
 3023DPPE   GL158131   8.530  22.380   5.670
 3023DPPE   GL258132   8.510  22.080   5.690
 3023DPPE   C1A58133   8.850  22.430   5.950
 3023DPPE   C2A58134   9.020  22.290   6.290
 3023DPPE   C3A58135   9.240  22.170   6.590
 3023DPPE   C4A58136   9.520  22.330   6.940
 3023DPPE   C1B58137   8.920  21.900   5.840
 3023DPPE   C2B58138   9.200  21.720   6.020
 3023DPPE   C3B58139   9.560  21.630   5.940
 3023DPPE   C4B58140   9.820  21.270   6.010
 3024DPPE   NH358141  13.460  18.850  27.670
 3024DPPE   PO458142  13.300  19.280  27.780
 3024DPPE   GL158143  13.100  19.360  27.420
 3024DPPE   GL258144  13.280  19.090  27.150
 3024DPPE   C1A58145  12.780  19.330  27.180
 3024DPPE   C2A58146  12.410  19.510  27.050
 3024DPPE   C3A58147  12.160  19.710  27.000
 3024DPPE   C4A58148  11.760  19.720  27.040
 3024DPPE   C1B58149  13.260  19.450  26.990
 3024DPPE   C2B58150  13.310  19.820  26.770
 3024DPPE   C3B58151  12.970  20.130  26.670
 3024DPPE   C4B58152  13.170  20.150  26.230
 3025DPPE   NH358153   9.680  16.110  13.500
 3025DPPE   PO458154   9.860  15.890  13.860
 3025DPPE   GL158155   9.620  15.680  14.110
 3025DPPE   GL258156   9.390  15.910  14.410
 3025DPPE   C1A58157   9.480  15.250  14.180
 3025DPPE   C2A58158   9.230  14.890  14.260
 3025DPPE   C3A58159   9.150  14.550  14.520
 3025DPPE   C4A58160   9.200  14.130  14.680
 3025DPPE   C1B58161   9.010  15.830  14.460
 3025DPPE   C2B58162   8.620  15.710  14.210
 3025DPPE   C3B58163   8.220  15.480  14.010
 3025DPPE   C4B58164   8.080  15.520  13.620
 3026DPPE   NH358165   1.480  19.790  18.250
 3026DPPE   PO458166   1.480  19.450  17.970
 3026DPPE   GL158167   1.880  19.570  17.750
 3026DPPE   GL258168   1.780  19.610  17.530
 3026DPPE   C1A58169   2.310  19.630  17.500
 3026DPPE   C2A58170   2.740  19.600  17.640
 3026DPPE   C3A58171   3.120  19.780  17.720
 3026DPPE   C4A58172   3.470  19.620  17.420
 3026DPPE   C1B58173   2.010  20.030  17.400
 3026DPPE   C2B58174   2.360  20.280  17.320
 3026DPPE   C3B58175   2.680  20.370  17.100
 3026DPPE   C4B58176   3.010  20.260  16.790
 3027DPPE   NH358177  16.190  10.030  16.860
 3027DPPE   PO458178  16.610  10.080  16.690
 3027DPPE   GL158179  16.540   9.690  16.630
 3027DPPE   GL258180  16.270   9.540  16.810
 3027DPPE   C1A58181  16.630   9.240  16.680
 3027DPPE   C2A58182  16.630   8.800  16.720
 3027DPPE   C3A58183  16.390   8.390  16.850
 3027DPPE   C4A58184  16.180   8.080  16.540
 3027DPPE   C1B58185  16.210   9.140  17.060
 3027DPPE   C2B58186  16.170   8.730  17.220
 3027DPPE   C3B58187  15.980   8.560  17.680
 3027DPPE   C4B58188  15.780   8.820  17.950
 3028DPPE   NH358189   8.880  18.400  13.130
 3028DPPE   PO458190   8.730  18.710  13.300
 3028DPPE   GL158191   8.510  18.370  13.470
 3028DPPE   GL258192   8.470  18.550  13.770
 3028DPPE   C1A58193   8.070  18.310  13.700
 3028DPPE   C2A58194   7.920  18.020  14.040
 3028DPPE   C3A58195   7.880  17.810  14.410
 3028DPPE   C4A58196   7.670  17.410  14.520
 3028DPPE   C1B58197   8.310  18.400  14.150
 3028DPPE   C2B58198   8.040  18.400  14.400
 3028DPPE   C3B58199   8.200  18.140  14.760
 3028DPPE   C4B58200   8.230  17.890  15.070
 3029DPPE   NH358201  13.280   4.680  18.770
 3029DPPE   PO458202  13.750   4.850  18.880
 3029DPPE   GL158203  13.560   5.190  18.640
 3029DPPE   GL258204  13.200   5.160  18.540
 3029DPPE   C1A58205  13.790   5.620  18.460
 3029DPPE   C2A58206  13.670   6.030  18.460
 3029DPPE   C3A58207  13.710   6.480  18.600
 3029DPPE   C4A58208  13.440   6.910  18.470
 3029DPPE   C1B58209  13.260   5.480  18.950
 3029DPPE   C2B58210  13.650   5.810  18.990
 3029DPPE   C3B58211  13.890   6.120  19.090
 3029DPPE   C4B58212  14.230   6.010  19.460
 3030DPPE   NH358213   4.510  14.310   8.230
 3030DPPE   PO458214   4.870  14.360   8.220
 3030DPPE   GL158215   5.340  14.570   8.060
 3030DPPE   GL258216   5.360  14.850   8.150
 3030DPPE   C1A58217   5.880  14.530   8.070
 3030DPPE   C2A58218   6.200  14.780   7.920
 3030DPPE   C3A58219   6.600  14.590   7.740
 3030DPPE   C4A58220   6.960  14.740   7.620
 3030DPPE   C1B58221   5.760  15.060   8.190
 3030DPPE   C2B58222   6.130  15.050   8.330
 3030DPPE   C3B58223   6.440  15.070   8.670
 3030DPPE   C4B58224   6.510  15.100   9.080
 3031DPPE   NH358225  19.200  14.360  24.480
 3031DPPE   PO458226  18.990  14.530  24.790
 3031DPPE   GL158227  18.720  14.660  24.450
 3031DPPE   GL258228  18.510  14.510  24.700
 3031DPPE   C1A58229  18.360  14.710  24.250
 3031DPPE   C2A58230  18.350  14.730  23.830
 3031DPPE   C3A58231  18.100  14.740  23.470
 3031DPPE   C4A58232  17.920  14.550  23.050
 3031DPPE   C1B58233  18.030  14.520  24.800
 3031DPPE   C2B58234  17.660  14.320  25.150
 3031DPPE   C3B58235  17.160  14.400  25.140
 3031DPPE   C4B58236  16.890  14.380  25.420
 3032DPPE   NH358237  11.020  19.170  15.630
 3032DPPE   PO458238  10.880  19.230  15.210
 3032DPPE   GL158239  10.520  19.220  15.510
 3032DPPE   GL258240  10.540  19.260  15.770
 3032DPPE   C1A58241  10.150  19.030  15.390
 3032DPPE   C2A58242   9.750  19.060  15.620
 3032DPPE   C3A58243   9.450  19.110  15.950
 3032DPPE   C4A58244   9.310  19.100  16.370
 3032DPPE   C1B58245  10.160  19.030  15.880
 3032DPPE   C2B58246   9.880  19.340  16.080
 3032DPPE   C3B58247   9.760  19.400  16.480
 3032DPPE   C4B58248   9.560  19.340  16.780
 3033DPPE   NH358249  27.570  19.140  15.710
 3033DPPE   PO458250  27.170  19.220  16.010
 3033DPPE   GL158251  26.920  19.290  15.660
 3033DPPE   GL258252  26.760  19.660  15.630
 3033DPPE   C1A58253  26.650  19.180  15.430
 3033DPPE   C2A58254  26.260  19.070  15.170
 3033DPPE   C3A58255  25.950  18.800  15.250
 3033DPPE   C4A58256  25.540  18.940  15.050
 3033DPPE   C1B58257  26.470  19.620  15.400
 3033DPPE   C2B58258  26.090  19.460  15.370
 3033DPPE   C3B58259  25.750  19.250  15.430
 3033DPPE   C4B58260  25.430  19.220  15.370
 3034DPPE   NH358261   2.890  23.160  19.000
 3034DPPE   PO458262   3.020  23.340  18.610
 3034DPPE   GL158263   3.300  23.100  18.380
 3034DPPE   GL258264   3.050  22.970  18.290
 3034DPPE   C1A58265   3.540  23.060  17.950
 3034DPPE   C2A58266   3.840  22.810  17.620
 3034DPPE   C3A58267   3.970  22.550  17.320
 3034DPPE   C4A58268   4.160  22.130  17.020
 3034DPPE   C1B58269   3.000  22.560  18.320
 3034DPPE   C2B58270   3.300  22.470  18.000
 3034DPPE   C3B58271   3.160  22.410  17.540
 3034DPPE   C4B58272   2.920  22.070  17.470
 3035DPPE   NH358273  10.360  10.600  25.370
 3035DPPE   PO458274  10.690  10.380  25.430
 3035DPPE   GL158275  10.830  10.400  24.990
 3035DPPE   GL258276  11.090  10.230  25.050
 3035DPPE   C1A58277  11.050  10.650  24.790
 3035DPPE   C2A58278  11.400  10.780  24.580
 3035DPPE   C3A58279  11.770  10.800  24.470
 3035DPPE   C4A58280  11.870  10.850  24.070
 3035DPPE   C1B58281  11.370  10.290  24.740
 3035DPPE   C2B58282  11.550  10.420  24.260
 3035DPPE   C3B58283  11.910  10.340  24.010
 3035DPPE   C4B58284  12.200  10.010  23.890
 3036DPPE   NH358285  11.670  17.030  17.660
 3036DPPE   PO458286  11.970  16.990  17.910
 3036DPPE   GL158287  11.690  16.930  18.240
 3036DPPE   GL258288  11.460  16.980  18.140
 3036DPPE   C1A58289  11.430  16.730  18.520
 3036DPPE   C2A58290  11.390  17.000  18.880
 3036DPPE   C3A58291  11.150  16.920  19.360
 3036DPPE   C4A58292  10.990  16.930  19.770
 3036DPPE   C1B58293  11.020  16.970  18.310
 3036DPPE   C2B58294  10.770  16.960  18.700
 3036DPPE   C3B58295  10.740  17.170  18.980
 3036DPPE   C4B58296  10.970  17.360  19.360
 3037DPPE   NH358297  15.320  12.020  17.230
 3037DPPE   PO458298  15.670  11.930  17.500
 3037DPPE   GL158299  15.440  11.590  17.720
 3037DPPE   GL258300  15.670  11.700  17.920
 3037DPPE   C1A58301  15.260  11.450  18.000
 3037DPPE   C2A58302  15.000  11.280  18.240
 3037DPPE   C3A58303  14.620  11.450  18.410
 3037DPPE   C4A58304  14.280  11.710  18.450
 3037DPPE   C1B58305  15.340  11.940  18.170
 3037DPPE   C2B58306  14.920  11.920  18.210
 3037DPPE   C3B58307  14.580  12.050  17.920
 3037DPPE   C4B58308  14.240  11.870  17.880
 3038DPPE   NH358309  12.900   5.300  21.610
 3038DPPE   PO458310  13.000   5.130  21.160
 3038DPPE   GL158311  12.880   5.500  20.860
 3038DPPE   GL258312  13.030   5.420  20.520
 3038DPPE   C1A58313  12.710   5.840  20.900
 3038DPPE   C2A58314  12.800   6.160  20.620
 3038DPPE   C3A58315  12.860   6.590  20.650
 3038DPPE   C4A58316  13.070   6.920  20.340
 3038DPPE   C1B58317  13.100   5.900  20.300
 3038DPPE   C2B58318  13.140   6.330  20.250
 3038DPPE   C3B58319  12.740   6.610  20.080
 3038DPPE   C4B58320  12.540   7.030  20.120
 3039DPPE   NH358321  13.070  13.380  16.600
 3039DPPE   PO458322  13.410  13.170  16.750
 3039DPPE   GL158323  13.260  13.090  17.100
 3039DPPE   GL258324  13.040  13.160  17.100
 3039DPPE   C1A58325  13.020  12.800  17.410
 3039DPPE   C2A58326  12.660  12.730  17.590
 3039DPPE   C3A58327  12.230  12.500  17.540
 3039DPPE   C4A58328  11.820  12.320  17.570
 3039DPPE   C1B58329  12.640  13.140  17.240
 3039DPPE   C2B58330  12.280  13.040  17.360
 3039DPPE   C3B58331  11.860  12.970  17.450
 3039DPPE   C4B58332  11.730  12.750  17.770
 3040DPPE   NH358333  23.630  15.370   3.010
 3040DPPE   PO458334  23.710  15.760   2.720
 3040DPPE   GL158335  23.770  15.940   3.050
 3040DPPE   GL258336  23.490  15.770   3.270
 3040DPPE   C1A58337  23.750  16.190   3.490
 3040DPPE   C2A58338  23.300  16.200   3.610
 3040DPPE   C3A58339  23.050  15.910   3.780
 3040DPPE   C4A58340  22.660  15.750   3.760
 3040DPPE   C1B58341  23.260  15.540   3.510
 3040DPPE   C2B58342  22.850  15.280   3.540
 3040DPPE   C3B58343  22.520  15.070   3.700
 3040DPPE   C4B58344  22.200  14.960   3.570
 3041DPPE   NH358345   3.550  23.810  14.200
 3041DPPE   PO458346   3.780  23.970  14.490
 3041DPPE   GL158347   3.940  23.630  14.730
 3041DPPE   GL258348   4.230  23.580  14.740
 3041DPPE   C1A58349   4.110  23.220  14.990
 3041DPPE   C2A58350   4.440  22.930  14.960
 3041DPPE   C3A58351   4.810  22.940  15.080
 3041DPPE   C4A58352   5.180  22.950  15.320
 3041DPPE   C1B58353   4.620  23.380  15.060
 3041DPPE   C2B58354   5.120  23.300  14.960
 3041DPPE   C3B58355   5.380  22.810  14.870
 3041DPPE   C4B58356   5.600  22.400  14.920
 3042DPPE   NH358357  10.790  10.560  10.650
 3042DPPE   PO458358  11.150  10.320  10.700
 3042DPPE   GL158359  10.820  10.100  10.540
 3042DPPE   GL258360  10.370  10.180  10.610
 3042DPPE   C1A58361  10.650   9.690  10.360
 3042DPPE   C2A58362  10.250   9.400  10.240
 3042DPPE   C3A58363  10.030   9.420   9.860
 3042DPPE   C4A58364   9.750   9.170   9.580
 3042DPPE   C1B58365  10.190   9.810  10.620
 3042DPPE   C2B58366  10.100   9.400  10.800
 3042DPPE   C3B58367  10.180   9.020  10.520
 3042DPPE   C4B58368  10.020   8.870  10.130
 3043DPPE   NH358369  16.280  19.960  26.310
 3043DPPE   PO458370  16.420  19.630  26.520
 3043DPPE   GL158371  16.370  19.540  26.090
 3043DPPE   GL258372  16.210  19.740  25.860
 3043DPPE   C1A58373  16.170  19.210  25.780
 3043DPPE   C2A58374  16.260  19.260  25.300
 3043DPPE   C3A58375  16.400  19.200  24.960
 3043DPPE   C4A58376  16.320  19.170  24.540
 3043DPPE   C1B58377  16.020  19.650  25.580
 3043DPPE   C2B58378  15.750  19.570  25.300
 3043DPPE   C3B58379  15.600  19.320  25.070
 3043DPPE   C4B58380  15.410  19.190  24.600
 3044DPPE   NH358381  12.350  11.230  26.710
 3044DPPE   PO458382  12.060  10.970  26.500
 3044DPPE   GL158383  11.910  11.190  26.170
 3044DPPE   GL258384  12.240  11.320  26.100
 3044DPPE   C1A58385  11.910  11.660  26.030
 3044DPPE   C2A58386  12.100  12.110  25.940
 3044DPPE   C3A58387  12.240  12.520  25.780
 3044DPPE   C4A58388  12.300  12.800  25.470
 3044DPPE   C1B58389  12.280  11.050  25.720
 3044DPPE   C2B58390  12.240  10.690  25.430
 3044DPPE   C3B58391  12.100  10.310  25.330
 3044DPPE   C4B58392  12.180  10.010  24.980
 3045DPPE   NH358393  23.760  14.170  10.950
 3045DPPE   PO458394  23.640  14.240  11.340
 3045DPPE   GL158395  24.100  14.220  11.390
 3045DPPE   GL258396  24.200  14.030  11.540
 3045DPPE   C1A58397  24.560  14.280  11.310
 3045DPPE   C2A58398  24.960  14.100  11.390
 3045DPPE   C3A58399  25.290  13.770  11.660
 3045DPPE   C4A58400  25.740  13.810  11.600
 3045DPPE   C1B58401  24.550  13.730  11.600
 3045DPPE   C2B58402  24.820  13.370  11.700
 3045DPPE   C3B58403  25.200  13.420  11.940
 3045DPPE   C4B58404  25.350  13.250  12.340
 3046DPPE   NH358405  14.440  16.250  18.840
 3046DPPE   PO458406  14.190  16.160  18.470
 3046DPPE   GL158407  14.020  16.010  18.950
 3046DPPE   GL258408  13.830  16.340  19.150
 3046DPPE   C1A58409  13.670  15.880  19.190
 3046DPPE   C2A58410  13.540  15.610  19.550
 3046DPPE   C3A58411  13.360  15.390  19.950
 3046DPPE   C4A58412  13.130  15.440  20.310
 3046DPPE   C1B58413  13.930  16.090  19.530
 3046DPPE   C2B58414  13.830  15.950  19.760
 3046DPPE   C3B58415  13.600  15.820  20.120
 3046DPPE   C4B58416  13.640  15.470  20.490
 3047DPPE   NH358417   6.840  26.110  17.130
 3047DPPE   PO458418   6.790  25.920  16.710
 3047DPPE   GL158419   7.090  25.580  16.910
 3047DPPE   GL258420   7.130  25.300  16.770
 3047DPPE   C1A58421   7.370  25.470  17.300
 3047DPPE   C2A58422   7.790  25.150  17.290
 3047DPPE   C3A58423   7.880  24.930  17.000
 3047DPPE   C4A58424   8.040  24.740  16.560
 3047DPPE   C1B58425   6.810  24.940  16.850
 3047DPPE   C2B58426   6.430  24.680  17.130
 3047DPPE   C3B58427   6.110  24.460  16.990
 3047DPPE   C4B58428   5.730  24.170  16.840
 3048DPPE   NH358429  17.880  19.910  20.370
 3048DPPE   PO458430  17.600  20.170  20.550
 3048DPPE   GL158431  17.850  20.310  20.820
 3048DPPE   GL258432  17.800  20.670  20.840
 3048DPPE   C1A58433  17.960  20.190  21.210
 3048DPPE   C2A58434  18.130  20.130  21.610
 3048DPPE   C3A58435  18.040  20.370  21.930
 3048DPPE   C4A58436  18.160  20.570  22.420
 3048DPPE   C1B58437  17.610  20.590  21.190
 3048DPPE   C2B58438  17.190  20.600  21.390
 3048DPPE   C3B58439  16.720  20.890  21.450
 3048DPPE   C4B58440  16.340  21.100  21.480
 3049DPPE   NH358441  22.630  26.200   7.570
 3049DPPE   PO458442  22.570  26.450   7.970
 3049DPPE   GL158443  22.440  26.260   8.290
 3049DPPE   GL258444  22.770  26.190   8.380
 3049DPPE   C1A58445  22.260  26.130   8.690
 3049DPPE   C2A58446  22.140  25.870   8.990
 3049DPPE   C3A58447  21.690  25.860   9.190
 3049DPPE   C4A58448  21.310  25.940   9.420
 3049DPPE   C1B58449  22.620  25.850   8.500
 3049DPPE   C2B58450  22.600  25.650   8.940
 3049DPPE   C3B58451  22.400  25.500   9.240
 3049DPPE   C4B58452  22.060  25.680   9.480
 3050DPPE   NH358453  23.930  17.350  13.270
 3050DPPE   PO458454  24.150  17.670  13.450
 3050DPPE   GL158455  24.520  17.810  13.420
 3050DPPE   GL258456  24.490  18.090  13.340
 3050DPPE   C1A58457  24.970  17.740  13.450
 3050DPPE   C2A58458  25.430  17.890  13.620
 3050DPPE   C3A58459  25.570  18.000  13.850
 3050DPPE   C4A58460  25.690  18.150  14.150
 3050DPPE   C1B58461  24.850  18.210  13.300
 3050DPPE   C2B58462  25.210  18.160  13.310
 3050DPPE   C3B58463  25.600  18.320  13.410
 3050DPPE   C4B58464  25.880  18.230  13.300
 3051DPPE   NH358465  12.040  15.160  27.470
 3051DPPE   PO458466  11.680  14.990  27.550
 3051DPPE   GL158467  11.810  14.890  27.070
 3051DPPE   GL258468  12.180  14.980  27.020
 3051DPPE   C1A58469  11.460  15.160  26.780
 3051DPPE   C2A58470  11.250  15.470  26.500
 3051DPPE   C3A58471  11.380  15.650  26.130
 3051DPPE   C4A58472  11.510  15.800  25.780
 3051DPPE   C1B58473  12.400  15.050  26.660
 3051DPPE   C2B58474  12.800  15.060  26.450
 3051DPPE   C3B58475  13.180  15.120  26.230
 3051DPPE   C4B58476  13.510  14.840  26.320
 3052DPPE   NH358477  13.780  15.150  28.200
 3052DPPE   PO458478  13.620  15.560  28.270
 3052DPPE   GL158479  13.630  15.410  27.760
 3052DPPE   GL258480  13.870  15.240  27.670
 3052DPPE   C1A58481  13.330  15.400  27.460
 3052DPPE   C2A58482  13.020  15.360  27.090
 3052DPPE   C3A58483  12.560  15.320  27.060
 3052DPPE   C4A58484  12.290  15.500  26.840
 3052DPPE   C1B58485  13.890  15.550  27.260
 3052DPPE   C2B58486  13.570  15.750  26.910
 3052DPPE   C3B58487  13.260  15.700  26.630
 3052DPPE   C4B58488  13.060  15.660  26.190
 3053DPPE   NH358489  16.550  15.200  19.900
 3053DPPE   PO458490  16.770  14.820  20.090
 3053DPPE   GL158491  16.830  14.450  20.580
 3053DPPE   GL258492  16.930  14.150  20.600
 3053DPPE   C1A58493  16.650  14.430  20.990
 3053DPPE   C2A58494  16.450  14.510  21.430
 3053DPPE   C3A58495  16.530  14.620  21.760
 3053DPPE   C4A58496  16.330  14.970  22.120
 3053DPPE   C1B58497  16.550  14.060  20.400
 3053DPPE   C2B58498  16.110  14.170  20.180
 3053DPPE   C3B58499  15.700  14.130  19.860
 3053DPPE   C4B58500  15.400  13.850  19.900
 3054DPPE   NH358501  16.280   8.440   2.670
 3054DPPE   PO458502  16.690   8.630   2.760
 3054DPPE   GL158503  16.940   8.730   3.020
 3054DPPE   GL258504  17.200   8.910   3.100
 3054DPPE   C1A58505  16.930   8.750   3.470
 3054DPPE   C2A58506  17.030   8.840   3.890
 3054DPPE   C3A58507  16.840   8.990   4.260
 3054DPPE   C4A58508  16.440   9.040   4.240
 3054DPPE   C1B58509  16.990   9.300   3.210
 3054DPPE   C2B58510  16.910   9.690   3.060
 3054DPPE   C3B58511  16.680   9.970   3.180
 3054DPPE   C4B58512  16.610  10.340   3.270
 3055DPPE   NH358513  17.910  29.480  12.870
 3055DPPE   PO458514  17.650  29.080  12.940
 3055DPPE   GL158515  17.650  28.740  13.280
 3055DPPE   GL258516  17.950  28.700  13.500
 3055DPPE   C1A58517  17.600  28.280  13.480
 3055DPPE   C2A58518  17.300  28.060  13.620
 3055DPPE   C3A58519  17.070  27.840  13.870
 3055DPPE   C4A58520  17.050  27.590  14.150
 3055DPPE   C1B58521  18.280  28.780  13.760
 3055DPPE   C2B58522  18.710  28.690  13.780
 3055DPPE   C3B58523  18.890  28.520  13.390
 3055DPPE   C4B58524  18.830  28.550  12.960
 3056DPPE   NH358525   0.390  16.620  16.830
 3056DPPE   PO458526   0.740  16.900  16.890
 3056DPPE   GL158527   1.180  17.080  16.990
 3056DPPE   GL258528   1.340  17.200  16.730
 3056DPPE   C1A58529   1.580  17.030  17.120
 3056DPPE   C2A58530   2.040  17.140  17.220
 3056DPPE   C3A58531   2.450  17.200  17.310
 3056DPPE   C4A58532   2.940  17.230  17.410
 3056DPPE   C1B58533   1.680  17.340  16.410
 3056DPPE   C2B58534   1.970  17.040  16.160
 3056DPPE   C3B58535   2.240  16.950  15.840
 3056DPPE   C4B58536   2.390  16.650  15.530
 3057DPPE   NH358537  12.550   4.920  16.560
 3057DPPE   PO458538  12.410   5.320  16.600
 3057DPPE   GL158539  12.850   5.330  16.790
 3057DPPE   GL258540  12.820   5.180  17.100
 3057DPPE   C1A58541  13.060   5.590  17.030
 3057DPPE   C2A58542  13.170   6.000  17.180
 3057DPPE   C3A58543  13.310   6.220  17.360
 3057DPPE   C4A58544  13.680   6.410  17.600
 3057DPPE   C1B58545  12.620   5.550  17.300
 3057DPPE   C2B58546  12.440   5.850  17.540
 3057DPPE   C3B58547  12.450   6.320  17.580
 3057DPPE   C4B58548  12.530   6.750  17.780
 3058DPPE   NH358549  20.660   9.250   3.490
 3058DPPE   PO458550  21.070   9.260   3.710
 3058DPPE   GL158551  20.740   9.500   4.000
 3058DPPE   GL258552  20.740   9.830   4.120
 3058DPPE   C1A58553  20.320   9.420   4.230
 3058DPPE   C2A58554  20.080   9.540   4.630
 3058DPPE   C3A58555  19.700   9.600   4.850
 3058DPPE   C4A58556  19.320   9.910   4.950
 3058DPPE   C1B58557  20.850   9.910   4.550
 3058DPPE   C2B58558  20.920  10.000   5.010
 3058DPPE   C3B58559  20.780  10.140   5.410
 3058DPPE   C4B58560  20.320  10.180   5.560
 3059DPPE   NH358561  15.460   4.900  13.660
 3059DPPE   PO458562  15.600   4.610  13.340
 3059DPPE   GL158563  15.380   4.980  13.180
 3059DPPE   GL258564  15.080   5.160  13.490
 3059DPPE   C1A58565  15.470   5.390  13.190
 3059DPPE   C2A58566  15.820   5.630  13.190
 3059DPPE   C3A58567  15.840   6.010  13.130
 3059DPPE   C4A58568  15.930   6.410  13.170
 3059DPPE   C1B58569  14.680   5.500  13.560
 3059DPPE   C2B58570  14.420   5.560  13.330
 3059DPPE   C3B58571  14.170   5.890  13.290
 3059DPPE   C4B58572  13.870   6.230  13.270
 3060DPPE   NH358573  22.620  27.720  14.040
 3060DPPE   PO458574  22.430  28.000  13.700
 3060DPPE   GL158575  22.330  27.650  13.510
 3060DPPE   GL258576  22.340  27.390  13.700
 3060DPPE   C1A58577  22.290  27.450  13.110
 3060DPPE   C2A58578  22.050  27.040  12.960
 3060DPPE   C3A58579  21.660  26.850  12.770
 3060DPPE   C4A58580  21.430  26.690  12.510
 3060DPPE   C1B58581  22.140  26.940  13.900
 3060DPPE   C2B58582  22.200  26.680  14.210
 3060DPPE   C3B58583  22.200  26.230  14.290
 3060DPPE   C4B58584  21.960  25.880  14.360
 3061DPPE   NH358585  10.950  16.190  16.000
 3061DPPE   PO458586  11.200  16.090  16.340
 3061DPPE   GL158587  10.840  16.230  16.600
 3061DPPE   GL258588  10.540  16.110  16.330
 3061DPPE   C1A58589  10.510  16.130  16.990
 3061DPPE   C2A58590  10.100  16.060  17.300
 3061DPPE   C3A58591   9.880  15.810  17.600
 3061DPPE   C4A58592   9.680  15.580  17.960
 3061DPPE   C1B58593  10.130  16.100  16.320
 3061DPPE   C2B58594   9.880  15.760  16.430
 3061DPPE   C3B58595   9.490  15.450  16.380
 3061DPPE   C4B58596   9.010  15.400  16.470
 3062DPPE   NH358597   9.320  26.680  19.170
 3062DPPE   PO458598   9.270  26.380  18.790
 3062DPPE   GL158599   9.310  26.030  18.610
 3062DPPE   GL258600   9.270  25.990  18.240
 3062DPPE   C1A58601   9.450  25.660  18.630
 3062DPPE   C2A58602   9.530  25.330  18.990
 3062DPPE   C3A58603   9.650  25.050  19.160
 3062DPPE   C4A58604   9.580  24.590  19.290
 3062DPPE   C1B58605   9.700  25.780  18.090
 3062DPPE   C2B58606  10.000  25.660  18.070
 3062DPPE   C3B58607  10.340  25.330  18.180
 3062DPPE   C4B58608  10.260  24.960  18.430
 3063DPPE   NH358609  16.460   5.660  16.880
 3063DPPE   PO458610  16.100   5.820  16.810
 3063DPPE   GL158611  16.120   6.210  16.830
 3063DPPE   GL258612  16.440   6.240  16.840
 3063DPPE   C1A58613  16.160   6.600  16.660
 3063DPPE   C2A58614  16.350   6.980  16.600
 3063DPPE   C3A58615  16.490   7.280  16.280
 3063DPPE   C4A58616  16.610   7.590  15.830
 3063DPPE   C1B58617  16.650   6.550  16.540
 3063DPPE   C2B58618  16.770   6.870  16.300
 3063DPPE   C3B58619  16.960   7.330  16.110
 3063DPPE   C4B58620  17.150   7.640  15.820
 3064DPPE   NH358621  17.530  11.780  17.810
 3064DPPE   PO458622  17.090  11.740  18.110
 3064DPPE   GL158623  17.180  11.350  18.440
 3064DPPE   GL258624  17.310  11.440  18.730
 3064DPPE   C1A58625  17.150  10.840  18.570
 3064DPPE   C2A58626  17.120  10.530  18.930
 3064DPPE   C3A58627  17.060  10.210  19.160
 3064DPPE   C4A58628  16.660  10.180  19.320
 3064DPPE   C1B58629  17.010  11.220  18.860
 3064DPPE   C2B58630  16.730  10.960  18.910
 3064DPPE   C3B58631  16.550  10.610  19.100
 3064DPPE   C4B58632  16.310  10.360  18.930
 3065DPPE   NH358633  19.330  19.550   5.210
 3065DPPE   PO458634  19.620  19.200   5.280
 3065DPPE   GL158635  19.870  19.070   4.860
 3065DPPE   GL258636  20.180  19.060   4.870
 3065DPPE   C1A58637  19.770  19.010   4.450
 3065DPPE   C2A58638  19.520  19.210   4.020
 3065DPPE   C3A58639  19.400  19.600   3.850
 3065DPPE   C4A58640  19.290  19.850   3.520
 3065DPPE   C1B58641  20.320  19.130   4.470
 3065DPPE   C2B58642  20.620  19.170   4.170
 3065DPPE   C3B58643  20.820  19.190   3.720
 3065DPPE   C4B58644  21.090  19.220   3.390
 3066DPPE   NH358645   5.130  24.170  21.830
 3066DPPE   PO458646   5.340  24.470  22.110
 3066DPPE   GL158647   5.610  24.190  21.920
 3066DPPE   GL258648   5.550  23.820  21.840
 3066DPPE   C1A58649   5.820  24.180  21.520
 3066DPPE   C2A58650   6.180  23.900  21.290
 3066DPPE   C3A58651   6.330  23.530  20.990
 3066DPPE   C4A58652   6.680  23.390  20.790
 3066DPPE   C1B58653   5.780  23.510  21.540
 3066DPPE   C2B58654   6.130  23.360  21.410
 3066DPPE   C3B58655   6.460  23.130  21.320
 3066DPPE   C4B58656   6.780  22.980  21.390
 3067DPPE   NH358657  21.880  15.310  22.460
 3067DPPE   PO458658  21.930  15.810  22.460
 3067DPPE   GL158659  21.850  16.110  22.060
 3067DPPE   GL258660  22.030  16.320  21.990
 3067DPPE   C1A58661  21.670  16.520  21.700
 3067DPPE   C2A58662  21.510  16.370  21.370
 3067DPPE   C3A58663  21.570  16.100  21.040
 3067DPPE   C4A58664  21.270  15.780  20.910
 3067DPPE   C1B58665  22.090  16.110  21.620
 3067DPPE   C2B58666  22.010  15.930  21.170
 3067DPPE   C3B58667  21.820  15.650  21.040
 3067DPPE   C4B58668  21.600  15.390  21.140
 3068DPPE   NH358669  20.020  13.260  23.250
 3068DPPE   PO458670  19.620  13.370  23.560
 3068DPPE   GL158671  19.410  13.520  23.230
 3068DPPE   GL258672  19.400  13.790  23.270
 3068DPPE   C1A58673  19.370  13.490  22.770
 3068DPPE   C2A58674  19.440  13.650  22.350
 3068DPPE   C3A58675  19.270  13.880  22.010
 3068DPPE   C4A58676  18.860  13.820  21.710
 3068DPPE   C1B58677  19.080  13.890  22.940
 3068DPPE   C2B58678  19.060  13.920  22.520
 3068DPPE   C3B58679  18.720  13.970  22.300
 3068DPPE   C4B58680  18.360  14.170  22.330
 3069DPPE   NH358681  12.420  17.860  17.290
 3069DPPE   PO458682  12.030  17.900  17.490
 3069DPPE   GL158683  11.860  18.000  17.890
 3069DPPE   GL258684  11.970  18.160  18.090
 3069DPPE   C1A58685  11.450  17.910  18.110
 3069DPPE   C2A58686  11.230  17.940  18.570
 3069DPPE   C3A58687  11.020  18.010  18.910
 3069DPPE   C4A58688  10.920  17.830  19.300
 3069DPPE   C1B58689  11.600  18.400  18.360
 3069DPPE   C2B58690  11.290  18.730  18.400
 3069DPPE   C3B58691  11.050  18.980  18.610
 3069DPPE   C4B58692  10.890  19.400  18.800
 3070DPPE   NH358693  23.350  13.020  11.740
 3070DPPE   PO458694  23.000  12.670  11.560
 3070DPPE   GL158695  23.430  12.460  11.470
 3070DPPE   GL258696  23.660  12.610  11.300
 3070DPPE   C1A58697  23.670  12.080  11.500
 3070DPPE   C2A58698  23.950  11.760  11.440
 3070DPPE   C3A58699  24.180  11.530  11.700
 3070DPPE   C4A58700  24.360  11.290  12.010
 3070DPPE   C1B58701  23.900  12.230  11.060
 3070DPPE   C2B58702  24.130  11.930  10.890
 3070DPPE   C3B58703  24.600  11.800  10.900
 3070DPPE   C4B58704  24.940  11.760  11.050
 3071DPPE   NH358705  18.410  14.020  25.940
 3071DPPE   PO458706  18.050  14.090  26.190
 3071DPPE   GL158707  17.720  14.130  25.900
 3071DPPE   GL258708  17.470  14.150  26.170
 3071DPPE   C1A58709  17.370  14.170  25.650
 3071DPPE   C2A58710  17.120  13.950  25.360
 3071DPPE   C3A58711  16.920  13.770  25.110
 3071DPPE   C4A58712  16.920  13.450  24.790
 3071DPPE   C1B58713  17.240  13.750  26.080
 3071DPPE   C2B58714  17.520  13.520  25.770
 3071DPPE   C3B58715  17.500  13.030  25.620
 3071DPPE   C4B58716  17.500  12.640  25.830
 3072DPPE   NH358717  16.140   6.040  17.730
 3072DPPE   PO458718  16.480   5.810  17.960
 3072DPPE   GL158719  16.600   6.200  17.680
 3072DPPE   GL258720  16.630   6.540  17.800
 3072DPPE   C1A58721  16.800   6.480  17.330
 3072DPPE   C2A58722  16.520   6.850  17.050
 3072DPPE   C3A58723  16.550   7.290  16.890
 3072DPPE   C4A58724  16.340   7.650  16.660
 3072DPPE   C1B58725  16.560   6.880  17.520
 3072DPPE   C2B58726  16.350   7.300  17.490
 3072DPPE   C3B58727  16.320   7.740  17.700
 3072DPPE   C4B58728  16.020   8.060  17.620
 3073DPPE   NH358729  10.360  11.520   2.340
 3073DPPE   PO458730  10.550  11.220   2.690
 3073DPPE   GL158731  10.970  11.360   2.710
 3073DPPE   GL258732  11.230  11.310   2.780
 3073DPPE   C1A58733  10.890  11.720   2.970
 3073DPPE   C2A58734  11.060  11.890   3.390
 3073DPPE   C3A58735  11.130  12.060   3.770
 3073DPPE   C4A58736  11.390  12.370   3.820
 3073DPPE   C1B58737  11.340  11.530   3.210
 3073DPPE   C2B58738  11.690  11.410   3.520
 3073DPPE   C3B58739  11.830  11.380   3.950
 3073DPPE   C4B58740  11.900  11.290   4.500
 3074DPPE   NH358741  13.270   9.520   9.190
 3074DPPE   PO458742  13.510   9.470   8.860
 3074DPPE   GL158743  13.100   9.220   8.810
 3074DPPE   GL258744  13.230   9.060   8.460
 3074DPPE   C1A58745  13.020   8.820   8.900
 3074DPPE   C2A58746  12.620   8.490   8.820
 3074DPPE   C3A58747  12.320   8.180   8.740
 3074DPPE   C4A58748  12.130   8.040   8.340
 3074DPPE   C1B58749  12.760   8.840   8.340
 3074DPPE   C2B58750  12.340   8.870   8.160
 3074DPPE   C3B58751  12.080   8.940   7.860
 3074DPPE   C4B58752  12.100   9.200   7.570
 3075DPPE   NH358753  14.110  22.370  18.560
 3075DPPE   PO458754  14.390  22.640  18.760
 3075DPPE   GL158755  13.990  22.670  19.150
 3075DPPE   GL258756  14.060  22.860  19.480
 3075DPPE   C1A58757  13.530  22.760  19.320
 3075DPPE   C2A58758  13.280  22.730  19.730
 3075DPPE   C3A58759  13.040  22.410  19.910
 3075DPPE   C4A58760  12.850  22.370  20.320
 3075DPPE   C1B58761  13.910  23.130  19.740
 3075DPPE   C2B58762  13.770  23.530  19.970
 3075DPPE   C3B58763  13.540  23.720  20.170
 3075DPPE   C4B58764  13.440  24.170  20.150
 3076DPPE   NH358765  19.260  28.410  17.600
 3076DPPE   PO458766  18.890  28.490  17.270
 3076DPPE   GL158767  18.770  28.000  17.300
 3076DPPE   GL258768  18.890  27.770  17.490
 3076DPPE   C1A58769  18.780  27.520  17.080
 3076DPPE   C2A58770  18.700  27.130  16.990
 3076DPPE   C3A58771  18.910  26.800  17.130
 3076DPPE   C4A58772  19.040  26.430  16.800
 3076DPPE   C1B58773  18.510  27.610  17.470
 3076DPPE   C2B58774  18.200  27.290  17.240
 3076DPPE   C3B58775  18.160  26.890  17.260
 3076DPPE   C4B58776  18.450  26.610  17.010
 3077DPPE   NH358777  13.960  14.080  17.420
 3077DPPE   PO458778  13.660  14.010  17.160
 3077DPPE   GL158779  13.610  13.620  17.500
 3077DPPE   GL258780  13.320  13.580  17.400
 3077DPPE   C1A58781  13.360  13.600  17.920
 3077DPPE   C2A58782  13.140  13.440  18.200
 3077DPPE   C3A58783  12.720  13.230  18.230
 3077DPPE   C4A58784  12.390  12.990  18.450
 3077DPPE   C1B58785  12.990  13.330  17.610
 3077DPPE   C2B58786  12.610  13.190  17.770
 3077DPPE   C3B58787  12.280  12.930  17.930
 3077DPPE   C4B58788  11.910  12.690  18.190
 3078DPPE   NH358789  16.240  15.360  19.480
 3078DPPE   PO458790  16.170  15.550  19.930
 3078DPPE   GL158791  15.770  15.590  20.090
 3078DPPE   GL258792  15.600  15.840  20.280
 3078DPPE   C1A58793  15.600  15.270  20.480
 3078DPPE   C2A58794  15.660  15.320  20.880
 3078DPPE   C3A58795  15.720  15.350  21.280
 3078DPPE   C4A58796  16.030  15.640  21.460
 3078DPPE   C1B58797  15.150  15.890  20.210
 3078DPPE   C2B58798  14.790  15.740  20.240
 3078DPPE   C3B58799  14.570  15.370  20.370
 3078DPPE   C4B58800  14.180  15.230  20.430
 3079DPPE   NH358801  12.310  28.120  10.400
 3079DPPE   PO458802  12.030  27.770  10.190
 3079DPPE   GL158803  11.890  27.440  10.330
 3079DPPE   GL258804  11.630  27.340  10.500
 3079DPPE   C1A58805  12.110  27.140  10.580
 3079DPPE   C2A58806  12.120  26.810  10.780
 3079DPPE   C3A58807  11.940  26.610  11.020
 3079DPPE   C4A58808  11.920  26.270  11.290
 3079DPPE   C1B58809  11.630  27.050  10.790
 3079DPPE   C2B58810  11.720  26.950  11.330
 3079DPPE   C3B58811  11.950  26.790  11.550
 3079DPPE   C4B58812  12.200  26.540  11.630
 3080DPPE   NH358813  18.810  11.410  23.290
 3080DPPE   PO458814  18.800  11.040  23.480
 3080DPPE   GL158815  18.420  11.050  23.300
 3080DPPE   GL258816  18.490  11.090  22.950
 3080DPPE   C1A58817  18.010  11.290  23.200
 3080DPPE   C2A58818  17.720  11.460  23.060
 3080DPPE   C3A58819  17.400  11.510  23.300
 3080DPPE   C4A58820  17.100  11.830  23.090
 3080DPPE   C1B58821  18.270  11.490  22.850
 3080DPPE   C2B58822  17.880  11.670  22.620
 3080DPPE   C3B58823  17.640  11.950  22.390
 3080DPPE   C4B58824  17.580  11.620  22.050
 3081DPPE   NH358825   9.660  18.170  13.160
 3081DPPE   PO458826   9.240  18.040  12.960
 3081DPPE   GL158827   9.010  17.850  13.190
 3081DPPE   GL258828   8.690  17.950  13.080
 3081DPPE   C1A58829   8.880  17.530  13.470
 3081DPPE   C2A58830   8.680  17.450  13.760
 3081DPPE   C3A58831   8.770  17.650  14.200
 3081DPPE   C4A58832   8.890  17.670  14.620
 3081DPPE   C1B58833   8.310  17.910  13.170
 3081DPPE   C2B58834   7.900  17.880  13.220
 3081DPPE   C3B58835   7.560  17.960  13.640
 3081DPPE   C4B58836   7.140  18.090  13.760
 3082DPPE   NH358837  13.150  23.310   2.740
 3082DPPE   PO458838  12.780  22.990   2.590
 3082DPPE   GL158839  13.210  22.820   2.920
 3082DPPE   GL258840  13.330  23.060   3.160
 3082DPPE   C1A58841  13.490  22.410   3.030
 3082DPPE   C2A58842  13.440  22.020   3.190
 3082DPPE   C3A58843  13.620  21.620   3.190
 3082DPPE   C4A58844  13.630  21.240   3.290
 3082DPPE   C1B58845  13.410  22.600   3.460
 3082DPPE   C2B58846  13.520  22.260   3.720
 3082DPPE   C3B58847  13.530  22.070   4.090
 3082DPPE   C4B58848  13.610  21.600   3.910
 3083DPPE   NH358849   8.550  26.140   9.750
 3083DPPE   PO458850   8.750  25.850   9.610
 3083DPPE   GL158851   9.060  25.610   9.660
 3083DPPE   GL258852   8.940  25.320   9.860
 3083DPPE   C1A58853   9.390  25.430   9.640
 3083DPPE   C2A58854   9.840  25.400   9.710
 3083DPPE   C3A58855  10.330  25.400   9.710
 3083DPPE   C4A58856  10.710  25.590   9.860
 3083DPPE   C1B58857   8.750  24.870   9.890
 3083DPPE   C2B58858   8.560  24.490   9.660
 3083DPPE   C3B58859   8.460  24.090   9.510
 3083DPPE   C4B58860   8.560  23.710   9.640
 3084DPPE   NH358861   3.490  14.910  21.170
 3084DPPE   PO458862   3.580  14.370  21.290
 3084DPPE   GL158863   3.710  14.570  20.870
 3084DPPE   GL258864   3.430  14.810  20.700
 3084DPPE   C1A58865   4.060  14.530  20.460
 3084DPPE   C2A58866   4.510  14.470  20.270
 3084DPPE   C3A58867   4.930  14.590  20.130
 3084DPPE   C4A58868   5.280  14.530  19.920
 3084DPPE   C1B58869   3.920  15.030  20.430
 3084DPPE   C2B58870   4.390  15.360  20.250
 3084DPPE   C3B58871   4.690  15.390  20.000
 3084DPPE   C4B58872   5.160  15.450  19.870
 3085DPPE   NH358873  20.200  14.630  24.050
 3085DPPE   PO458874  19.840  14.310  24.050
 3085DPPE   GL158875  19.370  14.370  23.910
 3085DPPE   GL258876  19.200  14.260  23.630
 3085DPPE   C1A58877  19.260  14.790  23.660
 3085DPPE   C2A58878  19.040  15.120  23.430
 3085DPPE   C3A58879  18.710  15.320  23.110
 3085DPPE   C4A58880  18.720  15.740  22.950
 3085DPPE   C1B58881  18.800  14.510  23.450
 3085DPPE   C2B58882  18.500  14.520  23.110
 3085DPPE   C3B58883  18.240  14.420  22.700
 3085DPPE   C4B58884  17.830  14.440  22.330
 3086DPPE   NH358885  16.440   8.810   2.400
 3086DPPE   PO458886  16.050   8.590   2.250
 3086DPPE   GL158887  15.930   8.810   2.620
 3086DPPE   GL258888  16.100   8.950   2.720
 3086DPPE   C1A58889  15.560   8.950   3.010
 3086DPPE   C2A58890  15.640   9.140   3.360
 3086DPPE   C3A58891  15.690   9.420   3.660
 3086DPPE   C4A58892  15.470   9.740   3.740
 3086DPPE   C1B58893  16.080   9.120   3.140
 3086DPPE   C2B58894  16.200   9.310   3.530
 3086DPPE   C3B58895  16.120   9.550   3.840
 3086DPPE   C4B58896  15.920   9.910   4.000
 3087DPPE   NH358897  20.870  24.590   4.640
 3087DPPE   PO458898  20.580  24.470   4.510
 3087DPPE   GL158899  20.490  24.320   4.940
 3087DPPE   GL258900  20.550  24.450   5.170
 3087DPPE   C1A58901  20.330  24.040   5.250
 3087DPPE   C2A58902  20.400  23.680   5.630
 3087DPPE   C3A58903  20.550  23.630   6.030
 3087DPPE   C4A58904  20.320  23.350   6.270
 3087DPPE   C1B58905  20.340  24.330   5.650
 3087DPPE   C2B58906  20.330  24.100   6.010
 3087DPPE   C3B58907  20.190  23.870   6.420
 3087DPPE   C4B58908  19.960  23.520   6.600
 3088DPPE   NH358909   3.150  17.530  11.510
 3088DPPE   PO458910   3.320  17.900  11.470
 3088DPPE   GL158911   3.700  17.790  11.640
 3088DPPE   GL258912   3.610  17.500  11.800
 3088DPPE   C1A58913   3.950  17.980  11.920
 3088DPPE   C2A58914   4.290  18.290  12.130
 3088DPPE   C3A58915   4.650  18.500  12.030
 3088DPPE   C4A58916   4.720  18.840  11.980
 3088DPPE   C1B58917   3.580  17.140  12.080
 3088DPPE   C2B58918   3.820  16.980  12.280
 3088DPPE   C3B58919   4.230  16.940  12.500
 3088DPPE   C4B58920   4.400  16.540  12.460
 3089DPPE   NH358921  28.540  17.960  11.530
 3089DPPE   PO458922  28.390  17.690  11.890
 3089DPPE   GL158923  27.910  17.830  11.980
 3089DPPE   GL258924  27.780  17.940  12.320
 3089DPPE   C1A58925  27.620  18.130  11.920
 3089DPPE   C2A58926  27.330  18.520  11.770
 3089DPPE   C3A58927  26.940  18.430  11.680
 3089DPPE   C4A58928  26.560  18.610  11.930
 3089DPPE   C1B58929  27.350  18.100  12.340
 3089DPPE   C2B58930  27.050  18.370  12.200
 3089DPPE   C3B58931  26.930  18.800  12.330
 3089DPPE   C4B58932  26.770  19.110  12.640
 3090DPPE   NH358933  13.570  12.800  16.430
 3090DPPE   PO458934  13.280  12.980  16.280
 3090DPPE   GL158935  13.090  12.840  16.660
 3090DPPE   GL258936  13.070  12.620  16.580
 3090DPPE   C1A58937  12.800  12.780  16.990
 3090DPPE   C2A58938  12.460  12.590  17.140
 3090DPPE   C3A58939  12.030  12.450  17.090
 3090DPPE   C4A58940  11.580  12.620  17.250
 3090DPPE   C1B58941  12.820  12.330  16.800
 3090DPPE   C2B58942  12.560  12.100  16.950
 3090DPPE   C3B58943  12.320  11.830  17.180
 3090DPPE   C4B58944  12.080  11.660  17.480
 3091DPPE   NH358945  20.680   6.460  14.840
 3091DPPE   PO458946  20.350   6.270  15.080
 3091DPPE   GL158947  20.060   6.580  14.980
 3091DPPE   GL258948  19.940   6.420  14.750
 3091DPPE   C1A58949  19.980   7.000  15.050
 3091DPPE   C2A58950  19.890   7.390  15.170
 3091DPPE   C3A58951  19.710   7.520  14.930
 3091DPPE   C4A58952  19.580   7.640  14.550
 3091DPPE   C1B58953  19.640   6.520  14.520
 3091DPPE   C2B58954  19.280   6.620  14.420
 3091DPPE   C3B58955  19.100   6.940  14.450
 3091DPPE   C4B58956  19.090   7.320  14.620
 3092DPPE   NH358957  16.140   7.450  23.720
 3092DPPE   PO458958  16.250   7.490  24.150
 3092DPPE   GL158959  16.390   7.950  23.930
 3092DPPE   GL258960  16.330   8.050  23.590
 3092DPPE   C1A58961  16.640   8.270  24.010
 3092DPPE   C2A58962  16.670   8.710  23.850
 3092DPPE   C3A58963  16.920   9.080  23.800
 3092DPPE   C4A58964  16.910   9.550  23.900
 3092DPPE   C1B58965  16.010   8.260  23.740
 3092DPPE   C2B58966  15.520   8.270  23.650
 3092DPPE   C3B58967  15.230   8.020  23.490
 3092DPPE   C4B58968  15.040   8.060  23.080
 3093DPPE   NH358969  27.410  13.800  15.680
 3093DPPE   PO458970  27.330  14.080  15.330
 3093DPPE   GL158971  27.020  14.040  15.060
 3093DPPE   GL258972  27.090  14.010  14.780
 3093DPPE   C1A58973  26.540  13.950  15.130
 3093DPPE   C2A58974  26.130  14.070  15.030
 3093DPPE   C3A58975  25.700  14.250  14.980
 3093DPPE   C4A58976  25.300  14.420  14.850
 3093DPPE   C1B58977  26.810  13.680  14.780
 3093DPPE   C2B58978  26.410  13.640  14.620
 3093DPPE   C3B58979  25.960  13.740  14.630
 3093DPPE   C4B58980  25.580  13.930  14.500
 3094DPPE   NH358981  20.730  17.270  23.340
 3094DPPE   PO458982  20.410  17.100  23.480
 3094DPPE   GL158983  20.340  16.890  23.190
 3094DPPE   GL258984  20.460  17.110  22.960
 3094DPPE   C1A58985  20.200  16.540  23.070
 3094DPPE   C2A58986  20.310  16.150  22.930
 3094DPPE   C3A58987  20.330  15.660  22.980
 3094DPPE   C4A58988  20.490  15.320  22.790
 3094DPPE   C1B58989  20.160  16.910  22.690
 3094DPPE   C2B58990  19.890  16.940  22.320
 3094DPPE   C3B58991  19.560  16.850  21.930
 3094DPPE   C4B58992  19.150  16.830  21.640
 3095DPPE   NH358993   2.350  22.250  15.500
 3095DPPE   PO458994   2.100  22.260  15.820
 3095DPPE   GL158995   2.540  21.990  15.970
 3095DPPE   GL258996   2.840  22.050  16.220
 3095DPPE   C1A58997   2.850  21.690  15.740
 3095DPPE   C2A58998   3.230  21.560  15.620
 3095DPPE   C3A58999   3.660  21.450  15.730
 3095DPPE   C4A59000   4.050  21.220  15.930
 3095DPPE   C1B59001   3.000  22.130  16.730
 3095DPPE   C2B59002   3.310  22.130  17.050
 3095DPPE   C3B59003   3.650  22.150  17.250
 3095DPPE   C4B59004   3.650  22.340  17.650
 3096DPPE   NH359005  23.970  14.310   2.240
 3096DPPE   PO459006  23.600  14.610   2.380
 3096DPPE   GL159007  23.240  14.510   2.730
 3096DPPE   GL259008  23.120  14.820   2.690
 3096DPPE   C1A59009  23.170  14.530   3.220
 3096DPPE   C2A59010  22.840  14.660   3.470
 3096DPPE   C3A59011  22.730  14.540   3.970
 3096DPPE   C4A59012  22.500  14.400   4.300
 3096DPPE   C1B59013  22.740  14.700   2.860
 3096DPPE   C2B59014  22.440  14.430   2.730
 3096DPPE   C3B59015  22.370  14.030   2.830
 3096DPPE   C4B59016  22.130  13.660   2.850
 3097DPPE   NH359017   1.170  17.180  15.300
 3097DPPE   PO459018   1.110  17.270  14.880
 3097DPPE   GL159019   1.430  17.390  14.780
 3097DPPE   GL259020   1.610  17.250  15.070
 3097DPPE   C1A59021   1.710  17.660  14.650
 3097DPPE   C2A59022   1.920  17.570  14.230
 3097DPPE   C3A59023   2.090  17.640  13.860
 3097DPPE   C4A59024   2.460  17.840  13.670
 3097DPPE   C1B59025   1.900  17.130  14.810
 3097DPPE   C2B59026   2.320  16.890  14.700
 3097DPPE   C3B59027   2.600  16.620  14.950
 3097DPPE   C4B59028   2.750  16.290  15.250
 3098DPPE   NH359029  15.740  25.300  12.550
 3098DPPE   PO459030  15.540  25.640  12.420
 3098DPPE   GL159031  15.640  26.040  12.620
 3098DPPE   GL259032  15.490  25.990  12.860
 3098DPPE   C1A59033  15.760  26.520  12.440
 3098DPPE   C2A59034  15.760  27.010  12.450
 3098DPPE   C3A59035  15.600  27.360  12.510
 3098DPPE   C4A59036  15.320  27.650  12.350
 3098DPPE   C1B59037  15.290  26.230  13.070
 3098DPPE   C2B59038  14.980  26.590  13.250
 3098DPPE   C3B59039  14.520  26.670  13.480
 3098DPPE   C4B59040  14.130  26.810  13.820
 3099DPPE   NH359041   8.580  19.200  12.530
 3099DPPE   PO459042   8.530  18.800  12.650
 3099DPPE   GL159043   8.310  18.560  12.860
 3099DPPE   GL259044   8.150  18.270  12.770
 3099DPPE   C1A59045   8.060  18.420  13.230
 3099DPPE   C2A59046   7.650  18.430  13.320
 3099DPPE   C3A59047   7.200  18.420  13.370
 3099DPPE   C4A59048   6.820  18.630  13.240
 3099DPPE   C1B59049   7.720  18.210  12.880
 3099DPPE   C2B59050   7.340  17.990  13.080
 3099DPPE   C3B59051   6.910  18.000  13.180
 3099DPPE   C4B59052   6.510  18.280  13.110
 3100DPPE   NH359053   9.320   6.500  11.120
 3100DPPE   PO459054   8.860   6.490  11.160
 3100DPPE   GL159055   8.980   6.860  11.350
 3100DPPE   GL259056   9.260   6.880  11.560
 3100DPPE   C1A59057   8.900   7.290  11.400
 3100DPPE   C2A59058   9.050   7.580  11.220
 3100DPPE   C3A59059   9.040   7.850  10.820
 3100DPPE   C4A59060   9.270   8.210  10.650
 3100DPPE   C1B59061   9.500   7.100  11.710
 3100DPPE   C2B59062   9.970   7.230  11.840
 3100DPPE   C3B59063  10.190   7.420  12.130
 3100DPPE   C4B59064  10.480   7.730  12.310
 3101DPPE   NH359065   9.950   9.840  24.920
 3101DPPE   PO459066   9.610   9.980  24.950
 3101DPPE   GL159067   9.780  10.310  24.690
 3101DPPE   GL259068   9.540  10.350  24.430
 3101DPPE   C1A59069  10.030  10.520  24.310
 3101DPPE   C2A59070  10.290  10.790  24.070
 3101DPPE   C3A59071  10.680  10.950  23.840
 3101DPPE   C4A59072  11.010  11.260  23.930
 3101DPPE   C1B59073   9.460  10.700  24.220
 3101DPPE   C2B59074   9.240  10.920  23.920
 3101DPPE   C3B59075   9.230  11.270  23.660
 3101DPPE   C4B59076   9.550  11.490  23.320
 3102DPPE   NH359077   7.130   6.780  19.550
 3102DPPE   PO459078   7.090   7.200  19.770
 3102DPPE   GL159079   7.010   7.340  19.390
 3102DPPE   GL259080   6.690   7.250  19.210
 3102DPPE   C1A59081   7.150   7.740  19.260
 3102DPPE   C2A59082   7.440   7.670  18.950
 3102DPPE   C3A59083   7.800   7.820  18.600
 3102DPPE   C4A59084   8.040   7.590  18.230
 3102DPPE   C1B59085   6.850   7.440  18.960
 3102DPPE   C2B59086   6.850   7.870  18.650
 3102DPPE   C3B59087   6.950   8.310  18.550
 3102DPPE   C4B59088   7.260   8.420  18.210
 3103DPPE   NH359089  13.700  22.340  18.900
 3103DPPE   PO459090  13.920  21.930  18.820
 3103DPPE   GL159091  13.600  21.940  19.210
 3103DPPE   GL259092  13.800  21.790  19.360
 3103DPPE   C1A59093  13.460  22.070  19.700
 3103DPPE   C2A59094  13.460  22.210  20.160
 3103DPPE   C3A59095  13.520  22.450  20.470
 3103DPPE   C4A59096  13.180  22.440  20.700
 3103DPPE   C1B59097  13.890  21.930  19.920
 3103DPPE   C2B59098  13.920  22.120  20.380
 3103DPPE   C3B59099  14.080  22.540  20.450
 3103DPPE   C4B59100  14.120  22.920  20.760
 3104DPPE   NH359101   9.990  18.800   2.010
 3104DPPE   PO459102  10.060  19.110   2.380
 3104DPPE   GL159103  10.310  18.810   2.540
 3104DPPE   GL259104  10.580  18.940   2.650
 3104DPPE   C1A59105  10.370  18.470   2.630
 3104DPPE   C2A59106  10.410  17.950   2.700
 3104DPPE   C3A59107  10.280  17.610   3.050
 3104DPPE   C4A59108  10.410  17.200   3.040
 3104DPPE   C1B59109  10.900  18.610   2.670
 3104DPPE   C2B59110  11.200  18.710   2.910
 3104DPPE   C3B59111  11.620  18.810   2.930
 3104DPPE   C4B59112  12.090  18.770   2.940
 3105DPPE   NH359113  20.990   8.680   3.890
 3105DPPE   PO459114  20.860   8.800   3.640
 3105DPPE   GL159115  20.570   9.030   3.950
 3105DPPE   GL259116  20.720   9.000   4.180
 3105DPPE   C1A59117  20.180   8.810   4.110
 3105DPPE   C2A59118  20.250   8.660   4.410
 3105DPPE   C3A59119  20.670   8.690   4.630
 3105DPPE   C4A59120  21.030   8.770   4.800
 3105DPPE   C1B59121  20.730   9.160   4.600
 3105DPPE   C2B59122  20.570   9.540   4.850
 3105DPPE   C3B59123  20.290   9.540   5.230
 3105DPPE   C4B59124  20.090   9.640   5.660
 3106DPPE   NH359125   5.320  24.860  15.360
 3106DPPE   PO459126   5.210  24.610  15.050
 3106DPPE   GL159127   5.390  24.300  15.310
 3106DPPE   GL259128   5.140  24.150  15.510
 3106DPPE   C1A59129   5.690  23.970  15.400
 3106DPPE   C2A59130   5.840  23.650  15.620
 3106DPPE   C3A59131   6.040  23.240  15.840
 3106DPPE   C4A59132   5.890  23.090  16.200
 3106DPPE   C1B59133   5.250  23.740  15.360
 3106DPPE   C2B59134   5.600  23.380  15.280
 3106DPPE   C3B59135   5.760  22.990  15.160
 3106DPPE   C4B59136   6.020  22.630  15.110
 3107DPPE   NH359137  13.380  14.150  16.740
 3107DPPE   PO459138  13.150  13.770  16.920
 3107DPPE   GL159139  12.820  13.640  17.180
 3107DPPE   GL259140  12.640  13.450  16.880
 3107DPPE   C1A59141  12.440  13.630  17.420
 3107DPPE   C2A59142  12.220  13.420  17.650
 3107DPPE   C3A59143  11.820  13.260  17.910
 3107DPPE   C4A59144  11.870  13.190  18.310
 3107DPPE   C1B59145  12.200  13.350  17.020
 3107DPPE   C2B59146  11.740  13.360  17.000
 3107DPPE   C3B59147  11.410  13.200  17.220
 3107DPPE   C4B59148  10.920  13.310  17.100
 3108DPPE   NH359149   8.930  17.880  12.620
 3108DPPE   PO459150   8.540  17.920  12.290
 3108DPPE   GL159151   8.400  17.770  12.710
 3108DPPE   GL259152   8.070  17.760  12.730
 3108DPPE   C1A59153   8.450  17.390  13.120
 3108DPPE   C2A59154   8.200  17.140  13.300
 3108DPPE   C3A59155   7.810  17.070  13.420
 3108DPPE   C4A59156   7.710  16.770  13.720
 3108DPPE   C1B59157   7.610  17.650  12.870
 3108DPPE   C2B59158   7.160  17.550  12.990
 3108DPPE   C3B59159   6.700  17.530  13.010
 3108DPPE   C4B59160   6.370  17.820  12.990
 3109DPPE   NH359161  17.260  28.490   9.190
 3109DPPE   PO459162  17.270  28.470   8.730
 3109DPPE   GL159163  17.290  28.000   8.840
 3109DPPE   GL259164  17.510  27.860   8.480
 3109DPPE   C1A59165  17.270  27.550   8.970
 3109DPPE   C2A59166  17.250  27.180   9.170
 3109DPPE   C3A59167  17.200  26.950   9.660
 3109DPPE   C4A59168  17.050  27.040  10.020
 3109DPPE   C1B59169  17.450  27.330   8.550
 3109DPPE   C2B59170  17.740  26.950   8.490
 3109DPPE   C3B59171  17.830  26.550   8.410
 3109DPPE   C4B59172  18.100  26.340   8.070
 3110DPPE   NH359173  17.210   9.660  16.000
 3110DPPE   PO459174  17.360   9.440  15.650
 3110DPPE   GL159175  17.490   9.170  15.490
 3110DPPE   GL259176  17.570   9.230  15.210
 3110DPPE   C1A59177  17.700   8.860  15.690
 3110DPPE   C2A59178  17.620   8.660  16.110
 3110DPPE   C3A59179  17.700   8.300  16.320
 3110DPPE   C4A59180  17.700   7.990  16.480
 3110DPPE   C1B59181  17.700   8.830  15.180
 3110DPPE   C2B59182  18.010   8.570  15.420
 3110DPPE   C3B59183  18.180   8.220  15.560
 3110DPPE   C4B59184  17.970   7.810  15.740
 3111DPPE   NH359185  22.190  13.580   7.030
 3111DPPE   PO459186  21.930  13.740   6.780
 3111DPPE   GL159187  22.020  13.490   6.550
 3111DPPE   GL259188  21.730  13.270   6.370
 3111DPPE   C1A59189  22.200  13.360   6.170
 3111DPPE   C2A59190  22.020  13.230   5.690
 3111DPPE   C3A59191  22.230  13.270   5.290
 3111DPPE   C4A59192  22.120  13.330   4.790
 3111DPPE   C1B59193  21.640  13.470   5.970
 3111DPPE   C2B59194  21.580  13.480   5.520
 3111DPPE   C3B59195  21.760  13.410   5.120
 3111DPPE   C4B59196  21.610  13.240   4.770
 3112DPPE   NH359197   3.690  21.500  21.440
 3112DPPE   PO459198   3.890  21.840  21.210
 3112DPPE   GL159199   4.120  21.610  20.930
 3112DPPE   GL259200   4.000  21.400  20.700
 3112DPPE   C1A59201   4.330  21.170  20.940
 3112DPPE   C2A59202   4.590  20.940  21.180
 3112DPPE   C3A59203   4.990  20.910  21.170
 3112DPPE   C4A59204   5.400  21.040  20.990
 3112DPPE   C1B59205   4.200  20.970  20.510
 3112DPPE   C2B59206   4.480  20.720  20.260
 3112DPPE   C3B59207   5.000  20.730  20.380
 3112DPPE   C4B59208   5.360  20.890  20.410
 3113DPPE   NH359209  21.810   7.260   5.580
 3113DPPE   PO459210  21.810   7.740   5.580
 3113DPPE   GL159211  21.430   7.960   5.800
 3113DPPE   GL259212  21.490   7.920   6.150
 3113DPPE   C1A59213  21.030   8.000   5.890
 3113DPPE   C2A59214  20.500   8.110   5.830
 3113DPPE   C3A59215  20.150   8.460   5.890
 3113DPPE   C4A59216  19.730   8.730   5.740
 3113DPPE   C1B59217  21.340   8.380   6.080
 3113DPPE   C2B59218  21.140   8.650   6.390
 3113DPPE   C3B59219  20.890   8.690   6.740
 3113DPPE   C4B59220  20.930   8.930   7.120
 3114DPPE   NH359221   3.830  13.540  21.260
 3114DPPE   PO459222   3.980  13.170  21.600
 3114DPPE   GL159223   4.450  13.280  21.670
 3114DPPE   GL259224   4.360  13.520  21.480
 3114DPPE   C1A59225   4.840  13.460  21.700
 3114DPPE   C2A59226   5.230  13.360  21.560
 3114DPPE   C3A59227   5.530  13.670  21.530
 3114DPPE   C4A59228   5.790  13.970  21.500
 3114DPPE   C1B59229   4.810  13.660  21.210
 3114DPPE   C2B59230   5.020  14.050  20.910
 3114DPPE   C3B59231   5.350  14.320  20.710
 3114DPPE   C4B59232   5.600  14.630  20.820
 3115DPPE   NH359233   3.010  11.360  12.850
 3115DPPE   PO459234   3.040  11.630  12.490
 3115DPPE   GL159235   3.210  11.860  12.880
 3115DPPE   GL259236   3.450  12.160  12.920
 3115DPPE   C1A59237   3.450  11.840  13.260
 3115DPPE   C2A59238   3.470  12.070  13.620
 3115DPPE   C3A59239   3.690  11.990  14.110
 3115DPPE   C4A59240   3.590  11.750  14.510
 3115DPPE   C1B59241   3.590  12.450  13.240
 3115DPPE   C2B59242   3.750  12.830  13.280
 3115DPPE   C3B59243   3.520  13.170  13.650
 3115DPPE   C4B59244   3.300  13.430  14.030
 3116DPPE   NH359245  21.750  12.510   2.250
 3116DPPE   PO459246  22.160  12.690   2.360
 3116DPPE   GL159247  21.920  12.740   2.630
 3116DPPE   GL259248  21.660  12.940   2.520
 3116DPPE   C1A59249  21.960  13.010   2.980
 3116DPPE   C2A59250  21.770  13.380   3.120
 3116DPPE   C3A59251  21.750  13.810   3.280
 3116DPPE   C4A59252  21.600  13.990   3.670
 3116DPPE   C1B59253  21.260  13.040   2.830
 3116DPPE   C2B59254  21.020  12.970   3.220
 3116DPPE   C3B59255  21.050  13.330   3.510
 3116DPPE   C4B59256  20.860  13.400   3.870
 3117DPPE   NH359257  13.590  21.270  27.090
 3117DPPE   PO459258  14.130  21.150  27.260
 3117DPPE   GL159259  14.110  21.190  26.750
 3117DPPE   GL259260  14.350  21.060  26.840
 3117DPPE   C1A59261  14.060  21.090  26.330
 3117DPPE   C2A59262  14.030  21.040  25.910
 3117DPPE   C3A59263  14.190  20.890  25.520
 3117DPPE   C4A59264  14.550  21.130  25.290
 3117DPPE   C1B59265  14.520  20.910  26.410
 3117DPPE   C2B59266  14.330  20.660  26.040
 3117DPPE   C3B59267  14.100  20.370  25.610
 3117DPPE   C4B59268  13.890  20.330  25.140
 3118DPPE   NH359269  13.250  18.860  18.350
 3118DPPE   PO459270  13.020  18.900  17.920
 3118DPPE   GL159271  12.660  18.760  18.150
 3118DPPE   GL259272  12.760  18.780  18.490
 3118DPPE   C1A59273  12.250  18.770  18.220
 3118DPPE   C2A59274  11.850  18.950  18.270
 3118DPPE   C3A59275  11.540  19.220  18.430
 3118DPPE   C4A59276  11.290  19.420  18.490
 3118DPPE   C1B59277  12.430  18.880  18.830
 3118DPPE   C2B59278  11.980  18.960  19.100
 3118DPPE   C3B59279  11.680  19.040  19.400
 3118DPPE   C4B59280  11.380  18.690  19.590
 3119DPPE   NH359281  12.970  29.230  14.980
 3119DPPE   PO459282  13.130  29.230  15.370
 3119DPPE   GL159283  13.130  28.810  15.260
 3119DPPE   GL259284  12.980  28.570  15.200
 3119DPPE   C1A59285  13.440  28.380  15.460
 3119DPPE   C2A59286  13.700  28.290  15.600
 3119DPPE   C3A59287  13.660  28.450  15.940
 3119DPPE   C4A59288  14.010  28.680  16.080
 3119DPPE   C1B59289  13.010  28.200  14.850
 3119DPPE   C2B59290  12.960  27.830  15.040
 3119DPPE   C3B59291  12.800  27.570  15.320
 3119DPPE   C4B59292  12.940  27.670  15.750
 3120DPPE   NH359293  25.000  24.870  16.330
 3120DPPE   PO459294  25.120  25.090  15.910
 3120DPPE   GL159295  24.650  25.130  16.000
 3120DPPE   GL259296  24.450  25.130  15.740
 3120DPPE   C1A59297  24.290  24.930  16.170
 3120DPPE   C2A59298  24.020  24.710  16.520
 3120DPPE   C3A59299  23.680  24.510  16.560
 3120DPPE   C4A59300  23.250  24.680  16.480
 3120DPPE   C1B59301  24.540  24.850  15.430
 3120DPPE   C2B59302  24.740  24.460  15.280
 3120DPPE   C3B59303  24.380  24.100  15.260
 3120DPPE   C4B59304  24.170  23.890  15.070
 3121DPPE   NH359305  12.330   9.830  13.780
 3121DPPE   PO459306  11.950   9.670  13.570
 3121DPPE   GL159307  11.630   9.360  13.660
 3121DPPE   GL259308  11.350   9.490  13.750
 3121DPPE   C1A59309  11.350   8.990  13.840
 3121DPPE   C2A59310  11.420   8.660  14.060
 3121DPPE   C3A59311  11.510   8.500  14.430
 3121DPPE   C4A59312  11.600   8.170  14.830
 3121DPPE   C1B59313  11.440   9.320  14.170
 3121DPPE   C2B59314  11.730   8.960  14.400
 3121DPPE   C3B59315  11.890   8.660  14.790
 3121DPPE   C4B59316  12.070   8.600  15.190
 3122DPPE   NH359317  22.830  13.370  12.320
 3122DPPE   PO459318  23.160  13.200  12.130
 3122DPPE   GL159319  23.570  12.880  12.220
 3122DPPE   GL259320  23.660  12.670  11.920
 3122DPPE   C1A59321  23.930  12.720  12.340
 3122DPPE   C2A59322  24.300  12.490  12.230
 3122DPPE   C3A59323  24.630  12.390  12.030
 3122DPPE   C4A59324  24.910  12.090  12.060
 3122DPPE   C1B59325  23.990  12.420  11.800
 3122DPPE   C2B59326  24.190  12.080  11.860
 3122DPPE   C3B59327  24.500  11.880  11.890
 3122DPPE   C4B59328  24.840  11.670  11.680
 3123DPPE   NH359329  19.100   9.090  20.380
 3123DPPE   PO459330  18.970   8.750  20.500
 3123DPPE   GL159331  18.760   8.910  20.090
 3123DPPE   GL259332  18.490   9.040  20.160
 3123DPPE   C1A59333  18.660   9.170  19.670
 3123DPPE   C2A59334  18.590   9.260  19.210
 3123DPPE   C3A59335  18.830   9.720  19.060
 3123DPPE   C4A59336  19.270   9.710  19.140
 3123DPPE   C1B59337  18.300   9.530  20.050
 3123DPPE   C2B59338  18.000   9.870  19.840
 3123DPPE   C3B59339  17.970  10.010  19.350
 3123DPPE   C4B59340  18.130  10.140  18.900
 3124DPPE   NH359341  20.980  12.610  16.760
 3124DPPE   PO459342  21.290  12.940  16.880
 3124DPPE   GL159343  21.700  13.050  16.880
 3124DPPE   GL259344  21.820  12.830  16.710
 3124DPPE   C1A59345  21.970  12.960  17.240
 3124DPPE   C2A59346  22.190  12.600  17.430
 3124DPPE   C3A59347  22.330  12.270  17.620
 3124DPPE   C4A59348  22.720  12.090  17.910
 3124DPPE   C1B59349  22.300  12.690  16.950
 3124DPPE   C2B59350  22.580  12.410  17.150
 3124DPPE   C3B59351  22.920  12.390  17.400
 3124DPPE   C4B59352  23.130  12.390  17.840
 3125DPPE   NH359353  11.680  26.830  19.340
 3125DPPE   PO459354  11.520  26.640  19.600
 3125DPPE   GL159355  11.640  26.230  19.730
 3125DPPE   GL259356  11.780  26.260  20.150
 3125DPPE   C1A59357  11.550  25.850  19.880
 3125DPPE   C2A59358  11.670  25.520  20.090
 3125DPPE   C3A59359  11.490  25.120  20.270
 3125DPPE   C4A59360  11.120  25.020  20.590
 3125DPPE   C1B59361  12.030  25.980  20.190
 3125DPPE   C2B59362  12.140  25.570  20.220
 3125DPPE   C3B59363  12.030  25.140  20.030
 3125DPPE   C4B59364  12.050  24.620  19.870
 3126DPPE   NH359365  24.800  25.960  12.080
 3126DPPE   PO459366  25.170  25.750  12.050
 3126DPPE   GL159367  25.080  25.270  11.870
 3126DPPE   GL259368  25.240  25.100  12.070
 3126DPPE   C1A59369  24.910  24.810  11.720
 3126DPPE   C2A59370  24.550  24.540  11.920
 3126DPPE   C3A59371  24.320  24.220  12.090
 3126DPPE   C4A59372  24.160  23.850  12.250
 3126DPPE   C1B59373  25.070  24.870  12.370
 3126DPPE   C2B59374  24.630  24.650  12.470
 3126DPPE   C3B59375  24.340  24.550  12.490
 3126DPPE   C4B59376  23.920  24.390  12.590
 3127DPPE   NH359377  12.030  11.490  13.590
 3127DPPE   PO459378  11.830  11.090  13.550
 3127DPPE   GL159379  11.650  10.770  13.560
 3127DPPE   GL259380  11.630  10.570  13.900
 3127DPPE   C1A59381  11.250  10.780  13.660
 3127DPPE   C2A59382  10.930  10.450  13.650
 3127DPPE   C3A59383  10.690  10.060  13.550
 3127DPPE   C4A59384  10.480   9.800  13.130
 3127DPPE   C1B59385  11.210  10.280  14.030
 3127DPPE   C2B59386  11.080  10.150  14.420
 3127DPPE   C3B59387  10.780   9.940  14.650
 3127DPPE   C4B59388  10.410   9.660  14.680
 3128DPPE   NH359389  15.370  29.190  10.990
 3128DPPE   PO459390  15.650  28.950  10.680
 3128DPPE   GL159391  15.520  28.690  11.020
 3128DPPE   GL259392  15.210  28.610  11.050
 3128DPPE   C1A59393  15.650  28.460  11.320
 3128DPPE   C2A59394  16.040  28.220  11.370
 3128DPPE   C3A59395  16.100  27.890  11.040
 3128DPPE   C4A59396  16.240  27.890  10.720
 3128DPPE   C1B59397  15.260  28.180  10.900
 3128DPPE   C2B59398  15.240  27.710  11.060
 3128DPPE   C3B59399  15.100  27.320  11.310
 3128DPPE   C4B59400  15.130  26.980  11.650
 3129DPPE   NH359401  12.440  27.720   8.590
 3129DPPE   PO459402  12.050  27.500   8.880
 3129DPPE   GL159403  12.260  27.070   8.880
 3129DPPE   GL259404  11.970  26.890   9.010
 3129DPPE   C1A59405  12.550  27.020   8.770
 3129DPPE   C2A59406  12.770  26.770   9.060
 3129DPPE   C3A59407  13.170  26.780   9.300
 3129DPPE   C4A59408  13.390  27.060   9.620
 3129DPPE   C1B59409  12.260  26.790   9.370
 3129DPPE   C2B59410  12.380  27.190   9.520
 3129DPPE   C3B59411  12.620  27.550   9.640
 3129DPPE   C4B59412  13.120  27.500   9.740
 3130DPPE   NH359413  14.910   5.780  16.840
 3130DPPE   PO459414  14.860   5.650  17.270
 3130DPPE   GL159415  14.860   6.140  17.190
 3130DPPE   GL259416  15.020   6.250  16.800
 3130DPPE   C1A59417  14.720   6.560  17.030
 3130DPPE   C2A59418  14.940   6.910  17.200
 3130DPPE   C3A59419  15.010   7.480  17.020
 3130DPPE   C4A59420  14.720   7.810  16.850
 3130DPPE   C1B59421  15.120   6.650  16.720
 3130DPPE   C2B59422  14.990   7.070  16.700
 3130DPPE   C3B59423  14.610   7.300  16.730
 3130DPPE   C4B59424  14.220   7.480  16.510
 3131DPPE   NH359425   3.490  22.520  20.730
 3131DPPE   PO459426   3.820  22.880  20.930
 3131DPPE   GL159427   4.070  22.970  20.590
 3131DPPE   GL259428   3.790  22.850  20.400
 3131DPPE   C1A59429   4.470  22.960  20.550
 3131DPPE   C2A59430   4.860  23.030  20.800
 3131DPPE   C3A59431   5.030  23.330  21.020
 3131DPPE   C4A59432   5.020  23.730  21.150
 3131DPPE   C1B59433   4.210  22.780  20.130
 3131DPPE   C2B59434   4.620  22.670  20.100
 3131DPPE   C3B59435   5.080  22.680  19.970
 3131DPPE   C4B59436   5.360  22.600  19.660
 3132DPPE   NH359437   5.650  23.090  11.650
 3132DPPE   PO459438   5.410  22.750  11.750
 3132DPPE   GL159439   5.660  22.360  12.000
 3132DPPE   GL259440   5.510  22.210  12.370
 3132DPPE   C1A59441   6.100  22.090  12.060
 3132DPPE   C2A59442   6.380  21.660  11.990
 3132DPPE   C3A59443   6.790  21.530  12.200
 3132DPPE   C4A59444   7.030  21.290  12.080
 3132DPPE   C1B59445   5.700  21.850  12.530
 3132DPPE   C2B59446   5.760  21.440  12.650
 3132DPPE   C3B59447   6.010  21.140  12.770
 3132DPPE   C4B59448   6.140  20.790  12.400
 3133DPPE   NH359449  27.860  18.540  14.720
 3133DPPE   PO459450  27.730  18.130  14.730
 3133DPPE   GL159451  27.350  18.360  14.730
 3133DPPE   GL259452  27.140  18.260  15.070
 3133DPPE   C1A59453  27.090  18.520  14.420
 3133DPPE   C2A59454  26.780  18.840  14.380
 3133DPPE   C3A59455  26.300  18.790  14.550
 3133DPPE   C4A59456  26.000  18.980  14.760
 3133DPPE   C1B59457  26.700  18.340  14.740
 3133DPPE   C2B59458  26.420  18.040  14.610
 3133DPPE   C3B59459  25.980  18.040  14.570
 3133DPPE   C4B59460  25.560  18.090  14.680
 3134DPPE   NH359461  19.230  27.780  18.280
 3134DPPE   PO459462  19.700  27.960  18.230
 3134DPPE   GL159463  19.680  27.620  18.070
 3134DPPE   GL259464  19.810  27.350  17.940
 3134DPPE   C1A59465  19.340  27.320  17.830
 3134DPPE   C2A59466  19.530  26.890  17.670
 3134DPPE   C3A59467  19.640  26.680  17.310
 3134DPPE   C4A59468  19.860  27.020  16.970
 3134DPPE   C1B59469  20.050  27.060  17.860
 3134DPPE   C2B59470  20.090  26.600  17.570
 3134DPPE   C3B59471  20.150  26.160  17.520
 3134DPPE   C4B59472  20.220  25.720  17.660
 3135DPPE   NH359473  15.790  11.490  17.290
 3135DPPE   PO459474  15.600  11.560  16.980
 3135DPPE   GL159475  15.400  11.200  17.190
 3135DPPE   GL259476  15.190  10.900  17.160
 3135DPPE   C1A59477  15.100  11.220  17.520
 3135DPPE   C2A59478  15.060  10.920  17.860
 3135DPPE   C3A59479  15.060  10.830  18.290
 3135DPPE   C4A59480  14.930  11.030  18.690
 3135DPPE   C1B59481  15.020  10.730  17.390
 3135DPPE   C2B59482  15.130  10.490  17.770
 3135DPPE   C3B59483  15.120  10.110  17.940
 3135DPPE   C4B59484  14.990   9.760  18.050
 3136DPPE   NH359485  23.040  20.470  14.520
 3136DPPE   PO459486  22.980  20.350  14.880
 3136DPPE   GL159487  23.190  20.620  15.010
 3136DPPE   GL259488  23.320  20.820  14.750
 3136DPPE   C1A59489  23.610  20.700  15.270
 3136DPPE   C2A59490  24.030  20.710  15.320
 3136DPPE   C3A59491  24.490  20.700  15.450
 3136DPPE   C4A59492  24.860  20.850  15.470
 3136DPPE   C1B59493  23.740  21.040  14.820
 3136DPPE   C2B59494  24.090  21.120  15.030
 3136DPPE   C3B59495  24.390  21.140  15.330
 3136DPPE   C4B59496  24.570  21.410  15.430
 3137DPPE   NH359497  23.510  14.060   2.550
 3137DPPE   PO459498  23.490  13.780   2.290
 3137DPPE   GL159499  23.070  13.850   2.350
 3137DPPE   GL259500  23.000  13.850   2.610
 3137DPPE   C1A59501  22.630  14.100   2.360
 3137DPPE   C2A59502  22.110  14.020   2.340
 3137DPPE   C3A59503  21.780  13.930   2.630
 3137DPPE   C4A59504  21.350  13.910   2.800
 3137DPPE   C1B59505  22.880  14.150   2.820
 3137DPPE   C2B59506  22.670  14.290   3.190
 3137DPPE   C3B59507  22.390  14.470   3.410
 3137DPPE   C4B59508  22.040  14.330   3.570
 3138DPPE   NH359509   3.670  19.830  11.250
 3138DPPE   PO459510   3.310  19.720  11.480
 3138DPPE   GL159511   3.720  19.540  11.630
 3138DPPE   GL259512   4.010  19.660  11.560
 3138DPPE   C1A59513   3.900  19.160  11.690
 3138DPPE   C2A59514   4.180  19.000  11.980
 3138DPPE   C3A59515   4.280  18.790  12.330
 3138DPPE   C4A59516   4.290  18.770  12.770
 3138DPPE   C1B59517   4.420  19.710  11.770
 3138DPPE   C2B59518   4.900  19.630  11.700
 3138DPPE   C3B59519   5.280  19.670  11.590
 3138DPPE   C4B59520   5.570  19.550  11.290
 3139DPPE   NH359521  16.860  23.440  24.320
 3139DPPE   PO459522  16.740  23.540  23.970
 3139DPPE   GL159523  16.660  23.370  23.570
 3139DPPE   GL259524  16.920  23.260  23.340
 3139DPPE   C1A59525  16.320  23.230  23.330
 3139DPPE   C2A59526  15.950  22.950  23.270
 3139DPPE   C3A59527  15.640  22.600  23.270
 3139DPPE   C4A59528  15.400  22.300  23.050
 3139DPPE   C1B59529  16.670  22.920  23.200
 3139DPPE   C2B59530  16.390  22.810  23.010
 3139DPPE   C3B59531  16.030  22.690  22.900
 3139DPPE   C4B59532  15.630  22.590  22.730
 3140DPPE   NH359533  19.130  24.040  10.150
 3140DPPE   PO459534  19.240  23.780   9.760
 3140DPPE   GL159535  19.370  24.160   9.580
 3140DPPE   GL259536  19.230  24.150   9.330
 3140DPPE   C1A59537  19.430  24.590   9.460
 3140DPPE   C2A59538  19.530  24.950   9.110
 3140DPPE   C3A59539  19.480  25.270   8.750
 3140DPPE   C4A59540  19.450  25.560   8.440
 3140DPPE   C1B59541  19.210  24.410   9.010
 3140DPPE   C2B59542  19.290  24.740   8.690
 3140DPPE   C3B59543  19.390  25.000   8.270
 3140DPPE   C4B59544  19.690  25.200   8.030
 3141DPPE   NH359545  15.240  13.390  17.640
 3141DPPE   PO459546  15.320  13.590  17.950
 3141DPPE   GL159547  15.480  13.420  18.360
 3141DPPE   GL259548  15.460  13.090  18.530
 3141DPPE   C1A59549  15.080  13.440  18.710
 3141DPPE   C2A59550  15.250  13.500  19.120
 3141DPPE   C3A59551  15.120  13.400  19.530
 3141DPPE   C4A59552  15.240  13.380  19.910
 3141DPPE   C1B59553  15.300  12.910  18.880
 3141DPPE   C2B59554  15.010  12.860  19.200
 3141DPPE   C3B59555  14.670  12.630  19.510
 3141DPPE   C4B59556  14.630  12.310  19.630
 3142DPPE   NH359557  18.520  25.150  14.020
 3142DPPE   PO459558  18.960  25.120  13.990
 3142DPPE   GL159559  19.390  25.250  14.000
 3142DPPE   GL259560  19.470  25.410  14.290
 3142DPPE   C1A59561  19.710  25.670  13.840
 3142DPPE   C2A59562  19.950  26.000  13.890
 3142DPPE   C3A59563  20.210  26.340  13.950
 3142DPPE   C4A59564  20.680  26.460  14.040
 3142DPPE   C1B59565  19.510  25.880  14.450
 3142DPPE   C2B59566  19.550  26.310  14.450
 3142DPPE   C3B59567  19.560  26.660  14.430
 3142DPPE   C4B59568  19.890  26.920  14.460
 3143DPPE   NH359569   2.660  18.820  21.810
 3143DPPE   PO459570   3.030  18.600  21.690
 3143DPPE   GL159571   3.370  18.580  21.480
 3143DPPE   GL259572   3.510  18.780  21.330
 3143DPPE   C1A59573   3.780  18.350  21.430
 3143DPPE   C2A59574   3.980  18.170  21.080
 3143DPPE   C3A59575   4.190  18.190  20.670
 3143DPPE   C4A59576   4.410  18.060  20.360
 3143DPPE   C1B59577   3.570  19.130  21.100
 3143DPPE   C2B59578   3.820  19.420  20.910
 3143DPPE   C3B59579   4.080  19.740  20.650
 3143DPPE   C4B59580   4.490  19.890  20.500
 3144DPPE   NH359581  11.910   4.540  17.270
 3144DPPE   PO459582  11.870   4.930  17.120
 3144DPPE   GL159583  11.940   5.420  17.070
 3144DPPE   GL259584  12.240   5.580  16.960
 3144DPPE   C1A59585  11.770   5.790  17.050
 3144DPPE   C2A59586  11.610   6.180  17.040
 3144DPPE   C3A59587  11.350   6.550  16.950
 3144DPPE   C4A59588  11.170   6.930  16.810
 3144DPPE   C1B59589  12.220   5.970  17.110
 3144DPPE   C2B59590  12.020   6.270  17.430
 3144DPPE   C3B59591  12.120   6.700  17.590
 3144DPPE   C4B59592  11.910   6.930  17.510
 3145DPPE   NH359593   6.850   6.500  12.480
 3145DPPE   PO459594   6.920   6.960  12.170
 3145DPPE   GL159595   7.090   7.230  12.460
 3145DPPE   GL259596   7.090   7.540  12.250
 3145DPPE   C1A59597   7.390   7.410  12.820
 3145DPPE   C2A59598   7.690   7.680  12.860
 3145DPPE   C3A59599   8.070   7.950  12.890
 3145DPPE   C4A59600   8.410   8.250  12.760
 3145DPPE   C1B59601   7.390   7.830  12.360
 3145DPPE   C2B59602   7.370   8.040  12.750
 3145DPPE   C3B59603   7.560   8.400  12.880
 3145DPPE   C4B59604   7.610   8.750  13.120
 3146DPPE   NH359605   6.600  13.650  25.420
 3146DPPE   PO459606   6.880  14.010  25.430
 3146DPPE   GL159607   7.240  14.160  25.150
 3146DPPE   GL259608   7.220  14.050  24.790
 3146DPPE   C1A59609   7.610  14.000  25.140
 3146DPPE   C2A59610   7.810  13.890  24.850
 3146DPPE   C3A59611   8.140  13.750  24.570
 3146DPPE   C4A59612   8.050  13.340  24.250
 3146DPPE   C1B59613   7.520  14.230  24.550
 3146DPPE   C2B59614   7.730  14.540  24.430
 3146DPPE   C3B59615   8.030  14.840  24.360
 3146DPPE   C4B59616   8.270  15.190  24.210
 3147DPPE   NH359617  11.760  28.330  16.250
 3147DPPE   PO459618  11.730  28.410  15.880
 3147DPPE   GL159619  12.140  28.210  15.970
 3147DPPE   GL259620  12.420  28.150  15.810
 3147DPPE   C1A59621  12.380  27.860  16.200
 3147DPPE   C2A59622  12.680  27.590  16.180
 3147DPPE   C3A59623  12.920  27.320  16.060
 3147DPPE   C4A59624  13.100  27.220  15.660
 3147DPPE   C1B59625  12.420  27.670  15.690
 3147DPPE   C2B59626  12.540  27.260  15.610
 3147DPPE   C3B59627  12.670  26.870  15.630
 3147DPPE   C4B59628  12.940  26.450  15.560
 3148DPPE   NH359629  12.860  15.800  18.090
 3148DPPE   PO459630  13.030  15.480  17.720
 3148DPPE   GL159631  12.630  15.290  17.970
 3148DPPE   GL259632  12.640  15.080  18.310
 3148DPPE   C1A59633  12.130  15.230  18.060
 3148DPPE   C2A59634  11.760  15.130  18.420
 3148DPPE   C3A59635  11.430  14.870  18.750
 3148DPPE   C4A59636  11.060  14.700  18.930
 3148DPPE   C1B59637  12.220  14.980  18.510
 3148DPPE   C2B59638  11.900  14.780  18.870
 3148DPPE   C3B59639  11.800  15.070  19.130
 3148DPPE   C4B59640  11.920  15.500  19.190
 3149DPPE   NH359641   8.990  20.140  10.170
 3149DPPE   PO459642   8.970  19.840  10.450
 3149DPPE   GL159643   8.540  20.090  10.430
 3149DPPE   GL259644   8.570  20.400  10.300
 3149DPPE   C1A59645   8.090  20.090  10.350
 3149DPPE   C2A59646   7.780  20.300  10.480
 3149DPPE   C3A59647   7.290  20.270  10.430
 3149DPPE   C4A59648   7.100  20.010  10.100
 3149DPPE   C1B59649   8.660  20.770  10.500
 3149DPPE   C2B59650   8.390  21.050  10.540
 3149DPPE   C3B59651   7.990  21.210  10.560
 3149DPPE   C4B59652   7.590  21.190  10.480
 3150DPPE   NH359653  10.220  15.720  14.290
 3150DPPE   PO459654  10.220  16.070  14.640
 3150DPPE   GL159655   9.800  16.290  14.810
 3150DPPE   GL259656   9.740  16.610  14.940
 3150DPPE   C1A59657   9.400  16.360  15.180
 3150DPPE   C2A59658   9.020  16.540  15.200
 3150DPPE   C3A59659   8.830  16.700  15.590
 3150DPPE   C4A59660   8.920  16.740  16.120
 3150DPPE   C1B59661   9.370  16.800  14.870
 3150DPPE   C2B59662   8.980  16.690  14.660
 3150DPPE   C3B59663   8.560  16.600  14.470
 3150DPPE   C4B59664   8.260  16.360  14.560
 3151DPPE   NH359665   5.180  13.670   8.420
 3151DPPE   PO459666   5.060  14.110   8.720
 3151DPPE   GL159667   5.490  14.100   8.610
 3151DPPE   GL259668   5.660  13.820   8.590
 3151DPPE   C1A59669   5.860  14.300   8.620
 3151DPPE   C2A59670   6.210  14.570   8.440
 3151DPPE   C3A59671   6.570  14.670   8.310
 3151DPPE   C4A59672   6.980  14.640   8.190
 3151DPPE   C1B59673   5.990  13.880   8.880
 3151DPPE   C2B59674   6.170  14.240   9.020
 3151DPPE   C3B59675   6.340  14.580   8.880
 3151DPPE   C4B59676   6.790  14.790   8.850
 3152DPPE   NH359677  12.450  23.240  17.690
 3152DPPE   PO459678  12.590  22.800  17.650
 3152DPPE   GL159679  12.260  22.740  18.020
 3152DPPE   GL259680  12.290  23.130  18.220
 3152DPPE   C1A59681  11.780  22.710  18.160
 3152DPPE   C2A59682  11.560  22.850  18.400
 3152DPPE   C3A59683  11.120  22.790  18.500
 3152DPPE   C4A59684  10.680  22.760  18.510
 3152DPPE   C1B59685  11.830  23.380  18.090
 3152DPPE   C2B59686  11.480  23.730  18.120
 3152DPPE   C3B59687  11.070  23.690  18.210
 3152DPPE   C4B59688  10.730  23.500  18.410
 3153DPPE   NH359689  11.980   4.420  19.210
 3153DPPE   PO459690  11.670   4.510  19.490
 3153DPPE   GL159691  11.770   4.840  19.240
 3153DPPE   GL259692  11.850   4.860  18.900
 3153DPPE   C1A59693  12.240   5.040  19.120
 3153DPPE   C2A59694  12.480   5.370  19.300
 3153DPPE   C3A59695  12.630   5.580  19.490
 3153DPPE   C4A59696  12.850   5.990  19.430
 3153DPPE   C1B59697  11.910   5.380  18.790
 3153DPPE   C2B59698  11.780   5.730  18.640
 3153DPPE   C3B59699  11.730   6.070  18.250
 3153DPPE   C4B59700  11.750   6.490  17.950
 3154DPPE   NH359701  14.230  15.120  31.320
 3154DPPE   PO459702  14.360  14.750   0.090
 3154DPPE   GL159703  14.450  14.840   0.500
 3154DPPE   GL259704  14.250  15.060   0.510
 3154DPPE   C1A59705  14.680  14.900   0.960
 3154DPPE   C2A59706  14.640  15.150   1.240
 3154DPPE   C3A59707  14.700  15.450   1.520
 3154DPPE   C4A59708  14.580  15.280   1.860
 3154DPPE   C1B59709  14.050  15.410   0.610
 3154DPPE   C2B59710  13.710  15.350   1.000
 3154DPPE   C3B59711  13.720  15.470   1.390
 3154DPPE   C4B59712  13.560  15.620   1.760
 3155DPPE   NH359713   4.890  22.010  22.930
 3155DPPE   PO459714   5.250  22.210  23.110
 3155DPPE   GL159715   5.570  22.210  22.770
 3155DPPE   GL259716   5.750  22.610  22.770
 3155DPPE   C1A59717   6.000  22.230  22.500
 3155DPPE   C2A59718   6.110  22.090  22.040
 3155DPPE   C3A59719   5.950  21.950  21.620
 3155DPPE   C4A59720   5.770  22.140  21.250
 3155DPPE   C1B59721   6.060  22.730  22.550
 3155DPPE   C2B59722   6.310  22.860  22.290
 3155DPPE   C3B59723   6.670  22.700  22.010
 3155DPPE   C4B59724   6.510  22.540  21.630
 3156DPPE   NH359725   5.920  22.800  23.580
 3156DPPE   PO459726   5.850  22.940  23.170
 3156DPPE   GL159727   6.170  23.160  23.000
 3156DPPE   GL259728   6.220  23.470  23.190
 3156DPPE   C1A59729   6.370  23.030  22.750
 3156DPPE   C2A59730   6.700  22.880  22.570
 3156DPPE   C3A59731   7.030  22.650  22.440
 3156DPPE   C4A59732   7.120  22.380  22.110
 3156DPPE   C1B59733   6.430  23.590  22.840
 3156DPPE   C2B59734   6.820  23.490  22.550
 3156DPPE   C3B59735   6.860  23.300  22.240
 3156DPPE   C4B59736   7.100  23.000  22.080
 3157DPPE   NH359737  26.530  10.410  10.670
 3157DPPE   PO459738  26.500  10.060  10.340
 3157DPPE   GL159739  26.110  10.320  10.470
 3157DPPE   GL259740  25.780  10.130  10.650
 3157DPPE   C1A59741  25.900  10.580  10.340
 3157DPPE   C2A59742  25.800  10.940  10.570
 3157DPPE   C3A59743  25.370  11.190  10.570
 3157DPPE   C4A59744  25.060  11.440  10.650
 3157DPPE   C1B59745  25.640  10.510  10.820
 3157DPPE   C2B59746  25.420  10.830  10.930
 3157DPPE   C3B59747  25.150  11.110  11.050
 3157DPPE   C4B59748  25.080  11.390  11.320
 3158DPPE   NH359749  17.110   9.490  15.190
 3158DPPE   PO459750  16.660   9.260  15.220
 3158DPPE   GL159751  16.750   8.830  15.240
 3158DPPE   GL259752  17.050   8.980  15.420
 3158DPPE   C1A59753  16.810   8.400  15.290
 3158DPPE   C2A59754  17.110   8.120  15.400
 3158DPPE   C3A59755  17.220   7.660  15.290
 3158DPPE   C4A59756  17.210   7.690  14.760
 3158DPPE   C1B59757  17.140   8.690  15.680
 3158DPPE   C2B59758  17.210   8.420  15.960
 3158DPPE   C3B59759  17.150   8.160  16.340
 3158DPPE   C4B59760  17.280   7.780  16.470
 3159DPPE   NH359761   7.030  26.630  19.930
 3159DPPE   PO459762   7.460  26.660  19.730
 3159DPPE   GL159763   7.430  26.300  19.730
 3159DPPE   GL259764   7.470  26.100  19.940
 3159DPPE   C1A59765   7.320  26.030  19.430
 3159DPPE   C2A59766   7.080  25.700  19.290
 3159DPPE   C3A59767   6.780  25.340  19.530
 3159DPPE   C4A59768   6.730  24.890  19.450
 3159DPPE   C1B59769   7.770  25.770  20.010
 3159DPPE   C2B59770   7.940  25.430  20.130
 3159DPPE   C3B59771   8.440  25.220  20.170
 3159DPPE   C4B59772   8.770  25.330  19.980
 3160DPPE   NH359773  25.060  23.630  17.530
 3160DPPE   PO459774  25.050  23.190  17.470
 3160DPPE   GL159775  24.760  22.970  17.320
 3160DPPE   GL259776  24.820  22.790  17.080
 3160DPPE   C1A59777  24.360  22.870  17.010
 3160DPPE   C2A59778  24.230  23.000  16.570
 3160DPPE   C3A59779  23.820  22.990  16.410
 3160DPPE   C4A59780  23.520  22.760  16.590
 3160DPPE   C1B59781  24.760  22.890  16.640
 3160DPPE   C2B59782  24.650  23.080  16.280
 3160DPPE   C3B59783  24.270  23.030  16.090
 3160DPPE   C4B59784  23.990  22.770  15.910
 3161DPPE   NH359785   3.580  11.870  20.450
 3161DPPE   PO459786   3.490  11.910  20.090
 3161DPPE   GL159787   3.860  11.820  19.880
 3161DPPE   GL259788   3.970  12.110  19.900
 3161DPPE   C1A59789   4.360  11.810  19.680
 3161DPPE   C2A59790   4.710  12.130  19.640
 3161DPPE   C3A59791   5.080  12.410  19.490
 3161DPPE   C4A59792   5.130  12.820  19.570
 3161DPPE   C1B59793   4.290  12.370  19.680
 3161DPPE   C2B59794   4.610  12.630  19.500
 3161DPPE   C3B59795   4.810  13.130  19.350
 3161DPPE   C4B59796   4.860  13.460  19.370
 3162DPPE   NH359797   4.630  20.650   9.040
 3162DPPE   PO459798   4.980  20.790   9.210
 3162DPPE   GL159799   5.200  20.480   9.400
 3162DPPE   GL259800   5.300  20.620   9.650
 3162DPPE   C1A59801   5.590  20.320   9.340
 3162DPPE   C2A59802   5.890  20.080   9.650
 3162DPPE   C3A59803   6.180  20.080  10.040
 3162DPPE   C4A59804   6.620  20.210  10.000
 3162DPPE   C1B59805   5.690  20.550   9.770
 3162DPPE   C2B59806   6.100  20.500   9.770
 3162DPPE   C3B59807   6.440  20.490   9.590
 3162DPPE   C4B59808   6.760  20.700   9.330
 3163DPPE   NH359809  14.880   5.390  15.870
 3163DPPE   PO459810  14.430   5.540  15.690
 3163DPPE   GL159811  14.510   5.940  15.690
 3163DPPE   GL259812  14.260   6.000  15.440
 3163DPPE   C1A59813  14.580   6.390  15.520
 3163DPPE   C2A59814  14.560   6.620  15.160
 3163DPPE   C3A59815  14.620   7.070  15.070
 3163DPPE   C4A59816  14.250   7.370  14.800
 3163DPPE   C1B59817  14.010   6.290  15.220
 3163DPPE   C2B59818  14.070   6.680  15.120
 3163DPPE   C3B59819  14.050   7.090  15.110
 3163DPPE   C4B59820  13.870   7.500  15.160
 3164DPPE   NH359821  27.750  16.340  14.890
 3164DPPE   PO459822  27.810  16.690  14.660
 3164DPPE   GL159823  27.410  16.610  14.570
 3164DPPE   GL259824  27.250  16.790  14.760
 3164DPPE   C1A59825  26.990  16.560  14.400
 3164DPPE   C2A59826  26.570  16.570  14.560
 3164DPPE   C3A59827  26.140  16.690  14.860
 3164DPPE   C4A59828  25.800  16.480  14.850
 3164DPPE   C1B59829  26.970  17.030  14.410
 3164DPPE   C2B59830  26.470  17.130  14.480
 3164DPPE   C3B59831  26.010  17.010  14.550
 3164DPPE   C4B59832  25.660  16.920  14.600
 3165DPPE   NH359833  13.270  17.660  17.820
 3165DPPE   PO459834  13.230  17.560  18.330
 3165DPPE   GL159835  13.190  17.660  18.720
 3165DPPE   GL259836  13.320  17.760  18.910
 3165DPPE   C1A59837  13.020  17.360  19.010
 3165DPPE   C2A59838  12.800  17.280  19.280
 3165DPPE   C3A59839  12.460  17.150  19.560
 3165DPPE   C4A59840  12.270  16.950  19.850
 3165DPPE   C1B59841  13.030  17.760  19.290
 3165DPPE   C2B59842  12.710  17.700  19.520
 3165DPPE   C3B59843  12.310  17.600  19.720
 3165DPPE   C4B59844  12.170  17.390  20.060
 3166DPPE   NH359845  11.120  16.360   1.550
 3166DPPE   PO459846  11.270  15.960   1.370
 3166DPPE   GL159847  11.590  16.190   1.690
 3166DPPE   GL259848  11.530  16.490   1.910
 3166DPPE   C1A59849  11.840  16.180   2.150
 3166DPPE   C2A59850  11.960  16.280   2.600
 3166DPPE   C3A59851  12.270  16.510   2.750
 3166DPPE   C4A59852  12.590  16.660   2.880
 3166DPPE   C1B59853  11.560  16.560   2.450
 3166DPPE   C2B59854  11.410  16.610   2.780
 3166DPPE   C3B59855  11.160  16.530   3.230
 3166DPPE   C4B59856  11.150  16.580   3.700
 3167DPPE   NH359857   8.830   8.670  23.880
 3167DPPE   PO459858   9.060   9.080  23.890
 3167DPPE   GL159859   9.340   9.450  23.740
 3167DPPE   GL259860   9.350   9.720  23.910
 3167DPPE   C1A59861   9.710   9.730  23.570
 3167DPPE   C2A59862  10.030  10.130  23.600
 3167DPPE   C3A59863  10.260  10.440  23.760
 3167DPPE   C4A59864  10.640  10.300  23.990
 3167DPPE   C1B59865   9.640  10.070  23.990
 3167DPPE   C2B59866   9.770  10.590  23.870
 3167DPPE   C3B59867   9.620  10.850  23.570
 3167DPPE   C4B59868   9.800  11.070  23.240
 3168DPPE   NH359869   2.020  17.800  19.810
 3168DPPE   PO459870   2.010  17.600  19.590
 3168DPPE   GL159871   2.200  17.730  19.350
 3168DPPE   GL259872   2.130  17.430  19.110
 3168DPPE   C1A59873   2.380  17.840  18.950
 3168DPPE   C2A59874   2.410  18.160  18.600
 3168DPPE   C3A59875   2.560  18.180  18.170
 3168DPPE   C4A59876   2.710  18.180  17.790
 3168DPPE   C1B59877   2.390  17.400  18.700
 3168DPPE   C2B59878   2.710  17.680  18.590
 3168DPPE   C3B59879   2.990  18.020  18.400
 3168DPPE   C4B59880   3.250  18.430  18.440
 3169DPPE   NH359881  14.680  11.130  15.450
 3169DPPE   PO459882  14.450  10.890  15.680
 3169DPPE   GL159883  14.050  10.860  16.010
 3169DPPE   GL259884  13.950  10.550  16.230
 3169DPPE   C1A59885  13.700  10.950  16.410
 3169DPPE   C2A59886  13.370  11.020  16.620
 3169DPPE   C3A59887  13.010  10.700  16.550
 3169DPPE   C4A59888  12.680  10.750  16.550
 3169DPPE   C1B59889  13.700  10.260  16.230
 3169DPPE   C2B59890  13.320  10.080  16.370
 3169DPPE   C3B59891  13.080  10.200  16.580
 3169DPPE   C4B59892  12.850  10.220  16.880
 3170DPPE   NH359893  15.260  16.070  19.360
 3170DPPE   PO459894  15.500  16.000  19.680
 3170DPPE   GL159895  15.250  15.720  19.780
 3170DPPE   GL259896  15.100  15.510  19.560
 3170DPPE   C1A59897  15.230  15.400  20.070
 3170DPPE   C2A59898  15.110  15.300  20.440
 3170DPPE   C3A59899  15.170  15.130  20.790
 3170DPPE   C4A59900  15.300  15.010  21.250
 3170DPPE   C1B59901  14.720  15.320  19.740
 3170DPPE   C2B59902  14.350  15.160  19.700
 3170DPPE   C3B59903  14.200  14.980  19.920
 3170DPPE   C4B59904  14.430  14.820  20.180
 3171DPPE   NH359905  16.190   7.420  24.680
 3171DPPE   PO459906  15.990   7.790  24.890
 3171DPPE   GL159907  15.990   8.210  24.850
 3171DPPE   GL259908  16.220   8.400  24.910
 3171DPPE   C1A59909  15.790   8.340  24.530
 3171DPPE   C2A59910  15.640   8.790  24.460
 3171DPPE   C3A59911  15.650   9.150  24.060
 3171DPPE   C4A59912  15.930   9.310  23.790
 3171DPPE   C1B59913  16.170   8.770  24.760
 3171DPPE   C2B59914  16.510   9.060  24.710
 3171DPPE   C3B59915  16.880   9.440  24.510
 3171DPPE   C4B59916  16.850   9.790  24.330
 3172DPPE   NH359917  10.270  17.310  13.940
 3172DPPE   PO459918   9.900  17.360  14.100
 3172DPPE   GL159919   9.530  17.520  14.250
 3172DPPE   GL259920   9.580  17.640  14.480
 3172DPPE   C1A59921   9.220  17.270  14.400
 3172DPPE   C2A59922   8.840  17.010  14.230
 3172DPPE   C3A59923   8.490  17.160  14.190
 3172DPPE   C4A59924   8.200  17.540  14.090
 3172DPPE   C1B59925   9.360  17.780  14.810
 3172DPPE   C2B59926   9.120  17.610  15.230
 3172DPPE   C3B59927   8.870  17.600  15.560
 3172DPPE   C4B59928   8.880  17.290  15.890
 3173DPPE   NH359929   3.160  18.170  21.550
 3173DPPE   PO459930   3.340  17.830  21.410
 3173DPPE   GL159931   3.620  17.690  21.140
 3173DPPE   GL259932   3.500  17.520  20.980
 3173DPPE   C1A59933   4.020  17.720  21.250
 3173DPPE   C2A59934   4.390  17.680  21.230
 3173DPPE   C3A59935   4.650  17.910  20.860
 3173DPPE   C4A59936   4.880  17.770  20.480
 3173DPPE   C1B59937   3.950  17.460  20.830
 3173DPPE   C2B59938   4.140  17.610  20.410
 3173DPPE   C3B59939   4.100  17.600  19.950
 3173DPPE   C4B59940   3.800  17.540  19.610
 3174DPPE   NH359941  17.250  14.800  20.570
 3174DPPE   PO459942  17.150  15.210  20.750
 3174DPPE   GL159943  17.090  15.080  21.140
 3174DPPE   GL259944  17.120  14.720  21.040
 3174DPPE   C1A59945  17.110  14.970  21.530
 3174DPPE   C2A59946  17.210  14.780  21.900
 3174DPPE   C3A59947  16.910  14.520  22.170
 3174DPPE   C4A59948  16.910  14.100  22.390
 3174DPPE   C1B59949  17.530  14.540  21.220
 3174DPPE   C2B59950  17.590  14.530  21.670
 3174DPPE   C3B59951  17.430  14.390  22.060
 3174DPPE   C4B59952  17.290  14.410  22.450
 3175DPPE   NH359953   5.240  23.980  22.300
 3175DPPE   PO459954   5.050  23.730  21.960
 3175DPPE   GL159955   5.070  23.670  21.630
 3175DPPE   GL259956   5.380  23.960  21.390
 3175DPPE   C1A59957   5.300  23.350  21.480
 3175DPPE   C2A59958   5.610  23.120  21.220
 3175DPPE   C3A59959   5.630  22.670  21.120
 3175DPPE   C4A59960   5.440  22.370  20.850
 3175DPPE   C1B59961   5.510  23.630  21.100
 3175DPPE   C2B59962   5.850  23.410  20.940
 3175DPPE   C3B59963   5.900  22.990  20.750
 3175DPPE   C4B59964   5.720  22.640  20.530
 3176DPPE   NH359965   4.210  13.580   9.630
 3176DPPE   PO459966   4.530  13.140   9.600
 3176DPPE   GL159967   4.650  13.520   9.910
 3176DPPE   GL259968   4.550  13.410  10.290
 3176DPPE   C1A59969   5.010  13.700  10.050
 3176DPPE   C2A59970   5.450  13.580  10.280
 3176DPPE   C3A59971   5.770  13.750  10.570
 3176DPPE   C4A59972   6.170  13.910  10.340
 3176DPPE   C1B59973   4.970  13.710  10.510
 3176DPPE   C2B59974   5.220  13.520  10.740
 3176DPPE   C3B59975   5.490  13.190  10.880
 3176DPPE   C4B59976   6.050  13.210  11.030
 3177DPPE   NH359977   7.590  19.420   4.460
 3177DPPE   PO459978   7.930  19.220   4.510
 3177DPPE   GL159979   8.250  19.230   4.680
 3177DPPE   GL259980   8.100  19.180   4.990
 3177DPPE   C1A59981   8.620  19.090   5.070
 3177DPPE   C2A59982   8.920  19.170   5.390
 3177DPPE   C3A59983   9.330  19.010   5.380
 3177DPPE   C4A59984   9.780  18.770   5.500
 3177DPPE   C1B59985   8.250  18.730   5.050
 3177DPPE   C2B59986   8.400  18.470   5.260
 3177DPPE   C3B59987   8.420  18.330   5.770
 3177DPPE   C4B59988   8.210  17.930   6.030
 3178DPPE   NH359989  22.350  23.220  11.680
 3178DPPE   PO459990  21.990  23.200  11.320
 3178DPPE   GL159991  22.090  23.670  11.150
 3178DPPE   GL259992  22.340  23.540  11.000
 3178DPPE   C1A59993  22.200  23.920  10.760
 3178DPPE   C2A59994  22.480  24.300  10.510
 3178DPPE   C3A59995  22.310  24.700  10.390
 3178DPPE   C4A59996  22.220  25.140  10.240
 3178DPPE   C1B59997  22.710  23.740  10.970
 3178DPPE   C2B59998  23.010  24.020  11.130
 3178DPPE   C3B59999  23.290  24.280  11.000
 3178DPPE   C4B60000  23.440  24.660  10.750
 3179DPPE   NH360001  18.840  22.170  23.890
 3179DPPE   PO460002  19.170  22.040  23.620
 3179DPPE   GL160003  19.010  21.830  23.230
 3179DPPE   GL260004  18.770  21.920  23.320
 3179DPPE   C1A60005  19.060  21.600  22.840
 3179DPPE   C2A60006  19.340  21.350  22.750
 3179DPPE   C3A60007  19.300  21.020  22.500
 3179DPPE   C4A60008  18.980  20.910  22.250
 3179DPPE   C1B60009  18.490  21.800  23.030
 3179DPPE   C2B60010  18.630  21.790  22.560
 3179DPPE   C3B60011  18.500  21.580  22.220
 3179DPPE   C4B60012  18.380  21.230  21.900
 3180DPPE   NH360013  23.080  14.540  14.020
 3180DPPE   PO460014  23.070  14.070  13.980
 3180DPPE   GL160015  23.440  14.050  14.080
 3180DPPE   GL260016  23.530  14.090  13.740
 3180DPPE   C1A60017  23.830  13.880  14.340
 3180DPPE   C2A60018  24.230  13.750  14.540
 3180DPPE   C3A60019  24.590  13.670  14.630
 3180DPPE   C4A60020  25.010  13.620  14.790
 3180DPPE   C1B60021  23.970  13.870  13.840
 3180DPPE   C2B60022  24.260  13.580  14.110
 3180DPPE   C3B60023  24.540  13.400  14.200
 3180DPPE   C4B60024  24.840  13.120  14.110
 3181DPPE   NH360025  17.660  29.100   9.640
 3181DPPE   PO460026  17.720  29.070  10.040
 3181DPPE   GL160027  17.830  28.670  10.140
 3181DPPE   GL260028  17.940  28.700  10.540
 3181DPPE   C1A60029  17.560  28.330  10.460
 3181DPPE   C2A60030  17.640  27.860  10.510
 3181DPPE   C3A60031  17.640  27.490  10.630
 3181DPPE   C4A60032  17.220  27.210  10.720
 3181DPPE   C1B60033  18.050  28.300  10.710
 3181DPPE   C2B60034  17.940  27.960  10.890
 3181DPPE   C3B60035  17.920  27.550  11.100
 3181DPPE   C4B60036  17.970  27.180  11.330
 3182DPPE   NH360037  15.850   5.350   8.030
 3182DPPE   PO460038  16.260   5.470   7.900
 3182DPPE   GL160039  16.010   5.820   7.890
 3182DPPE   GL260040  16.160   5.970   7.670
 3182DPPE   C1A60041  15.670   6.140   7.990
 3182DPPE   C2A60042  15.400   6.190   8.210
 3182DPPE   C3A60043  15.190   6.580   8.310
 3182DPPE   C4A60044  14.800   6.830   8.380
 3182DPPE   C1B60045  16.090   6.420   7.800
 3182DPPE   C2B60046  15.840   6.790   7.820
 3182DPPE   C3B60047  15.540   6.940   8.020
 3182DPPE   C4B60048  15.240   7.070   8.210
 3183DPPE   NH360049  10.110  16.550  13.440
 3183DPPE   PO460050   9.610  16.630  13.540
 3183DPPE   GL160051   9.210  16.540  13.590
 3183DPPE   GL260052   9.190  16.180  13.510
 3183DPPE   C1A60053   8.900  16.430  13.750
 3183DPPE   C2A60054   8.800  16.000  13.810
 3183DPPE   C3A60055   8.670  15.640  13.710
 3183DPPE   C4A60056   8.530  15.350  13.400
 3183DPPE   C1B60057   8.780  16.110  13.250
 3183DPPE   C2B60058   8.440  16.300  13.000
 3183DPPE   C3B60059   8.210  16.690  12.860
 3183DPPE   C4B60060   7.850  16.820  13.050
 3184DPPE   NH360061  14.230  26.010  21.850
 3184DPPE   PO460062  14.580  25.860  21.540
 3184DPPE   GL160063  14.420  25.540  21.360
 3184DPPE   GL260064  14.160  25.450  21.560
 3184DPPE   C1A60065  14.480  25.170  21.130
 3184DPPE   C2A60066  14.330  24.720  21.060
 3184DPPE   C3A60067  14.600  24.370  20.790
 3184DPPE   C4A60068  14.870  24.190  20.590
 3184DPPE   C1B60069  14.140  25.050  21.500
 3184DPPE   C2B60070  14.050  24.540  21.360
 3184DPPE   C3B60071  13.810  24.310  21.180
 3184DPPE   C4B60072  13.460  24.360  20.960
 3185DPPE   NH360073  21.150  12.310  21.760
 3185DPPE   PO460074  21.430  12.000  21.320
 3185DPPE   GL160075  21.370  12.410  21.090
 3185DPPE   GL260076  21.710  12.610  21.000
 3185DPPE   C1A60077  21.280  12.460  20.610
 3185DPPE   C2A60078  21.150  12.750  20.360
 3185DPPE   C3A60079  21.100  13.120  20.160
 3185DPPE   C4A60080  21.360  13.340  19.730
 3185DPPE   C1B60081  21.630  12.810  20.590
 3185DPPE   C2B60082  21.600  13.200  20.350
 3185DPPE   C3B60083  21.360  13.600  20.380
 3185DPPE   C4B60084  21.030  13.800  20.560
 3186DPPE   NH360085   5.190  20.260  23.820
 3186DPPE   PO460086   5.020  19.810  23.850
 3186DPPE   GL160087   5.330  19.870  23.470
 3186DPPE   GL260088   5.380  20.260  23.380
 3186DPPE   C1A60089   5.490  19.580  23.140
 3186DPPE   C2A60090   5.740  19.310  22.860
 3186DPPE   C3A60091   6.130  19.350  22.650
 3186DPPE   C4A60092   6.140  19.140  22.250
 3186DPPE   C1B60093   5.600  20.110  23.060
 3186DPPE   C2B60094   5.790  19.810  22.760
 3186DPPE   C3B60095   6.100  19.810  22.450
 3186DPPE   C4B60096   6.430  19.540  22.320
 3187DPPE   NH360097   6.870  24.330  10.800
 3187DPPE   PO460098   6.850  24.550  11.170
 3187DPPE   GL160099   7.170  24.410  11.440
 3187DPPE   GL260100   7.230  24.570  11.770
 3187DPPE   C1A60101   7.430  24.130  11.630
 3187DPPE   C2A60102   7.740  23.860  11.770
 3187DPPE   C3A60103   7.970  23.520  11.910
 3187DPPE   C4A60104   7.870  23.350  12.400
 3187DPPE   C1B60105   7.470  24.330  12.090
 3187DPPE   C2B60106   7.660  23.960  12.250
 3187DPPE   C3B60107   8.060  23.930  12.250
 3187DPPE   C4B60108   8.310  24.070  12.530
 3188DPPE   NH360109  19.550  11.000  22.590
 3188DPPE   PO460110  19.120  10.750  22.480
 3188DPPE   GL160111  18.610  10.670  22.260
 3188DPPE   GL260112  18.470  10.420  22.390
 3188DPPE   C1A60113  18.140  10.760  22.480
 3188DPPE   C2A60114  17.920  10.930  22.840
 3188DPPE   C3A60115  17.550  11.070  22.910
 3188DPPE   C4A60116  17.210  10.940  23.220
 3188DPPE   C1B60117  18.160  10.260  22.200
 3188DPPE   C2B60118  17.830  10.090  22.040
 3188DPPE   C3B60119  17.760   9.740  22.140
 3188DPPE   C4B60120  17.550   9.530  21.820
 3189DPPE   NH360121  17.070   6.580  18.940
 3189DPPE   PO460122  16.910   6.470  18.480
 3189DPPE   GL160123  16.570   6.770  18.320
 3189DPPE   GL260124  16.310   6.700  18.460
 3189DPPE   C1A60125  16.430   7.030  18.010
 3189DPPE   C2A60126  16.100   7.380  17.940
 3189DPPE   C3A60127  15.840   7.670  18.090
 3189DPPE   C4A60128  15.910   7.920  18.520
 3189DPPE   C1B60129  16.000   6.990  18.310
 3189DPPE   C2B60130  16.030   7.410  18.440
 3189DPPE   C3B60131  15.570   7.540  18.510
 3189DPPE   C4B60132  15.300   7.820  18.240
 3190DPPE   NH360133  16.290   9.570  15.420
 3190DPPE   PO460134  16.320   9.770  15.790
 3190DPPE   GL160135  16.290   9.460  16.090
 3190DPPE   GL260136  16.160   9.260  15.890
 3190DPPE   C1A60137  16.180   9.210  16.430
 3190DPPE   C2A60138  16.140   8.840  16.610
 3190DPPE   C3A60139  15.870   8.510  16.850
 3190DPPE   C4A60140  15.880   8.350  17.230
 3190DPPE   C1B60141  16.230   8.790  15.920
 3190DPPE   C2B60142  16.230   8.370  16.040
 3190DPPE   C3B60143  16.550   8.080  15.990
 3190DPPE   C4B60144  16.860   8.010  15.850
 3191DPPE   NH360145  14.600   5.430  17.630
 3191DPPE   PO460146  14.880   5.530  18.020
 3191DPPE   GL160147  14.940   5.960  18.110
 3191DPPE   GL260148  15.230   6.200  17.890
 3191DPPE   C1A60149  14.960   6.340  18.300
 3191DPPE   C2A60150  14.900   6.800  18.360
 3191DPPE   C3A60151  14.550   6.970  18.430
 3191DPPE   C4A60152  14.310   7.350  18.310
 3191DPPE   C1B60153  15.210   6.730  17.900
 3191DPPE   C2B60154  14.820   7.110  17.910
 3191DPPE   C3B60155  14.360   7.070  17.870
 3191DPPE   C4B60156  13.950   6.860  17.800
 3192DPPE   NH360157   9.150   5.010  16.850
 3192DPPE   PO460158   9.450   5.140  16.690
 3192DPPE   GL160159   9.310   5.540  16.840
 3192DPPE   GL260160   9.070   5.590  16.500
 3192DPPE   C1A60161   8.960   5.800  16.910
 3192DPPE   C2A60162   8.680   6.100  16.950
 3192DPPE   C3A60163   8.540   6.410  17.210
 3192DPPE   C4A60164   8.410   6.730  17.060
 3192DPPE   C1B60165   9.470   5.870  16.480
 3192DPPE   C2B60166   9.770   6.220  16.400
 3192DPPE   C3B60167   9.760   6.690  16.120
 3192DPPE   C4B60168   9.660   7.100  16.270
 3193DPPE   NH360169  22.920  16.110   1.780
 3193DPPE   PO460170  22.770  15.750   1.700
 3193DPPE   GL160171  22.590  15.770   2.120
 3193DPPE   GL260172  22.550  16.050   2.160
 3193DPPE   C1A60173  22.530  15.560   2.510
 3193DPPE   C2A60174  22.720  15.200   2.800
 3193DPPE   C3A60175  23.030  15.040   3.110
 3193DPPE   C4A60176  23.300  15.010   3.430
 3193DPPE   C1B60177  22.150  15.900   2.400
 3193DPPE   C2B60178  21.950  15.670   2.690
 3193DPPE   C3B60179  22.200  15.270   2.860
 3193DPPE   C4B60180  22.460  15.000   3.180
 3194DPPE   NH360181  11.690  13.010  13.110
 3194DPPE   PO460182  11.750  12.590  13.260
 3194DPPE   GL160183  11.660  12.210  13.520
 3194DPPE   GL260184  11.430  12.400  13.680
 3194DPPE   C1A60185  11.550  11.960  13.890
 3194DPPE   C2A60186  11.420  11.450  13.970
 3194DPPE   C3A60187  11.110  11.130  13.940
 3194DPPE   C4A60188  10.810  10.760  14.070
 3194DPPE   C1B60189  11.110  12.120  13.910
 3194DPPE   C2B60190  10.820  12.020  14.230
 3194DPPE   C3B60191  10.460  11.940  14.480
 3194DPPE   C4B60192  10.090  11.860  14.620
 3195DPPE   NH360193   7.260  14.710   4.350
 3195DPPE   PO460194   7.010  14.770   4.640
 3195DPPE   GL160195   7.290  14.960   4.850
 3195DPPE   GL260196   7.600  14.770   4.810
 3195DPPE   C1A60197   7.380  14.890   5.190
 3195DPPE   C2A60198   7.540  14.930   5.780
 3195DPPE   C3A60199   7.860  14.690   5.970
 3195DPPE   C4A60200   8.070  14.660   6.360
 3195DPPE   C1B60201   7.980  14.980   4.960
 3195DPPE   C2B60202   8.310  15.100   5.280
 3195DPPE   C3B60203   8.700  15.350   5.360
 3195DPPE   C4B60204   8.680  15.730   5.420
 3196DPPE   NH360205  20.820  11.780  14.360
 3196DPPE   PO460206  21.030  11.640  14.590
 3196DPPE   GL160207  21.250  11.380  14.760
 3196DPPE   GL260208  21.180  10.990  14.850
 3196DPPE   C1A60209  21.590  11.270  15.060
 3196DPPE   C2A60210  21.780  11.020  15.210
 3196DPPE   C3A60211  22.110  10.760  15.130
 3196DPPE   C4A60212  22.480  10.530  15.120
 3196DPPE   C1B60213  21.260  10.700  15.090
 3196DPPE   C2B60214  21.630  10.530  15.310
 3196DPPE   C3B60215  21.710  10.140  15.500
 3196DPPE   C4B60216  21.590   9.740  15.520
 3197DPPE   NH360217  16.830  26.730   5.960
 3197DPPE   PO460218  16.500  26.660   5.760
 3197DPPE   GL160219  16.260  26.280   5.780
 3197DPPE   GL260220  16.190  25.970   5.520
 3197DPPE   C1A60221  16.170  26.130   6.070
 3197DPPE   C2A60222  16.380  25.900   6.330
 3197DPPE   C3A60223  16.640  25.690   6.600
 3197DPPE   C4A60224  16.690  25.310   6.850
 3197DPPE   C1B60225  16.280  25.670   5.770
 3197DPPE   C2B60226  16.350  25.340   6.070
 3197DPPE   C3B60227  16.520  25.110   6.400
 3197DPPE   C4B60228  16.770  24.870   6.590
 3198DPPE   NH360229   2.370  17.350  11.500
 3198DPPE   PO460230   2.270  16.950  11.570
 3198DPPE   GL160231   2.560  16.940  11.890
 3198DPPE   GL260232   2.760  16.750  11.990
 3198DPPE   C1A60233   2.420  16.940  12.450
 3198DPPE   C2A60234   2.260  16.610  12.830
 3198DPPE   C3A60235   2.310  16.310  13.250
 3198DPPE   C4A60236   2.350  16.370  13.650
 3198DPPE   C1B60237   3.290  16.700  11.920
 3198DPPE   C2B60238   3.820  16.760  11.850
 3198DPPE   C3B60239   4.190  16.740  11.990
 3198DPPE   C4B60240   4.650  16.850  11.910
 3199DPPE   NH360241  18.700   9.990  22.550
 3199DPPE   PO460242  18.630   9.830  22.140
 3199DPPE   GL160243  18.520   9.850  21.680
 3199DPPE   GL260244  18.230  10.040  21.700
 3199DPPE   C1A60245  18.600  10.090  21.340
 3199DPPE   C2A60246  18.440  10.350  20.950
 3199DPPE   C3A60247  18.420  10.470  20.500
 3199DPPE   C4A60248  18.450  10.780  20.200
 3199DPPE   C1B60249  18.060  10.100  21.190
 3199DPPE   C2B60250  18.020  10.540  21.070
 3199DPPE   C3B60251  17.770  10.910  20.960
 3199DPPE   C4B60252  17.440  11.120  20.770
 3200DPPE   NH360253   6.530  11.230   7.000
 3200DPPE   PO460254   6.440  11.020   7.470
 3200DPPE   GL160255   6.860  11.170   7.410
 3200DPPE   GL260256   7.070  11.170   7.180
 3200DPPE   C1A60257   7.200  11.400   7.630
 3200DPPE   C2A60258   7.420  11.840   7.720
 3200DPPE   C3A60259   7.590  12.270   7.560
 3200DPPE   C4A60260   7.920  12.630   7.540
 3200DPPE   C1B60261   6.960  11.700   7.260
 3200DPPE   C2B60262   7.190  12.130   7.290
 3200DPPE   C3B60263   7.120  12.460   7.630
 3200DPPE   C4B60264   7.050  12.850   7.920
 3201DPPE   NH360265  19.910   8.570  20.010
 3201DPPE   PO460266  20.190   9.010  20.000
 3201DPPE   GL160267  19.910   9.370  19.750
 3201DPPE   GL260268  20.070   9.580  19.500
 3201DPPE   C1A60269  19.510   9.170  19.560
 3201DPPE   C2A60270  19.120   9.370  19.450
 3201DPPE   C3A60271  18.830   9.660  19.540
 3201DPPE   C4A60272  18.500   9.920  19.790
 3201DPPE   C1B60273  19.750   9.690  19.300
 3201DPPE   C2B60274  19.560  10.110  19.270
 3201DPPE   C3B60275  19.620  10.280  18.860
 3201DPPE   C4B60276  19.330  10.380  18.590
 3202DPPE   NH360277  17.420  13.860  27.070
 3202DPPE   PO460278  17.490  14.280  26.900
 3202DPPE   GL160279  17.220  14.590  26.580
 3202DPPE   GL260280  17.400  14.740  26.380
 3202DPPE   C1A60281  16.860  14.740  26.240
 3202DPPE   C2A60282  16.680  14.570  25.880
 3202DPPE   C3A60283  16.360  14.690  25.640
 3202DPPE   C4A60284  16.070  14.830  25.430
 3202DPPE   C1B60285  17.200  14.520  26.000
 3202DPPE   C2B60286  16.930  14.080  25.840
 3202DPPE   C3B60287  16.570  13.990  25.590
 3202DPPE   C4B60288  16.260  13.890  25.250
 3203DPPE   NH360289   3.760  17.560  10.690
 3203DPPE   PO460290   3.690  17.550  11.200
 3203DPPE   GL160291   4.030  17.440  11.410
 3203DPPE   GL260292   3.880  17.160  11.480
 3203DPPE   C1A60293   4.380  17.260  11.520
 3203DPPE   C2A60294   4.800  17.280  11.710
 3203DPPE   C3A60295   4.970  17.420  12.170
 3203DPPE   C4A60296   5.070  17.420  12.560
 3203DPPE   C1B60297   4.000  17.200  11.860
 3203DPPE   C2B60298   4.430  17.200  12.070
 3203DPPE   C3B60299   4.700  17.090  12.460
 3203DPPE   C4B60300   4.660  16.820  12.800
 3204DPPE   NH360301  18.570  28.810   9.690
 3204DPPE   PO460302  19.050  28.820   9.660
 3204DPPE   GL160303  18.800  28.520  10.030
 3204DPPE   GL260304  18.390  28.530  10.100
 3204DPPE   C1A60305  18.740  28.120  10.160
 3204DPPE   C2A60306  18.670  27.740  10.210
 3204DPPE   C3A60307  18.430  27.350  10.150
 3204DPPE   C4A60308  18.110  27.000  10.310
 3204DPPE   C1B60309  18.010  28.230  10.230
 3204DPPE   C2B60310  17.710  28.040  10.060
 3204DPPE   C3B60311  17.410  27.950   9.650
 3204DPPE   C4B60312  17.090  27.920   9.340
 3205DPPE   NH360313  10.310  23.120  26.150
 3205DPPE   PO460314  10.250  22.650  26.200
 3205DPPE   GL160315  10.400  22.290  25.920
 3205DPPE   GL260316  10.020  22.010  25.820
 3205DPPE   C1A60317  10.670  22.210  25.540
 3205DPPE   C2A60318  10.680  21.860  25.130
 3205DPPE   C3A60319  10.920  21.680  24.850
 3205DPPE   C4A60320  11.180  21.910  24.620
 3205DPPE   C1B60321  10.170  22.090  25.380
 3205DPPE   C2B60322  10.450  22.320  25.010
 3205DPPE   C3B60323  10.260  22.530  24.590
 3205DPPE   C4B60324   9.960  22.500  24.270
 3206DPPE   NH360325  15.330   6.840  23.790
 3206DPPE   PO460326  15.770   7.090  23.690
 3206DPPE   GL160327  15.370   7.250  23.400
 3206DPPE   GL260328  15.270   7.510  23.560
 3206DPPE   C1A60329  15.290   7.540  23.090
 3206DPPE   C2A60330  15.180   7.770  22.670
 3206DPPE   C3A60331  14.830   8.050  22.650
 3206DPPE   C4A60332  14.940   8.470  22.640
 3206DPPE   C1B60333  14.890   7.660  23.470
 3206DPPE   C2B60334  14.440   7.600  23.610
 3206DPPE   C3B60335  14.140   7.920  23.720
 3206DPPE   C4B60336  14.010   8.340  23.770
 3207DPPE   NH360337   5.020  16.050   7.220
 3207DPPE   PO460338   5.250  16.100   6.790
 3207DPPE   GL160339   5.470  16.460   6.960
 3207DPPE   GL260340   5.460  16.740   6.840
 3207DPPE   C1A60341   5.840  16.380   7.200
 3207DPPE   C2A60342   6.170  16.250   7.320
 3207DPPE   C3A60343   6.570  16.240   7.710
 3207DPPE   C4A60344   6.430  15.980   8.080
 3207DPPE   C1B60345   5.820  16.940   6.860
 3207DPPE   C2B60346   6.190  16.820   7.080
 3207DPPE   C3B60347   6.570  16.880   7.190
 3207DPPE   C4B60348   6.830  16.970   7.540
 3208DPPE   NH360349  13.010  21.060  27.870
 3208DPPE   PO460350  13.140  21.240  27.460
 3208DPPE   GL160351  12.970  20.980  27.040
 3208DPPE   GL260352  13.070  20.650  26.940
 3208DPPE   C1A60353  13.140  20.980  26.610
 3208DPPE   C2A60354  13.230  21.330  26.350
 3208DPPE   C3A60355  13.180  21.550  25.950
 3208DPPE   C4A60356  12.990  21.910  25.720
 3208DPPE   C1B60357  12.800  20.610  26.540
 3208DPPE   C2B60358  12.680  20.170  26.280
 3208DPPE   C3B60359  12.350  19.990  25.990
 3208DPPE   C4B60360  12.280  19.860  25.640
 3209DPPE   NH360361   8.450   7.300  21.570
 3209DPPE   PO460362   8.890   7.050  21.510
 3209DPPE   GL160363   8.810   7.450  21.260
 3209DPPE   GL260364   8.760   7.830  21.250
 3209DPPE   C1A60365   8.650   7.610  20.770
 3209DPPE   C2A60366   8.340   7.680  20.470
 3209DPPE   C3A60367   8.150   7.600  20.130
 3209DPPE   C4A60368   7.720   7.580  19.950
 3209DPPE   C1B60369   9.160   8.010  21.270
 3209DPPE   C2B60370   9.330   8.490  21.350
 3209DPPE   C3B60371   9.570   8.840  21.380
 3209DPPE   C4B60372  10.000   9.010  21.340
 3210DPPE   NH360373   8.480   5.790  14.090
 3210DPPE   PO460374   8.040   5.800  13.980
 3210DPPE   GL160375   8.090   6.260  14.110
 3210DPPE   GL260376   8.270   6.250  14.390
 3210DPPE   C1A60377   7.990   6.690  14.300
 3210DPPE   C2A60378   8.230   6.850  14.540
 3210DPPE   C3A60379   8.450   7.000  14.840
 3210DPPE   C4A60380   8.760   6.990  15.040
 3210DPPE   C1B60381   8.440   6.450  14.750
 3210DPPE   C2B60382   8.870   6.670  14.730
 3210DPPE   C3B60383   9.300   7.000  14.810
 3210DPPE   C4B60384   9.470   7.490  14.780
 3211DPPE   NH360385   9.960  22.260  26.250
 3211DPPE   PO460386   9.740  22.700  26.190
 3211DPPE   GL160387   9.860  22.580  25.850
 3211DPPE   GL260388  10.040  22.870  25.770
 3211DPPE   C1A60389   9.660  22.210  25.580
 3211DPPE   C2A60390   9.360  22.260  25.310
 3211DPPE   C3A60391   9.090  22.450  24.960
 3211DPPE   C4A60392   9.050  22.480  24.510
 3211DPPE   C1B60393   9.800  23.110  25.370
 3211DPPE   C2B60394   9.780  23.050  24.910
 3211DPPE   C3B60395  10.050  22.990  24.480
 3211DPPE   C4B60396  10.470  23.080  24.350
 3212DPPE   NH360397  14.000   9.530   8.810
 3212DPPE   PO460398  13.800   9.690   8.480
 3212DPPE   GL160399  13.750   9.250   8.480
 3212DPPE   GL260400  14.020   9.020   8.540
 3212DPPE   C1A60401  13.630   8.910   8.250
 3212DPPE   C2A60402  13.270   8.610   8.130
 3212DPPE   C3A60403  13.080   8.400   8.390
 3212DPPE   C4A60404  12.710   8.020   8.510
 3212DPPE   C1B60405  14.120   8.570   8.560
 3212DPPE   C2B60406  14.010   8.180   8.420
 3212DPPE   C3B60407  13.850   7.830   8.260
 3212DPPE   C4B60408  13.730   7.590   8.450
 3213DPPE   NH360409  17.490  10.500   1.820
 3213DPPE   PO460410  17.560  10.910   1.540
 3213DPPE   GL160411  17.190  10.920   1.860
 3213DPPE   GL260412  17.310  10.870   2.180
 3213DPPE   C1A60413  17.050  11.320   1.950
 3213DPPE   C2A60414  16.850  11.600   2.310
 3213DPPE   C3A60415  17.000  11.640   2.710
 3213DPPE   C4A60416  16.820  11.740   3.050
 3213DPPE   C1B60417  17.320  11.270   2.460
 3213DPPE   C2B60418  17.500  11.490   2.620
 3213DPPE   C3B60419  17.480  11.910   2.750
 3213DPPE   C4B60420  17.740  12.180   3.050
 3214DPPE   NH360421  24.490  18.440  10.520
 3214DPPE   PO460422  24.370  18.850  10.780
 3214DPPE   GL160423  24.640  19.020  10.500
 3214DPPE   GL260424  24.650  18.840  10.260
 3214DPPE   C1A60425  24.920  19.280  10.480
 3214DPPE   C2A60426  25.230  19.700  10.520
 3214DPPE   C3A60427  25.780  19.790  10.550
 3214DPPE   C4A60428  26.020  20.100  10.570
 3214DPPE   C1B60429  24.930  18.840   9.890
 3214DPPE   C2B60430  25.230  19.090   9.660
 3214DPPE   C3B60431  25.620  18.850   9.410
 3214DPPE   C4B60432  25.960  18.770   9.590
 3215DPPE   NH360433   1.000  13.480  15.350
 3215DPPE   PO460434   1.190  13.740  15.530
 3215DPPE   GL160435   1.420  14.100  15.670
 3215DPPE   GL260436   1.580  14.310  15.560
 3215DPPE   C1A60437   1.650  14.230  16.040
 3215DPPE   C2A60438   1.990  13.920  16.220
 3215DPPE   C3A60439   2.170  13.530  16.400
 3215DPPE   C4A60440   2.430  13.190  16.450
 3215DPPE   C1B60441   1.890  14.380  15.350
 3215DPPE   C2B60442   2.210  14.600  15.240
 3215DPPE   C3B60443   2.550  14.430  15.070
 3215DPPE   C4B60444   2.930  14.300  15.280
 3216DPPE   NH360445  20.280   5.770  11.350
 3216DPPE   PO460446  20.110   5.870  11.840
 3216DPPE   GL160447  19.940   6.130  11.510
 3216DPPE   GL260448  20.230   6.260  11.470
 3216DPPE   C1A60449  19.680   6.520  11.530
 3216DPPE   C2A60450  19.630   6.770  11.990
 3216DPPE   C3A60451  19.470   7.090  12.300
 3216DPPE   C4A60452  19.720   7.400  12.270
 3216DPPE   C1B60453  20.100   6.610  11.270
 3216DPPE   C2B60454  19.840   7.030  11.360
 3216DPPE   C3B60455  19.870   7.450  11.450
 3216DPPE   C4B60456  19.880   7.670  11.800
 3217DPPE   NH360457   3.040  22.380  20.140
 3217DPPE   PO460458   2.810  22.090  19.960
 3217DPPE   GL160459   3.320  21.980  19.920
 3217DPPE   GL260460   3.440  21.620  19.950
 3217DPPE   C1A60461   3.670  22.140  19.710
 3217DPPE   C2A60462   4.150  21.980  19.690
 3217DPPE   C3A60463   4.470  21.780  19.790
 3217DPPE   C4A60464   4.750  21.580  20.060
 3217DPPE   C1B60465   3.730  21.420  19.830
 3217DPPE   C2B60466   4.130  21.450  19.690
 3217DPPE   C3B60467   4.450  21.240  19.860
 3217DPPE   C4B60468   4.920  21.070  20.060
 3218DPPE   NH360469   4.470  15.120  22.300
 3218DPPE   PO460470   4.720  14.970  22.670
 3218DPPE   GL160471   4.970  14.980  22.440
 3218DPPE   GL260472   5.200  14.720  22.430
 3218DPPE   C1A60473   5.400  15.140  22.470
 3218DPPE   C2A60474   5.690  15.410  22.570
 3218DPPE   C3A60475   6.100  15.630  22.550
 3218DPPE   C4A60476   6.240  16.100  22.620
 3218DPPE   C1B60477   5.340  14.770  22.130
 3218DPPE   C2B60478   5.680  14.980  21.990
 3218DPPE   C3B60479   6.050  15.150  22.040
 3218DPPE   C4B60480   6.460  14.970  21.880
 3219DPPE   NH360481   4.440  23.270  13.980
 3219DPPE   PO460482   4.460  22.830  13.820
 3219DPPE   GL160483   4.820  22.780  13.900
 3219DPPE   GL260484   4.950  22.620  13.590
 3219DPPE   C1A60485   4.890  22.420  14.270
 3219DPPE   C2A60486   4.580  22.290  14.500
 3219DPPE   C3A60487   4.180  22.470  14.670
 3219DPPE   C4A60488   3.860  22.660  14.800
 3219DPPE   C1B60489   5.230  22.290  13.510
 3219DPPE   C2B60490   5.360  22.100  13.190
 3219DPPE   C3B60491   5.590  21.680  13.090
 3219DPPE   C4B60492   5.790  21.360  13.280
 3220DPPE   NH360493   5.430  20.380   7.130
 3220DPPE   PO460494   5.550  20.630   7.570
 3220DPPE   GL160495   5.640  20.430   8.090
 3220DPPE   GL260496   5.570  20.100   8.230
 3220DPPE   C1A60497   5.840  20.540   8.390
 3220DPPE   C2A60498   5.900  20.650   8.900
 3220DPPE   C3A60499   5.880  20.710   9.350
 3220DPPE   C4A60500   5.690  21.030   9.530
 3220DPPE   C1B60501   5.710  19.710   8.220
 3220DPPE   C2B60502   5.740  19.350   8.340
 3220DPPE   C3B60503   6.030  19.050   8.420
 3220DPPE   C4B60504   6.330  19.020   8.770
 3221DPPE   NH360505  23.720   9.580  17.410
 3221DPPE   PO460506  23.920   9.640  17.070
 3221DPPE   GL160507  23.610  10.000  17.050
 3221DPPE   GL260508  23.300   9.810  17.140
 3221DPPE   C1A60509  23.210  10.120  16.720
 3221DPPE   C2A60510  22.880  10.250  16.630
 3221DPPE   C3A60511  22.550  10.390  16.390
 3221DPPE   C4A60512  22.290  10.290  16.000
 3221DPPE   C1B60513  22.870  10.050  17.080
 3221DPPE   C2B60514  22.520   9.880  16.860
 3221DPPE   C3B60515  22.470   9.550  16.720
 3221DPPE   C4B60516  22.460   9.310  16.430
 3222DPPE   NH360517  10.290  18.130  14.710
 3222DPPE   PO460518   9.980  18.240  14.570
 3222DPPE   GL160519   9.570  18.170  14.630
 3222DPPE   GL260520   9.420  18.390  14.450
 3222DPPE   C1A60521   9.260  18.490  14.900
 3222DPPE   C2A60522   9.020  18.580  15.290
 3222DPPE   C3A60523   8.670  18.640  15.520
 3222DPPE   C4A60524   8.320  18.730  15.800
 3222DPPE   C1B60525   9.110  18.120  14.520
 3222DPPE   C2B60526   8.880  18.200  14.840
 3222DPPE   C3B60527   8.780  17.930  15.040
 3222DPPE   C4B60528   8.660  17.580  15.080
 3223DPPE   NH360529  11.130  26.790  18.400
 3223DPPE   PO460530  10.600  26.690  18.540
 3223DPPE   GL160531  10.860  26.390  18.640
 3223DPPE   GL260532  11.050  26.510  18.820
 3223DPPE   C1A60533  11.150  25.950  18.600
 3223DPPE   C2A60534  11.230  25.520  18.500
 3223DPPE   C3A60535  11.220  25.020  18.270
 3223DPPE   C4A60536  11.150  24.750  17.960
 3223DPPE   C1B60537  11.160  26.180  19.100
 3223DPPE   C2B60538  11.450  25.760  19.100
 3223DPPE   C3B60539  11.690  25.360  18.950
 3223DPPE   C4B60540  11.650  25.110  18.640
 3224DPPE   NH360541  13.180  22.160  26.920
 3224DPPE   PO460542  12.800  22.000  26.900
 3224DPPE   GL160543  12.860  22.200  26.500
 3224DPPE   GL260544  13.160  22.370  26.330
 3224DPPE   C1A60545  12.760  22.290  26.010
 3224DPPE   C2A60546  12.730  22.260  25.540
 3224DPPE   C3A60547  12.390  22.330  25.140
 3224DPPE   C4A60548  12.280  21.900  24.790
 3224DPPE   C1B60549  13.180  22.480  25.830
 3224DPPE   C2B60550  13.200  22.390  25.360
 3224DPPE   C3B60551  13.310  22.370  25.000
 3224DPPE   C4B60552  13.680  22.260  24.710
 3225DPPE   NH360553   5.760  24.600  15.360
 3225DPPE   PO460554   5.760  24.660  14.910
 3225DPPE   GL160555   5.820  24.250  14.920
 3225DPPE   GL260556   5.950  23.980  14.650
 3225DPPE   C1A60557   6.130  23.980  15.190
 3225DPPE   C2A60558   6.240  23.650  15.310
 3225DPPE   C3A60559   6.450  23.470  15.630
 3225DPPE   C4A60560   6.700  23.170  15.860
 3225DPPE   C1B60561   6.280  23.750  14.780
 3225DPPE   C2B60562   6.560  23.480  14.590
 3225DPPE   C3B60563   6.760  23.090  14.460
 3225DPPE   C4B60564   6.840  22.760  14.600
 3226DPPE   NH360565   9.800  14.980  12.710
 3226DPPE   PO460566   9.490  15.290  12.710
 3226DPPE   GL160567   9.170  15.480  12.900
 3226DPPE   GL260568   8.960  15.560  12.610
 3226DPPE   C1A60569   8.770  15.640  13.090
 3226DPPE   C2A60570   8.240  15.720  13.190
 3226DPPE   C3A60571   7.990  15.310  13.200
 3226DPPE   C4A60572   7.550  15.380  13.420
 3226DPPE   C1B60573   8.490  15.500  12.710
 3226DPPE   C2B60574   8.040  15.460  12.730
 3226DPPE   C3B60575   7.590  15.230  12.920
 3226DPPE   C4B60576   7.080  15.380  13.040
 3227DPPE   NH360577  22.510  19.220  16.720
 3227DPPE   PO460578  22.280  18.880  16.880
 3227DPPE   GL160579  22.600  18.960  17.090
 3227DPPE   GL260580  22.920  18.970  16.960
 3227DPPE   C1A60581  22.790  19.000  17.440
 3227DPPE   C2A60582  23.210  19.070  17.300
 3227DPPE   C3A60583  23.620  19.160  17.240
 3227DPPE   C4A60584  24.040  19.280  17.310
 3227DPPE   C1B60585  23.270  18.980  16.770
 3227DPPE   C2B60586  23.720  19.010  16.720
 3227DPPE   C3B60587  24.120  19.120  16.810
 3227DPPE   C4B60588  24.290  19.380  16.790
 3228DPPE   NH360589  10.250  27.310  11.140
 3228DPPE   PO460590   9.870  27.070  11.020
 3228DPPE   GL160591  10.240  26.790  10.850
 3228DPPE   GL260592  10.240  26.860  10.500
 3228DPPE   C1A60593  10.450  26.370  10.860
 3228DPPE   C2A60594  10.480  25.920  10.860
 3228DPPE   C3A60595  10.650  25.520  10.940
 3228DPPE   C4A60596  11.040  25.250  10.770
 3228DPPE   C1B60597  10.710  26.650  10.500
 3228DPPE   C2B60598  10.970  26.420  10.760
 3228DPPE   C3B60599  11.050  26.120  10.920
 3228DPPE   C4B60600  11.200  25.740  11.120
 3229DPPE   NH360601   5.000  12.250  22.430
 3229DPPE   PO460602   5.050  12.530  22.150
 3229DPPE   GL160603   5.080  12.660  21.770
 3229DPPE   GL260604   5.000  12.470  21.490
 3229DPPE   C1A60605   4.840  12.960  21.500
 3229DPPE   C2A60606   5.000  13.210  21.140
 3229DPPE   C3A60607   5.270  13.510  21.050
 3229DPPE   C4A60608   5.540  13.820  20.910
 3229DPPE   C1B60609   5.200  12.750  21.240
 3229DPPE   C2B60610   5.450  13.070  21.150
 3229DPPE   C3B60611   5.810  13.330  21.040
 3229DPPE   C4B60612   5.980  13.640  21.120
 3230DPPE   NH360613  12.290   5.400  14.130
 3230DPPE   PO460614  11.820   5.490  13.840
 3230DPPE   GL160615  12.160   5.690  13.740
 3230DPPE   GL260616  12.460   5.690  13.680
 3230DPPE   C1A60617  12.340   6.170  13.630
 3230DPPE   C2A60618  12.500   6.560  13.440
 3230DPPE   C3A60619  12.830   6.810  13.230
 3230DPPE   C4A60620  13.180   6.980  13.450
 3230DPPE   C1B60621  12.490   5.940  14.040
 3230DPPE   C2B60622  12.640   6.390  14.070
 3230DPPE   C3B60623  12.750   6.850  14.310
 3230DPPE   C4B60624  12.790   7.310  14.280
 3231DPPE   NH360625  13.470  19.630  18.900
 3231DPPE   PO460626  13.630  19.220  18.740
 3231DPPE   GL160627  13.370  19.220  19.140
 3231DPPE   GL260628  13.450  19.260  19.460
 3231DPPE   C1A60629  13.020  19.350  19.270
 3231DPPE   C2A60630  12.960  19.810  19.470
 3231DPPE   C3A60631  13.110  20.080  19.120
 3231DPPE   C4A60632  13.190  20.320  18.810
 3231DPPE   C1B60633  13.350  18.930  19.570
 3231DPPE   C2B60634  13.230  18.810  19.940
 3231DPPE   C3B60635  12.980  19.080  20.230
 3231DPPE   C4B60636  12.950  18.870  20.680
 3232DPPE   NH360637  14.780  18.580  19.170
 3232DPPE   PO460638  14.490  18.520  18.810
 3232DPPE   GL160639  14.310  18.520  19.310
 3232DPPE   GL260640  13.940  18.480  19.340
 3232DPPE   C1A60641  14.320  18.550  19.670
 3232DPPE   C2A60642  14.310  18.750  20.090
 3232DPPE   C3A60643  14.140  18.900  20.500
 3232DPPE   C4A60644  13.890  18.610  20.890
 3232DPPE   C1B60645  13.820  18.480  19.710
 3232DPPE   C2B60646  13.510  18.420  20.010
 3232DPPE   C3B60647  13.260  18.200  20.260
 3232DPPE   C4B60648  12.920  18.380  20.560
 3233DPPE   NH360649  10.240  16.160  27.500
 3233DPPE   PO460650  10.570  16.030  27.490
 3233DPPE   GL160651  10.860  15.920  27.160
 3233DPPE   GL260652  11.110  16.130  27.050
 3233DPPE   C1A60653  11.030  15.880  26.640
 3233DPPE   C2A60654  11.060  16.010  26.260
 3233DPPE   C3A60655  11.010  15.860  25.750
 3233DPPE   C4A60656  10.940  15.750  25.320
 3233DPPE   C1B60657  11.400  16.420  26.810
 3233DPPE   C2B60658  11.430  16.350  26.280
 3233DPPE   C3B60659  11.490  16.240  25.930
 3233DPPE   C4B60660  11.230  16.350  25.540
 3234DPPE   NH360661   7.470   6.290  13.350
 3234DPPE   PO460662   7.080   6.580  12.980
 3234DPPE   GL160663   7.360   6.880  13.210
 3234DPPE   GL260664   7.130   7.130  13.090
 3234DPPE   C1A60665   7.310   7.030  13.590
 3234DPPE   C2A60666   7.300   7.230  13.970
 3234DPPE   C3A60667   7.420   7.060  14.330
 3234DPPE   C4A60668   7.480   6.660  14.400
 3234DPPE   C1B60669   7.140   7.600  13.200
 3234DPPE   C2B60670   7.400   7.810  13.340
 3234DPPE   C3B60671   7.620   8.030  13.660
 3234DPPE   C4B60672   7.940   8.160  13.950
 3235DPPE   NH360673  15.980  13.120  18.430
 3235DPPE   PO460674  15.850  13.380  18.760
 3235DPPE   GL160675  15.730  12.960  18.920
 3235DPPE   GL260676  15.750  12.740  18.700
 3235DPPE   C1A60677  15.620  12.720  19.280
 3235DPPE   C2A60678  15.670  12.560  19.680
 3235DPPE   C3A60679  15.380  12.710  20.070
 3235DPPE   C4A60680  15.240  12.910  20.350
 3235DPPE   C1B60681  15.780  12.370  18.870
 3235DPPE   C2B60682  15.990  11.950  18.870
 3235DPPE   C3B60683  16.250  11.760  18.930
 3235DPPE   C4B60684  16.480  11.640  19.180
 3236DPPE   NH360685  12.330   5.040  17.000
 3236DPPE   PO460686  12.440   4.790  17.410
 3236DPPE   GL160687  12.410   5.190  17.530
 3236DPPE   GL260688  12.150   5.190  17.470
 3236DPPE   C1A60689  12.230   5.520  17.860
 3236DPPE   C2A60690  12.100   6.010  17.890
 3236DPPE   C3A60691  12.170   6.420  18.150
 3236DPPE   C4A60692  12.040   6.610  18.440
 3236DPPE   C1B60693  11.840   5.480  17.560
 3236DPPE   C2B60694  11.620   5.810  17.820
 3236DPPE   C3B60695  11.530   6.130  17.570
 3236DPPE   C4B60696  11.560   6.540  17.440
 3237DPPE   NH360697   7.720  17.200  26.260
 3237DPPE   PO460698   7.780  17.420  26.580
 3237DPPE   GL160699   8.140  17.600  26.420
 3237DPPE   GL260700   8.490  17.600  26.390
 3237DPPE   C1A60701   8.350  18.060  26.260
 3237DPPE   C2A60702   8.640  18.350  26.090
 3237DPPE   C3A60703   8.930  18.720  26.160
 3237DPPE   C4A60704   8.960  19.160  26.210
 3237DPPE   C1B60705   8.980  17.360  26.200
 3237DPPE   C2B60706   9.250  17.090  25.950
 3237DPPE   C3B60707   9.190  16.660  25.980
 3237DPPE   C4B60708   9.030  16.440  25.660
 3238DPPE   NH360709  26.080  13.230  16.880
 3238DPPE   PO460710  26.070  12.940  16.690
 3238DPPE   GL160711  25.860  12.940  16.360
 3238DPPE   GL260712  25.820  13.280  16.340
 3238DPPE   C1A60713  25.410  13.000  16.290
 3238DPPE   C2A60714  24.990  13.020  16.300
 3238DPPE   C3A60715  24.590  13.180  16.520
 3238DPPE   C4A60716  24.400  13.620  16.440
 3238DPPE   C1B60717  25.670  13.500  16.200
 3238DPPE   C2B60718  25.280  13.620  15.940
 3238DPPE   C3B60719  24.980  13.910  15.830
 3238DPPE   C4B60720  24.620  14.080  16.060
 3239DPPE   NH360721  12.620  11.620  14.520
 3239DPPE   PO460722  12.400  11.290  14.270
 3239DPPE   GL160723  11.990  11.410  14.180
 3239DPPE   GL260724  11.960  11.130  14.040
 3239DPPE   C1A60725  11.650  11.470  14.400
 3239DPPE   C2A60726  11.260  11.320  14.570
 3239DPPE   C3A60727  10.880  11.180  14.600
 3239DPPE   C4A60728  10.550  10.920  14.500
 3239DPPE   C1B60729  11.490  11.000  14.200
 3239DPPE   C2B60730  11.200  10.680  14.340
 3239DPPE   C3B60731  10.980  10.620  14.680
 3239DPPE   C4B60732  10.640  10.750  14.940
 3240DPPE   NH360733  20.820  16.400  23.670
 3240DPPE   PO460734  21.230  16.310  23.470
 3240DPPE   GL160735  21.100  16.480  23.010
 3240DPPE   GL260736  21.210  16.330  22.730
 3240DPPE   C1A60737  20.680  16.480  22.810
 3240DPPE   C2A60738  20.460  16.460  22.480
 3240DPPE   C3A60739  20.210  16.130  22.390
 3240DPPE   C4A60740  20.160  15.600  22.450
 3240DPPE   C1B60741  20.930  15.980  22.710
 3240DPPE   C2B60742  20.690  15.630  22.490
 3240DPPE   C3B60743  20.590  15.340  22.210
 3240DPPE   C4B60744  20.520  14.970  22.150
 3241DPPE   NH360745  17.670  13.860   0.340
 3241DPPE   PO460746  17.890  13.650   0.680
 3241DPPE   GL160747  17.840  13.360   1.050
 3241DPPE   GL260748  18.130  13.100   1.000
 3241DPPE   C1A60749  17.720  13.310   1.440
 3241DPPE   C2A60750  17.430  13.380   1.750
 3241DPPE   C3A60751  17.130  13.400   2.120
 3241DPPE   C4A60752  17.060  13.560   2.640
 3241DPPE   C1B60753  18.230  12.980   1.470
 3241DPPE   C2B60754  18.110  13.190   1.810
 3241DPPE   C3B60755  17.780  13.420   2.110
 3241DPPE   C4B60756  17.490  13.460   2.440
 3242DPPE   NH360757  20.900  25.300   5.270
 3242DPPE   PO460758  20.920  24.840   5.090
 3242DPPE   GL160759  20.940  24.780   5.490
 3242DPPE   GL260760  20.670  24.930   5.560
 3242DPPE   C1A60761  20.750  24.500   5.770
 3242DPPE   C2A60762  20.390  24.720   6.060
 3242DPPE   C3A60763  20.420  24.830   6.550
 3242DPPE   C4A60764  20.540  24.530   6.830
 3242DPPE   C1B60765  20.480  25.200   5.840
 3242DPPE   C2B60766  20.130  25.120   5.940
 3242DPPE   C3B60767  19.700  25.300   6.090
 3242DPPE   C4B60768  19.500  25.510   6.340
 3243DPPE   NH360769  18.530  15.170  25.390
 3243DPPE   PO460770  18.500  15.580  25.430
 3243DPPE   GL160771  18.110  15.530  25.270
 3243DPPE   GL260772  18.040  15.260  25.180
 3243DPPE   C1A60773  17.680  15.570  25.230
 3243DPPE   C2A60774  17.380  15.840  25.060
 3243DPPE   C3A60775  17.200  16.050  24.750
 3243DPPE   C4A60776  16.820  16.050  24.530
 3243DPPE   C1B60777  17.810  15.130  24.820
 3243DPPE   C2B60778  17.450  15.370  24.750
 3243DPPE   C3B60779  17.100  15.550  24.730
 3243DPPE   C4B60780  16.630  15.610  24.630
 3244DPPE   NH360781   9.720  27.090  20.670
 3244DPPE   PO460782   9.590  26.920  20.930
 3244DPPE   GL160783   9.360  26.510  20.790
 3244DPPE   GL260784   9.050  26.550  21.000
 3244DPPE   C1A60785   9.240  26.180  20.580
 3244DPPE   C2A60786   9.340  25.740  20.430
 3244DPPE   C3A60787   9.440  25.360  20.410
 3244DPPE   C4A60788   9.470  24.950  20.720
 3244DPPE   C1B60789   9.320  26.190  21.190
 3244DPPE   C2B60790   9.540  25.880  20.990
 3244DPPE   C3B60791   9.800  25.690  20.680
 3244DPPE   C4B60792   9.900  25.290  20.560
 3245DPPE   NH360793   8.750  21.760  26.030
 3245DPPE   PO460794   9.030  21.430  25.910
 3245DPPE   GL160795   9.120  21.040  25.750
 3245DPPE   GL260796   8.800  20.980  25.740
 3245DPPE   C1A60797   9.270  20.720  25.430
 3245DPPE   C2A60798   9.620  20.580  25.320
 3245DPPE   C3A60799   9.890  20.470  24.890
 3245DPPE   C4A60800  10.030  20.710  24.390
 3245DPPE   C1B60801   8.680  20.950  25.270
 3245DPPE   C2B60802   8.430  21.140  25.110
 3245DPPE   C3B60803   8.240  21.260  24.720
 3245DPPE   C4B60804   8.220  21.200  24.330
 3246DPPE   NH360805   7.130  22.560   6.970
 3246DPPE   PO460806   7.070  22.220   6.570
 3246DPPE   GL160807   7.300  22.070   6.870
 3246DPPE   GL260808   7.470  22.240   7.080
 3246DPPE   C1A60809   7.330  21.600   7.060
 3246DPPE   C2A60810   7.260  21.250   7.340
 3246DPPE   C3A60811   7.150  20.880   7.540
 3246DPPE   C4A60812   7.250  20.510   7.670
 3246DPPE   C1B60813   7.730  21.910   7.440
 3246DPPE   C2B60814   7.710  21.520   7.440
 3246DPPE   C3B60815   7.700  21.000   7.400
 3246DPPE   C4B60816   7.600  20.540   7.340
 3247DPPE   NH360817  25.080  14.800  19.310
 3247DPPE   PO460818  24.940  14.930  19.680
 3247DPPE   GL160819  24.600  14.990  19.410
 3247DPPE   GL260820  24.320  14.730  19.420
 3247DPPE   C1A60821  24.360  15.230  19.260
 3247DPPE   C2A60822  24.150  15.530  19.530
 3247DPPE   C3A60823  23.870  15.360  19.910
 3247DPPE   C4A60824  23.690  14.960  19.910
 3247DPPE   C1B60825  23.970  14.500  19.430
 3247DPPE   C2B60826  23.530  14.350  19.290
 3247DPPE   C3B60827  23.170  14.350  19.020
 3247DPPE   C4B60828  22.880  14.180  18.700
 3248DPPE   NH360829  21.990  18.800  22.530
 3248DPPE   PO460830  21.970  19.000  22.900
 3248DPPE   GL160831  21.490  18.800  22.770
 3248DPPE   GL260832  21.240  19.000  22.730
 3248DPPE   C1A60833  21.040  18.650  22.420
 3248DPPE   C2A60834  20.710  18.550  22.210
 3248DPPE   C3A60835  20.590  18.490  21.800
 3248DPPE   C4A60836  20.430  18.160  21.490
 3248DPPE   C1B60837  20.880  19.140  22.390
 3248DPPE   C2B60838  20.570  19.090  22.060
 3248DPPE   C3B60839  20.330  18.980  21.830
 3248DPPE   C4B60840  20.120  19.050  21.500
 3249DPPE   NH360841  14.100  12.820   4.990
 3249DPPE   PO460842  13.750  12.530   4.800
 3249DPPE   GL160843  13.420  12.630   4.550
 3249DPPE   GL260844  13.360  12.890   4.270
 3249DPPE   C1A60845  12.990  12.610   4.480
 3249DPPE   C2A60846  12.700  12.390   4.140
 3249DPPE   C3A60847  12.320  12.430   3.870
 3249DPPE   C4A60848  11.870  12.250   3.850
 3249DPPE   C1B60849  13.210  12.610   3.960
 3249DPPE   C2B60850  13.440  12.460   3.600
 3249DPPE   C3B60851  13.410  12.090   3.440
 3249DPPE   C4B60852  13.280  11.660   3.370
 3250DPPE   NH360853   5.980  17.570  24.660
 3250DPPE   PO460854   6.340  17.320  24.840
 3250DPPE   GL160855   6.710  17.430  24.570
 3250DPPE   GL260856   6.960  17.490  24.490
 3250DPPE   C1A60857   6.720  17.210  24.150
 3250DPPE   C2A60858   6.890  17.220  23.740
 3250DPPE   C3A60859   6.890  16.830  23.340
 3250DPPE   C4A60860   6.860  16.830  22.920
 3250DPPE   C1B60861   7.020  17.600  24.120
 3250DPPE   C2B60862   6.900  17.700  23.670
 3250DPPE   C3B60863   6.800  17.410  23.290
 3250DPPE   C4B60864   6.980  17.310  22.890
 3251DPPE   NH360865  18.520  17.130  24.730
 3251DPPE   PO460866  18.970  17.390  24.790
 3251DPPE   GL160867  18.570  17.570  24.530
 3251DPPE   GL260868  18.470  17.820  24.600
 3251DPPE   C1A60869  18.240  17.440  24.180
 3251DPPE   C2A60870  17.840  17.320  23.790
 3251DPPE   C3A60871  17.550  17.100  23.510
 3251DPPE   C4A60872  17.450  16.810  23.060
 3251DPPE   C1B60873  18.040  17.910  24.280
 3251DPPE   C2B60874  17.900  17.850  23.810
 3251DPPE   C3B60875  18.150  17.980  23.360
 3251DPPE   C4B60876  18.010  17.780  22.980
 3252DPPE   NH360877   2.960  17.610  21.080
 3252DPPE   PO460878   2.880  18.000  21.190
 3252DPPE   GL160879   3.240  17.990  20.940
 3252DPPE   GL260880   3.360  18.250  21.000
 3252DPPE   C1A60881   3.670  17.920  20.770
 3252DPPE   C2A60882   3.730  18.220  20.450
 3252DPPE   C3A60883   3.910  18.160  20.080
 3252DPPE   C4A60884   4.060  18.120  19.680
 3252DPPE   C1B60885   3.660  18.470  20.910
 3252DPPE   C2B60886   4.080  18.660  20.940
 3252DPPE   C3B60887   4.250  19.100  20.970
 3252DPPE   C4B60888   4.440  19.530  20.940
 3253DPPE   NH360889  12.380  17.350  17.990
 3253DPPE   PO460890  12.440  17.780  17.900
 3253DPPE   GL160891  12.180  17.730  18.270
 3253DPPE   GL260892  12.410  17.810  18.450
 3253DPPE   C1A60893  11.740  17.740  18.530
 3253DPPE   C2A60894  11.560  17.640  18.850
 3253DPPE   C3A60895  11.560  17.850  19.180
 3253DPPE   C4A60896  11.370  17.810  19.540
 3253DPPE   C1B60897  12.180  17.810  18.820
 3253DPPE   C2B60898  11.920  18.160  18.940
 3253DPPE   C3B60899  11.550  18.300  18.860
 3253DPPE   C4B60900  11.100  18.530  18.810
 3254DPPE   NH360901  21.790  20.810  22.790
 3254DPPE   PO460902  22.030  20.500  22.660
 3254DPPE   GL160903  21.690  20.400  22.400
 3254DPPE   GL260904  21.470  20.690  22.440
 3254DPPE   C1A60905  21.520  20.320  21.950
 3254DPPE   C2A60906  21.180  20.500  21.960
 3254DPPE   C3A60907  20.840  20.520  21.780
 3254DPPE   C4A60908  20.360  20.420  21.720
 3254DPPE   C1B60909  21.050  20.680  22.560
 3254DPPE   C2B60910  20.650  20.670  22.690
 3254DPPE   C3B60911  20.320  20.340  22.690
 3254DPPE   C4B60912  19.880  20.240  22.610
 3255DPPE   NH360913  12.610  18.230  17.920
 3255DPPE   PO460914  12.950  18.420  18.210
 3255DPPE   GL160915  12.660  18.230  18.430
 3255DPPE   GL260916  12.850  18.080  18.680
 3255DPPE   C1A60917  12.340  18.370  18.590
 3255DPPE   C2A60918  11.960  18.630  18.660
 3255DPPE   C3A60919  11.660  18.800  18.720
 3255DPPE   C4A60920  11.320  18.890  19.060
 3255DPPE   C1B60921  12.650  17.880  19.020
 3255DPPE   C2B60922  12.280  17.930  19.290
 3255DPPE   C3B60923  11.910  17.780  19.520
 3255DPPE   C4B60924  11.760  17.600  19.790
 3256DPPE   NH360925  16.870  12.900  18.500
 3256DPPE   PO460926  16.470  12.890  18.480
 3256DPPE   GL160927  16.280  12.540  18.780
 3256DPPE   GL260928  16.140  12.240  18.510
 3256DPPE   C1A60929  16.210  12.390  19.160
 3256DPPE   C2A60930  16.040  12.030  19.350
 3256DPPE   C3A60931  16.170  11.720  19.650
 3256DPPE   C4A60932  16.560  11.510  19.730
 3256DPPE   C1B60933  15.720  12.310  18.380
 3256DPPE   C2B60934  15.290  12.470  18.390
 3256DPPE   C3B60935  15.040  12.780  18.430
 3256DPPE   C4B60936  14.530  12.850  18.620
 3257DPPE   NH360937   9.430  26.690   9.720
 3257DPPE   PO460938   9.470  26.390   9.380
 3257DPPE   GL160939   9.680  26.210   9.690
 3257DPPE   GL260940   9.500  25.910   9.810
 3257DPPE   C1A60941   9.980  25.880   9.660
 3257DPPE   C2A60942  10.310  25.810  10.010
 3257DPPE   C3A60943  10.590  25.530  10.430
 3257DPPE   C4A60944  10.610  25.080  10.510
 3257DPPE   C1B60945   9.780  26.030  10.100
 3257DPPE   C2B60946  10.150  25.940  10.460
 3257DPPE   C3B60947  10.140  25.530  10.630
 3257DPPE   C4B60948  10.150  25.140  10.700
 3258DPPE   NH360949   8.200  16.650  10.920
 3258DPPE   PO460950   7.760  16.440  10.920
 3258DPPE   GL160951   7.340  16.520  10.990
 3258DPPE   GL260952   7.380  16.480  11.310
 3258DPPE   C1A60953   6.940  16.530  10.930
 3258DPPE   C2A60954   6.590  16.250  10.750
 3258DPPE   C3A60955   6.180  16.240  10.660
 3258DPPE   C4A60956   5.900  15.940  10.540
 3258DPPE   C1B60957   6.970  16.550  11.410
 3258DPPE   C2B60958   6.580  16.620  11.240
 3258DPPE   C3B60959   6.220  16.460  11.110
 3258DPPE   C4B60960   5.870  16.110  11.190
 3259DPPE   NH360961  18.880  13.540  24.430
 3259DPPE   PO460962  19.020  13.990  24.210
 3259DPPE   GL160963  18.750  13.770  23.980
 3259DPPE   GL260964  18.670  13.410  24.010
 3259DPPE   C1A60965  18.300  13.730  23.820
 3259DPPE   C2A60966  17.910  13.730  23.460
 3259DPPE   C3A60967  17.640  13.910  23.250
 3259DPPE   C4A60968  17.300  13.980  23.200
 3259DPPE   C1B60969  18.410  13.130  23.700
 3259DPPE   C2B60970  18.470  12.990  23.300
 3259DPPE   C3B60971  18.570  12.830  22.960
 3259DPPE   C4B60972  18.680  13.010  22.510
 3260DPPE   NH360973  16.410  18.820  20.140
 3260DPPE   PO460974  16.190  18.400  20.260
 3260DPPE   GL160975  15.900  18.250  20.490
 3260DPPE   GL260976  15.710  18.370  20.830
 3260DPPE   C1A60977  15.420  17.990  20.670
 3260DPPE   C2A60978  15.420  17.640  20.920
 3260DPPE   C3A60979  15.230  17.430  21.240
 3260DPPE   C4A60980  15.050  17.330  21.590
 3260DPPE   C1B60981  15.830  18.190  21.200
 3260DPPE   C2B60982  15.840  18.330  21.630
 3260DPPE   C3B60983  15.970  18.220  22.100
 3260DPPE   C4B60984  15.760  17.920  22.280
 3261DPPE   NH360985   7.970  11.920  25.280
 3261DPPE   PO460986   8.120  11.610  24.970
 3261DPPE   GL160987   8.110  11.740  24.590
 3261DPPE   GL260988   8.070  11.620  24.310
 3261DPPE   C1A60989   8.220  12.180  24.410
 3261DPPE   C2A60990   7.940  12.430  24.120
 3261DPPE   C3A60991   7.670  12.560  23.830
 3261DPPE   C4A60992   7.510  12.590  23.360
 3261DPPE   C1B60993   8.480  11.540  24.110
 3261DPPE   C2B60994   8.790  11.420  23.980
 3261DPPE   C3B60995   9.120  11.300  24.230
 3261DPPE   C4B60996   9.420  11.130  24.490
 3262DPPE   NH360997  14.090  18.450  18.500
 3262DPPE   PO460998  13.660  18.740  18.660
 3262DPPE   GL160999  13.270  18.720  18.810
 3262DPPE   GL261000  13.200  18.440  18.660
 3262DPPE   C1A61001  13.060  18.770  19.210
 3262DPPE   C2A61002  12.890  18.660  19.530
 3262DPPE   C3A61003  12.560  18.610  19.870
 3262DPPE   C4A61004  12.680  18.720  20.230
 3262DPPE   C1B61005  12.830  18.510  18.900
 3262DPPE   C2B61006  12.360  18.440  19.100
 3262DPPE   C3B61007  12.000  18.380  19.370
 3262DPPE   C4B61008  11.680  18.280  19.690
 3263DPPE   NH361009  18.560  19.290   5.320
 3263DPPE   PO461010  18.830  19.560   5.420
 3263DPPE   GL161011  18.700  19.670   5.010
 3263DPPE   GL261012  18.980  19.750   4.810
 3263DPPE   C1A61013  18.490  19.560   4.650
 3263DPPE   C2A61014  18.490  19.800   4.190
 3263DPPE   C3A61015  18.310  20.000   3.880
 3263DPPE   C4A61016  18.190  20.080   3.490
 3263DPPE   C1B61017  18.910  20.100   4.480
 3263DPPE   C2B61018  18.890  20.420   4.160
 3263DPPE   C3B61019  19.000  20.870   4.110
 3263DPPE   C4B61020  19.230  21.150   3.980
 3264DPPE   NH361021  21.590  28.190  10.530
 3264DPPE   PO461022  21.400  28.310  10.910
 3264DPPE   GL161023  21.460  27.750  10.980
 3264DPPE   GL261024  21.430  27.580  10.630
 3264DPPE   C1A61025  21.230  27.510  11.180
 3264DPPE   C2A61026  20.980  27.120  11.380
 3264DPPE   C3A61027  20.780  26.980  11.790
 3264DPPE   C4A61028  20.460  26.950  12.160
 3264DPPE   C1B61029  21.320  27.100  10.520
 3264DPPE   C2B61030  21.430  26.750  10.390
 3264DPPE   C3B61031  21.330  26.500  10.210
 3264DPPE   C4B61032  21.320  26.160   9.950
 3265DPPE   NH361033  11.950  16.200  16.650
 3265DPPE   PO461034  11.670  15.900  16.560
 3265DPPE   GL161035  11.380  15.880  16.830
 3265DPPE   GL261036  11.230  16.190  16.870
 3265DPPE   C1A61037  10.860  15.760  16.830
 3265DPPE   C2A61038  10.440  15.670  17.050
 3265DPPE   C3A61039  10.060  15.410  17.330
 3265DPPE   C4A61040   9.830  15.060  17.350
 3265DPPE   C1B61041  10.950  16.290  17.270
 3265DPPE   C2B61042  10.650  16.360  17.580
 3265DPPE   C3B61043  10.210  16.360  17.720
 3265DPPE   C4B61044   9.800  16.300  17.770
 3266DPPE   NH361045   3.230  18.380  11.290
 3266DPPE   PO461046   3.310  18.360  10.820
 3266DPPE   GL161047   3.670  18.460  10.920
 3266DPPE   GL261048   3.670  18.700  11.220
 3266DPPE   C1A61049   4.190  18.450  11.030
 3266DPPE   C2A61050   4.400  18.320  11.190
 3266DPPE   C3A61051   4.840  18.300  11.070
 3266DPPE   C4A61052   5.280  18.210  11.080
 3266DPPE   C1B61053   3.960  18.390  11.490
 3266DPPE   C2B61054   4.380  18.590  11.660
 3266DPPE   C3B61055   4.830  18.330  11.560
 3266DPPE   C4B61056   5.270  18.140  11.680
 3267DPPE   NH361057  12.920  10.830  13.700
 3267DPPE   PO461058  12.640  10.720  14.080
 3267DPPE   GL161059  12.330  10.790  14.440
 3267DPPE   GL261060  12.410  10.770  14.810
 3267DPPE   C1A61061  11.920  10.900  14.480
 3267DPPE   C2A61062  11.520  10.840  14.650
 3267DPPE   C3A61063  11.310  10.750  15.020
 3267DPPE   C4A61064  11.470  10.730  15.390
 3267DPPE   C1B61065  12.580  10.860  15.190
 3267DPPE   C2B61066  12.540  10.880  15.650
 3267DPPE   C3B61067  12.410  10.690  16.090
 3267DPPE   C4B61068  12.150  10.600  16.440
 3268DPPE   NH361069  11.340  12.080  13.180
 3268DPPE   PO461070  11.000  11.820  13.000
 3268DPPE   GL161071  10.590  11.950  13.140
 3268DPPE   GL261072  10.430  12.200  13.050
 3268DPPE   C1A61073  10.240  11.790  13.440
 3268DPPE   C2A61074   9.780  11.780  13.320
 3268DPPE   C3A61075   9.300  11.790  13.400
 3268DPPE   C4A61076   8.820  11.660  13.250
 3268DPPE   C1B61077  10.070  12.240  13.390
 3268DPPE   C2B61078   9.680  12.370  13.500
 3268DPPE   C3B61079   9.340  12.260  13.530
 3268DPPE   C4B61080   8.880  12.130  13.470
 3269DPPE   NH361081  16.510   7.910   3.170
 3269DPPE   PO461082  16.640   8.130   2.900
 3269DPPE   GL161083  16.460   8.460   3.210
 3269DPPE   GL261084  16.330   8.700   3.100
 3269DPPE   C1A61085  16.410   8.510   3.650
 3269DPPE   C2A61086  16.260   8.680   3.970
 3269DPPE   C3A61087  15.950   8.600   4.170
 3269DPPE   C4A61088  15.810   8.810   4.500
 3269DPPE   C1B61089  16.510   8.940   3.330
 3269DPPE   C2B61090  16.700   9.200   3.700
 3269DPPE   C3B61091  16.580   9.530   3.890
 3269DPPE   C4B61092  16.740   9.840   4.290
 3270DPPE   NH361093   8.000  26.730  17.070
 3270DPPE   PO461094   8.350  26.410  16.940
 3270DPPE   GL161095   8.390  26.070  17.010
 3270DPPE   GL261096   8.330  25.810  17.210
 3270DPPE   C1A61097   8.440  25.710  16.680
 3270DPPE   C2A61098   8.700  25.360  16.670
 3270DPPE   C3A61099   8.830  24.960  16.410
 3270DPPE   C4A61100   9.120  24.600  16.310
 3270DPPE   C1B61101   8.190  25.340  17.060
 3270DPPE   C2B61102   8.490  25.050  16.910
 3270DPPE   C3B61103   8.350  24.650  17.110
 3270DPPE   C4B61104   8.100  24.350  16.990
 3271DPPE   NH361105   6.770   9.400  21.940
 3271DPPE   PO461106   7.060   8.970  22.090
 3271DPPE   GL161107   7.330   9.360  21.890
 3271DPPE   GL261108   7.590   9.180  21.800
 3271DPPE   C1A61109   7.490   9.530  21.380
 3271DPPE   C2A61110   7.230   9.920  21.280
 3271DPPE   C3A61111   7.420  10.380  21.240
 3271DPPE   C4A61112   7.830  10.520  21.230
 3271DPPE   C1B61113   7.820   9.520  21.800
 3271DPPE   C2B61114   8.260   9.560  21.700
 3271DPPE   C3B61115   8.610   9.900  21.580
 3271DPPE   C4B61116   8.730  10.320  21.770
 3272DPPE   NH361117   9.040   7.660  22.430
 3272DPPE   PO461118   9.490   7.450  22.350
 3272DPPE   GL161119   9.590   7.800  22.350
 3272DPPE   GL261120   9.420   8.020  22.530
 3272DPPE   C1A61121   9.720   8.100  22.070
 3272DPPE   C2A61122  10.060   8.310  22.160
 3272DPPE   C3A61123  10.220   8.700  22.230
 3272DPPE   C4A61124   9.810   8.910  22.360
 3272DPPE   C1B61125   9.650   8.300  22.510
 3272DPPE   C2B61126   9.390   8.740  22.580
 3272DPPE   C3B61127   9.330   8.980  23.040
 3272DPPE   C4B61128   9.270   9.360  23.240
 3273DPPE   NH361129  11.180   5.990   7.090
 3273DPPE   PO461130  11.250   6.550   7.250
 3273DPPE   GL161131  11.500   6.910   7.600
 3273DPPE   GL261132  11.520   7.250   7.690
 3273DPPE   C1A61133  11.910   6.920   7.820
 3273DPPE   C2A61134  12.170   7.270   7.870
 3273DPPE   C3A61135  12.290   7.690   7.940
 3273DPPE   C4A61136  12.540   7.980   8.040
 3273DPPE   C1B61137  11.760   7.650   7.810
 3273DPPE   C2B61138  11.920   7.990   7.740
 3273DPPE   C3B61139  11.960   8.330   7.990
 3273DPPE   C4B61140  12.050   8.550   8.400
 3274DPPE   NH361141  17.620  21.780  24.090
 3274DPPE   PO461142  17.850  22.070  23.910
 3274DPPE   GL161143  17.910  21.820  23.590
 3274DPPE   GL261144  17.530  21.640  23.580
 3274DPPE   C1A61145  17.950  21.820  23.180
 3274DPPE   C2A61146  18.000  21.720  22.860
 3274DPPE   C3A61147  18.190  21.330  22.700
 3274DPPE   C4A61148  18.370  21.050  22.410
 3274DPPE   C1B61149  17.460  21.740  23.150
 3274DPPE   C2B61150  17.360  21.720  22.720
 3274DPPE   C3B61151  17.080  21.480  22.360
 3274DPPE   C4B61152  17.080  21.410  21.860
 3275DPPE   NH361153  13.120  11.230   1.190
 3275DPPE   PO461154  12.810  11.030   1.480
 3275DPPE   GL161155  13.160  11.220   1.750
 3275DPPE   GL261156  12.920  11.310   2.020
 3275DPPE   C1A61157  13.260  10.960   2.180
 3275DPPE   C2A61158  13.060  11.130   2.530
 3275DPPE   C3A61159  12.760  11.190   2.870
 3275DPPE   C4A61160  12.720  11.340   3.290
 3275DPPE   C1B61161  12.680  11.660   2.040
 3275DPPE   C2B61162  12.790  12.050   2.090
 3275DPPE   C3B61163  12.910  12.330   2.260
 3275DPPE   C4B61164  13.210  12.510   2.680
 3276DPPE   NH361165  10.760   5.010  16.710
 3276DPPE   PO461166  11.150   5.120  16.750
 3276DPPE   GL161167  11.150   5.620  16.780
 3276DPPE   GL261168  11.460   5.630  16.720
 3276DPPE   C1A61169  11.110   6.060  16.770
 3276DPPE   C2A61170  10.950   6.460  16.650
 3276DPPE   C3A61171  10.580   6.460  16.430
 3276DPPE   C4A61172  10.230   6.660  16.510
 3276DPPE   C1B61173  11.480   5.980  16.520
 3276DPPE   C2B61174  11.600   6.420  16.500
 3276DPPE   C3B61175  11.650   6.880  16.710
 3276DPPE   C4B61176  11.540   7.260  16.660
 3277DPPE   NH361177  14.010  20.920  19.030
 3277DPPE   PO461178  14.130  20.440  19.090
 3277DPPE   GL161179  13.780  20.530  19.290
 3277DPPE   GL261180  13.630  20.270  19.180
 3277DPPE   C1A61181  13.670  20.700  19.540
 3277DPPE   C2A61182  13.520  21.040  19.920
 3277DPPE   C3A61183  13.440  21.230  20.250
 3277DPPE   C4A61184  13.100  21.510  20.470
 3277DPPE   C1B61185  13.360  20.290  19.560
 3277DPPE   C2B61186  13.210  20.090  19.740
 3277DPPE   C3B61187  12.850  19.830  19.950
 3277DPPE   C4B61188  12.480  19.610  19.810
 3278DPPE   NH361189  26.860  23.000  13.500
 3278DPPE   PO461190  27.050  23.390  13.390
 3278DPPE   GL161191  26.610  23.580  13.420
 3278DPPE   GL261192  26.560  23.800  13.610
 3278DPPE   C1A61193  26.290  23.290  13.360
 3278DPPE   C2A61194  26.060  22.970  13.200
 3278DPPE   C3A61195  25.840  22.700  13.300
 3278DPPE   C4A61196  25.490  22.520  13.000
 3278DPPE   C1B61197  26.130  23.760  13.770
 3278DPPE   C2B61198  25.700  23.570  13.760
 3278DPPE   C3B61199  25.260  23.640  13.940
 3278DPPE   C4B61200  24.810  23.740  13.610
 3279DPPE   NH361201  11.490  14.320  14.340
 3279DPPE   PO461202  11.360  13.830  14.280
 3279DPPE   GL161203  10.930  13.570  14.300
 3279DPPE   GL261204  10.870  13.400  14.020
 3279DPPE   C1A61205  10.660  13.430  14.600
 3279DPPE   C2A61206  10.380  13.380  14.870
 3279DPPE   C3A61207  10.010  13.240  14.840
 3279DPPE   C4A61208   9.650  13.300  15.070
 3279DPPE   C1B61209  10.660  13.030  14.270
 3279DPPE   C2B61210  10.290  12.790  14.290
 3279DPPE   C3B61211   9.920  12.730  14.420
 3279DPPE   C4B61212   9.740  12.770  14.760
 3280DPPE   NH361213  14.040  17.290  23.770
 3280DPPE   PO461214  14.140  17.220  23.260
 3280DPPE   GL161215  14.200  17.000  22.830
 3280DPPE   GL261216  13.980  16.860  22.610
 3280DPPE   C1A61217  14.440  17.160  22.590
 3280DPPE   C2A61218  14.560  17.500  22.360
 3280DPPE   C3A61219  14.980  17.520  22.130
 3280DPPE   C4A61220  15.160  17.920  21.920
 3280DPPE   C1B61221  14.100  17.220  22.210
 3280DPPE   C2B61222  14.420  17.300  21.920
 3280DPPE   C3B61223  14.830  17.040  21.950
 3280DPPE   C4B61224  14.900  16.970  22.370
 3281DPPE   NH361225   8.020  22.410  19.840
 3281DPPE   PO461226   7.700  22.330  19.520
 3281DPPE   GL161227   7.620  22.790  19.720
 3281DPPE   GL261228   7.300  22.900  19.740
 3281DPPE   C1A61229   7.720  22.980  20.090
 3281DPPE   C2A61230   7.620  23.220  20.470
 3281DPPE   C3A61231   7.550  23.400  20.870
 3281DPPE   C4A61232   7.260  23.530  21.150
 3281DPPE   C1B61233   7.240  22.940  20.250
 3281DPPE   C2B61234   7.290  22.510  20.520
 3281DPPE   C3B61235   7.670  22.260  20.640
 3281DPPE   C4B61236   8.020  22.430  20.830
 3282DPPE   NH361237  11.640  16.400  23.040
 3282DPPE   PO461238  11.810  16.700  23.390
 3282DPPE   GL161239  11.580  16.680  23.680
 3282DPPE   GL261240  11.630  16.770  23.950
 3282DPPE   C1A61241  11.430  16.350  24.080
 3282DPPE   C2A61242  11.500  16.230  24.500
 3282DPPE   C3A61243  11.660  16.260  24.970
 3282DPPE   C4A61244  11.750  16.280  25.420
 3282DPPE   C1B61245  11.400  16.780  24.400
 3282DPPE   C2B61246  11.510  16.720  24.790
 3282DPPE   C3B61247  11.530  16.650  25.200
 3282DPPE   C4B61248  11.540  16.720  25.640
 3283DPPE   NH361249   5.890  15.320  17.480
 3283DPPE   PO461250   5.730  15.590  17.820
 3283DPPE   GL161251   5.540  15.930  17.950
 3283DPPE   GL261252   5.420  15.740  18.220
 3283DPPE   C1A61253   5.010  15.980  18.160
 3283DPPE   C2A61254   4.750  15.930  18.430
 3283DPPE   C3A61255   4.340  16.040  18.530
 3283DPPE   C4A61256   3.980  16.040  18.870
 3283DPPE   C1B61257   5.140  15.560  18.460
 3283DPPE   C2B61258   4.740  15.460  18.710
 3283DPPE   C3B61259   4.430  15.250  18.870
 3283DPPE   C4B61260   4.440  14.890  19.100
 3284DPPE   NH361261  10.570  12.370  21.180
 3284DPPE   PO461262  10.230  12.450  21.440
 3284DPPE   GL161263   9.890  12.310  21.670
 3284DPPE   GL261264   9.980  12.390  21.920
 3284DPPE   C1A61265   9.400  12.350  21.730
 3284DPPE   C2A61266   9.080  12.060  21.880
 3284DPPE   C3A61267   8.840  11.860  22.110
 3284DPPE   C4A61268   8.450  11.740  22.140
 3284DPPE   C1B61269   9.620  12.140  22.110
 3284DPPE   C2B61270   9.290  12.060  22.350
 3284DPPE   C3B61271   8.990  11.920  22.570
 3284DPPE   C4B61272   8.630  11.840  22.830
 3285DPPE   NH361273  13.540  11.980  23.040
 3285DPPE   PO461274  13.260  11.670  22.770
 3285DPPE   GL161275  13.150  11.560  23.070
 3285DPPE   GL261276  13.280  11.180  23.020
 3285DPPE   C1A61277  13.160  11.440  23.520
 3285DPPE   C2A61278  13.190  11.280  24.010
 3285DPPE   C3A61279  12.890  11.330  24.400
 3285DPPE   C4A61280  12.500  11.300  24.760
 3285DPPE   C1B61281  13.400  10.960  23.430
 3285DPPE   C2B61282  13.480  10.820  23.870
 3285DPPE   C3B61283  13.350  10.850  24.290
 3285DPPE   C4B61284  13.520  10.640  24.630
 3286DPPE   NH361285  14.290  15.980  23.290
 3286DPPE   PO461286  13.950  15.670  23.310
 3286DPPE   GL161287  13.980  15.930  22.860
 3286DPPE   GL261288  14.240  15.780  22.840
 3286DPPE   C1A61289  13.930  16.070  22.460
 3286DPPE   C2A61290  13.910  16.450  22.260
 3286DPPE   C3A61291  13.960  16.770  22.000
 3286DPPE   C4A61292  13.960  16.960  21.590
 3286DPPE   C1B61293  14.440  15.660  22.460
 3286DPPE   C2B61294  14.530  15.730  22.000
 3286DPPE   C3B61295  14.540  15.890  21.580
 3286DPPE   C4B61296  14.290  15.780  21.200
 3287DPPE   NH361297   8.860  10.440  16.130
 3287DPPE   PO461298   9.220  10.350  15.990
 3287DPPE   GL161299   9.550  10.510  15.750
 3287DPPE   GL261300   9.720  10.310  15.450
 3287DPPE   C1A61301   9.970  10.720  15.550
 3287DPPE   C2A61302  10.140  10.990  15.280
 3287DPPE   C3A61303  10.300  11.100  14.900
 3287DPPE   C4A61304  10.350  11.450  14.700
 3287DPPE   C1B61305   9.720  10.260  15.080
 3287DPPE   C2B61306   9.740  10.350  14.620
 3287DPPE   C3B61307   9.990  10.620  14.400
 3287DPPE   C4B61308  10.270  10.830  14.100
 3288DPPE   NH361309   7.540  22.670  18.660
 3288DPPE   PO461310   7.140  22.710  18.410
 3288DPPE   GL161311   7.000  23.090  18.330
 3288DPPE   GL261312   6.990  23.190  18.130
 3288DPPE   C1A61313   6.680  23.450  18.430
 3288DPPE   C2A61314   6.360  23.720  18.200
 3288DPPE   C3A61315   6.350  24.160  18.340
 3288DPPE   C4A61316   6.150  24.380  18.750
 3288DPPE   C1B61317   6.620  23.420  17.870
 3288DPPE   C2B61318   6.350  23.670  17.720
 3288DPPE   C3B61319   6.060  24.010  17.800
 3288DPPE   C4B61320   5.700  24.220  17.780
 3289DPPE   NH361321  11.710  21.740  21.730
 3289DPPE   PO461322  11.900  21.340  21.790
 3289DPPE   GL161323  12.260  21.350  21.610
 3289DPPE   GL261324  12.490  21.640  21.430
 3289DPPE   C1A61325  12.460  21.100  21.310
 3289DPPE   C2A61326  12.780  20.970  20.980
 3289DPPE   C3A61327  12.890  20.930  20.540
 3289DPPE   C4A61328  13.040  20.640  20.310
 3289DPPE   C1B61329  12.740  21.980  21.270
 3289DPPE   C2B61330  12.860  22.390  21.200
 3289DPPE   C3B61331  13.270  22.650  21.130
 3289DPPE   C4B61332  13.440  22.870  20.750
 3290DPPE   NH361333   4.950  20.480  16.520
 3290DPPE   PO461334   5.110  20.090  16.210
 3290DPPE   GL161335   4.760  19.950  16.140
 3290DPPE   GL261336   4.680  19.670  16.150
 3290DPPE   C1A61337   4.310  20.060  16.020
 3290DPPE   C2A61338   3.870  19.940  15.990
 3290DPPE   C3A61339   3.530  19.780  16.230
 3290DPPE   C4A61340   3.190  19.700  16.410
 3290DPPE   C1B61341   4.350  19.540  16.390
 3290DPPE   C2B61342   3.880  19.510  16.480
 3290DPPE   C3B61343   3.570  19.370  16.730
 3290DPPE   C4B61344   3.180  19.560  16.910
 3291DPPE   NH361345  12.140  10.770  21.560
 3291DPPE   PO461346  12.230  10.370  21.510
 3291DPPE   GL161347  12.290  10.160  21.770
 3291DPPE   GL261348  12.490   9.910  21.820
 3291DPPE   C1A61349  12.140  10.120  22.180
 3291DPPE   C2A61350  12.180   9.910  22.580
 3291DPPE   C3A61351  12.170   9.820  22.940
 3291DPPE   C4A61352  12.270   9.620  23.380
 3291DPPE   C1B61353  12.340   9.590  22.040
 3291DPPE   C2B61354  12.100   9.440  22.380
 3291DPPE   C3B61355  12.060   9.310  22.750
 3291DPPE   C4B61356  12.050   9.170  23.120
 3292DPPE   NH361357   9.030  23.260  20.240
 3292DPPE   PO461358   9.230  23.380  19.850
 3292DPPE   GL161359   9.320  23.850  19.620
 3292DPPE   GL261360   9.130  24.030  19.350
 3292DPPE   C1A61361   9.670  24.160  19.800
 3292DPPE   C2A61362   9.520  24.540  19.980
 3292DPPE   C3A61363   9.670  24.850  20.280
 3292DPPE   C4A61364   9.890  24.720  20.580
 3292DPPE   C1B61365   9.310  24.310  19.030
 3292DPPE   C2B61366   9.460  24.660  18.820
 3292DPPE   C3B61367   9.740  24.920  18.560
 3292DPPE   C4B61368   9.850  25.310  18.390
 3293DPPE   NH361369  10.340   8.600  17.870
 3293DPPE   PO461370  10.600   8.240  17.780
 3293DPPE   GL161371  10.480   7.820  17.960
 3293DPPE   GL261372  10.850   7.800  18.100
 3293DPPE   C1A61373  10.290   7.410  18.010
 3293DPPE   C2A61374  10.220   7.160  17.650
 3293DPPE   C3A61375  10.390   7.000  17.320
 3293DPPE   C4A61376  10.580   6.800  16.830
 3293DPPE   C1B61377  10.730   7.430  18.340
 3293DPPE   C2B61378  10.450   7.290  18.670
 3293DPPE   C3B61379  10.530   6.870  18.760
 3293DPPE   C4B61380  10.730   6.700  19.070
 3294DPPE   NH361381  11.170   8.680  16.910
 3294DPPE   PO461382  11.450   8.980  17.230
 3294DPPE   GL161383  11.790   9.270  17.280
 3294DPPE   GL261384  11.840   9.650  17.180
 3294DPPE   C1A61385  12.160   9.300  17.240
 3294DPPE   C2A61386  12.620   9.400  17.290
 3294DPPE   C3A61387  13.040   9.450  17.020
 3294DPPE   C4A61388  13.280   9.630  16.640
 3294DPPE   C1B61389  11.930   9.590  16.790
 3294DPPE   C2B61390  12.400   9.320  16.820
 3294DPPE   C3B61391  12.730   9.280  16.560
 3294DPPE   C4B61392  12.950   8.930  16.330
 3295DPPE   NH361393  12.170  18.760  23.550
 3295DPPE   PO461394  12.080  18.300  23.810
 3295DPPE   GL161395  12.090  18.430  24.280
 3295DPPE   GL261396  12.100  18.790  24.330
 3295DPPE   C1A61397  12.130  18.410  24.690
 3295DPPE   C2A61398  11.930  18.280  25.010
 3295DPPE   C3A61399  11.880  18.020  25.290
 3295DPPE   C4A61400  11.570  18.070  25.630
 3295DPPE   C1B61401  11.850  18.870  24.740
 3295DPPE   C2B61402  11.900  19.100  25.070
 3295DPPE   C3B61403  11.980  19.050  25.440
 3295DPPE   C4B61404  12.320  18.900  25.580
 3296DPPE   NH361405   9.060  20.930  20.820
 3296DPPE   PO461406   8.660  21.060  20.880
 3296DPPE   GL161407   8.410  21.120  21.100
 3296DPPE   GL261408   8.460  21.340  21.250
 3296DPPE   C1A61409   8.060  21.070  21.400
 3296DPPE   C2A61410   7.740  21.150  21.730
 3296DPPE   C3A61411   7.640  21.180  22.060
 3296DPPE   C4A61412   7.190  21.280  22.270
 3296DPPE   C1B61413   8.470  21.520  21.680
 3296DPPE   C2B61414   8.410  21.580  22.100
 3296DPPE   C3B61415   8.230  21.680  22.490
 3296DPPE   C4B61416   8.110  21.660  22.880
 3297DPPE   NH361417   9.210  11.360  19.360
 3297DPPE   PO461418   9.260  11.760  19.520
 3297DPPE   GL161419   8.850  11.400  19.720
 3297DPPE   GL261420   8.930  11.210  19.800
 3297DPPE   C1A61421   8.480  11.360  19.750
 3297DPPE   C2A61422   8.170  11.120  19.900
 3297DPPE   C3A61423   7.730  11.020  19.920
 3297DPPE   C4A61424   7.260  10.880  19.690
 3297DPPE   C1B61425   8.650  10.990  20.040
 3297DPPE   C2B61426   8.560  10.710  20.380
 3297DPPE   C3B61427   8.530  10.560  20.810
 3297DPPE   C4B61428   8.440  10.420  21.220
 3298DPPE   NH361429  10.250  11.050  20.370
 3298DPPE   PO461430  10.070  11.200  20.030
 3298DPPE   GL161431   9.760  10.920  20.220
 3298DPPE   GL261432   9.960  10.700  20.110
 3298DPPE   C1A61433   9.530  10.670  20.570
 3298DPPE   C2A61434   9.430  10.540  20.900
 3298DPPE   C3A61435   9.470  10.820  21.280
 3298DPPE   C4A61436   9.800  10.920  21.620
 3298DPPE   C1B61437   9.770  10.330  20.240
 3298DPPE   C2B61438   9.430  10.090  20.510
 3298DPPE   C3B61439   9.140  10.080  20.880
 3298DPPE   C4B61440   8.750  10.080  21.070
 3299DPPE   NH361441   7.970  20.470  18.430
 3299DPPE   PO461442   7.720  20.790  18.240
 3299DPPE   GL161443   8.070  21.000  18.240
 3299DPPE   GL261444   8.010  21.300  18.170
 3299DPPE   C1A61445   8.480  21.050  18.320
 3299DPPE   C2A61446   8.670  21.470  18.230
 3299DPPE   C3A61447   9.030  21.610  17.950
 3299DPPE   C4A61448   9.310  21.910  17.640
 3299DPPE   C1B61449   8.330  21.340  17.950
 3299DPPE   C2B61450   8.680  21.480  17.650
 3299DPPE   C3B61451   8.840  21.810  17.450
 3299DPPE   C4B61452   8.630  22.070  17.160
 3300DPPE   NH361453   9.940  20.420  22.370
 3300DPPE   PO461454  10.450  20.470  22.370
 3300DPPE   GL161455  10.180  20.580  22.810
 3300DPPE   GL261456  10.400  20.660  23.100
 3300DPPE   C1A61457   9.850  20.630  23.010
 3300DPPE   C2A61458   9.610  20.840  23.350
 3300DPPE   C3A61459   9.570  20.850  23.810
 3300DPPE   C4A61460   9.720  21.110  24.070
 3300DPPE   C1B61461  10.480  20.850  23.450
 3300DPPE   C2B61462  10.430  21.070  23.750
 3300DPPE   C3B61463  10.680  21.180  24.160
 3300DPPE   C4B61464  10.760  21.320  24.550
 3301DPPE   NH361465   8.310  16.340  20.940
 3301DPPE   PO461466   8.530  15.840  20.880
 3301DPPE   GL161467   8.220  15.790  21.180
 3301DPPE   GL261468   7.950  15.940  21.040
 3301DPPE   C1A61469   7.900  15.830  21.600
 3301DPPE   C2A61470   7.480  15.830  21.710
 3301DPPE   C3A61471   7.100  15.830  21.880
 3301DPPE   C4A61472   6.770  15.900  21.740
 3301DPPE   C1B61473   7.540  16.020  21.260
 3301DPPE   C2B61474   7.270  16.320  21.460
 3301DPPE   C3B61475   7.340  16.620  21.660
 3301DPPE   C4B61476   7.330  16.720  22.090
 3302DPPE   NH361477   9.280  20.330  21.580
 3302DPPE   PO461478   9.200  20.780  21.750
 3302DPPE   GL161479   9.130  20.910  22.190
 3302DPPE   GL261480   8.830  20.760  22.190
 3302DPPE   C1A61481   9.070  20.970  22.610
 3302DPPE   C2A61482   8.870  21.020  22.920
 3302DPPE   C3A61483   8.670  20.970  23.280
 3302DPPE   C4A61484   8.460  21.280  23.570
 3302DPPE   C1B61485   8.560  21.020  22.410
 3302DPPE   C2B61486   8.510  21.310  22.670
 3302DPPE   C3B61487   8.570  21.420  23.110
 3302DPPE   C4B61488   8.440  21.750  23.370
 3303DPPE   NH361489  14.530  17.510  24.440
 3303DPPE   PO461490  14.890  17.660  24.610
 3303DPPE   GL161491  15.200  17.780  24.940
 3303DPPE   GL261492  15.460  17.830  24.730
 3303DPPE   C1A61493  15.250  17.930  25.450
 3303DPPE   C2A61494  14.860  17.960  25.670
 3303DPPE   C3A61495  14.400  17.890  25.510
 3303DPPE   C4A61496  14.040  17.760  25.380
 3303DPPE   C1B61497  15.490  18.250  24.970
 3303DPPE   C2B61498  15.930  18.430  25.010
 3303DPPE   C3B61499  16.410  18.310  24.770
 3303DPPE   C4B61500  16.820  18.220  24.570
 3304DPPE   NH361501   6.010  16.980  14.670
 3304DPPE   PO461502   6.240  16.560  14.510
 3304DPPE   GL161503   6.640  16.450  14.270
 3304DPPE   GL261504   6.440  16.580  14.030
 3304DPPE   C1A61505   6.980  16.140  14.110
 3304DPPE   C2A61506   7.340  16.090  13.840
 3304DPPE   C3A61507   7.670  15.720  13.850
 3304DPPE   C4A61508   7.740  15.320  13.890
 3304DPPE   C1B61509   6.720  16.430  13.710
 3304DPPE   C2B61510   6.660  16.150  13.350
 3304DPPE   C3B61511   6.890  16.080  12.920
 3304DPPE   C4B61512   7.110  15.860  12.710
 3305DPPE   NH361513   6.940  11.280  16.080
 3305DPPE   PO461514   7.090  11.050  15.750
 3305DPPE   GL161515   6.690  10.830  15.820
 3305DPPE   GL261516   6.310  10.960  15.720
 3305DPPE   C1A61517   6.340  10.470  15.960
 3305DPPE   C2A61518   6.020  10.280  16.320
 3305DPPE   C3A61519   5.960  10.450  16.770
 3305DPPE   C4A61520   5.800  10.540  17.140
 3305DPPE   C1B61521   5.910  10.690  15.860
 3305DPPE   C2B61522   5.640  10.360  15.830
 3305DPPE   C3B61523   5.320  10.140  15.510
 3305DPPE   C4B61524   5.060   9.820  15.690
 3306DPPE   NH361525  13.100   9.910  21.450
 3306DPPE   PO461526  12.960   9.720  21.070
 3306DPPE   GL161527  12.930   9.410  21.430
 3306DPPE   GL261528  12.900   9.490  21.790
 3306DPPE   C1A61529  12.940   8.960  21.690
 3306DPPE   C2A61530  13.080   8.630  21.940
 3306DPPE   C3A61531  12.960   8.360  22.310
 3306DPPE   C4A61532  12.550   8.430  22.480
 3306DPPE   C1B61533  12.820   9.200  22.110
 3306DPPE   C2B61534  12.650   8.840  22.230
 3306DPPE   C3B61535  12.410   9.010  22.530
 3306DPPE   C4B61536  12.270   8.800  22.880
 3307DPPE   NH361537   8.730  13.920  19.320
 3307DPPE   PO461538   8.440  14.230  19.220
 3307DPPE   GL161539   8.800  14.180  18.900
 3307DPPE   GL261540   9.080  14.160  18.990
 3307DPPE   C1A61541   8.810  14.240  18.450
 3307DPPE   C2A61542   9.080  14.540  18.160
 3307DPPE   C3A61543   9.370  14.610  17.880
 3307DPPE   C4A61544   9.330  14.950  17.500
 3307DPPE   C1B61545   9.070  14.600  18.830
 3307DPPE   C2B61546   9.090  14.900  18.500
 3307DPPE   C3B61547   8.920  15.290  18.600
 3307DPPE   C4B61548   9.050  15.690  18.690
 3308DPPE   NH361549   8.860  13.420  20.160
 3308DPPE   PO461550   8.960  13.140  20.470
 3308DPPE   GL161551   8.660  13.000  20.750
 3308DPPE   GL261552   8.800  12.720  20.730
 3308DPPE   C1A61553   8.310  12.670  20.940
 3308DPPE   C2A61554   8.010  12.730  21.260
 3308DPPE   C3A61555   7.830  12.680  21.510
 3308DPPE   C4A61556   7.430  12.570  21.670
 3308DPPE   C1B61557   8.690  12.250  20.900
 3308DPPE   C2B61558   8.380  11.950  21.080
 3308DPPE   C3B61559   8.040  11.730  21.100
 3308DPPE   C4B61560   7.860  11.330  21.420
 3309DPPE   NH361561   7.310  11.680  13.550
 3309DPPE   PO461562   7.280  11.680  13.050
 3309DPPE   GL161563   7.020  11.640  12.600
 3309DPPE   GL261564   7.320  11.510  12.570
 3309DPPE   C1A61565   6.920  11.770  12.180
 3309DPPE   C2A61566   6.930  11.780  11.740
 3309DPPE   C3A61567   7.150  11.920  11.410
 3309DPPE   C4A61568   7.100  12.190  11.220
 3309DPPE   C1B61569   7.640  11.280  12.220
 3309DPPE   C2B61570   8.030  11.390  12.070
 3309DPPE   C3B61571   8.220  11.700  11.760
 3309DPPE   C4B61572   8.360  11.810  11.370
 3310DPPE   NH361573   9.290  22.110  19.510
 3310DPPE   PO461574   9.130  21.910  19.660
 3310DPPE   GL161575   9.390  21.640  19.310
 3310DPPE   GL261576   9.660  21.660  19.330
 3310DPPE   C1A61577   9.560  21.470  18.920
 3310DPPE   C2A61578   9.470  21.090  18.660
 3310DPPE   C3A61579   9.370  20.850  18.280
 3310DPPE   C4A61580   9.260  20.750  17.910
 3310DPPE   C1B61581  10.010  21.880  19.130
 3310DPPE   C2B61582  10.150  22.110  18.790
 3310DPPE   C3B61583  10.340  22.050  18.420
 3310DPPE   C4B61584  10.300  21.970  17.930
 3311DPPE   NH361585  10.720  11.340  21.310
 3311DPPE   PO461586  11.000  11.590  21.470
 3311DPPE   GL161587  11.010  11.400  21.810
 3311DPPE   GL261588  11.250  11.420  22.000
 3311DPPE   C1A61589  10.740  11.170  22.100
 3311DPPE   C2A61590  10.430  10.930  22.240
 3311DPPE   C3A61591  10.000  10.930  22.170
 3311DPPE   C4A61592   9.680  10.680  22.030
 3311DPPE   C1B61593  11.140  11.300  22.380
 3311DPPE   C2B61594  11.080  11.120  22.700
 3311DPPE   C3B61595  10.860  10.840  23.090
 3311DPPE   C4B61596  10.620  10.690  23.440
 3312DPPE   NH361597  15.210  14.090  24.030
 3312DPPE   PO461598  15.280  13.700  23.920
 3312DPPE   GL161599  15.520  13.560  24.260
 3312DPPE   GL261600  15.790  13.400  24.270
 3312DPPE   C1A61601  15.470  13.580  24.650
 3312DPPE   C2A61602  15.320  13.540  25.030
 3312DPPE   C3A61603  15.060  13.230  25.210
 3312DPPE   C4A61604  14.720  12.950  25.180
 3312DPPE   C1B61605  16.070  13.490  24.600
 3312DPPE   C2B61606  16.280  13.240  24.990
 3312DPPE   C3B61607  16.480  12.920  24.880
 3312DPPE   C4B61608  16.670  12.700  24.470
 3313DPPE   NH361609   6.670  18.260  16.750
 3313DPPE   PO461610   6.790  18.510  17.020
 3313DPPE   GL161611   7.130  18.560  16.790
 3313DPPE   GL261612   7.150  18.280  16.700
 3313DPPE   C1A61613   7.380  18.840  16.460
 3313DPPE   C2A61614   7.860  19.040  16.590
 3313DPPE   C3A61615   8.200  19.290  16.740
 3313DPPE   C4A61616   8.470  19.270  17.040
 3313DPPE   C1B61617   7.330  17.890  16.540
 3313DPPE   C2B61618   7.750  17.600  16.460
 3313DPPE   C3B61619   8.010  17.360  16.250
 3313DPPE   C4B61620   7.940  17.180  15.850
 3314DPPE   NH361621  14.860  12.030  23.360
 3314DPPE   PO461622  15.240  12.350  23.350
 3314DPPE   GL161623  15.270  12.240  23.880
 3314DPPE   GL261624  15.660  12.330  23.970
 3314DPPE   C1A61625  15.160  12.250  24.300
 3314DPPE   C2A61626  15.120  12.530  24.760
 3314DPPE   C3A61627  15.080  12.580  25.210
 3314DPPE   C4A61628  14.840  12.710  25.630
 3314DPPE   C1B61629  15.640  11.970  24.280
 3314DPPE   C2B61630  15.710  11.970  24.670
 3314DPPE   C3B61631  15.440  12.040  24.940
 3314DPPE   C4B61632  15.270  12.100  25.360
 3315DPPE   NH361633  15.150  15.420  23.960
 3315DPPE   PO461634  15.230  15.350  24.420
 3315DPPE   GL161635  15.570  15.230  24.690
 3315DPPE   GL261636  15.770  15.320  24.510
 3315DPPE   C1A61637  15.780  14.890  24.950
 3315DPPE   C2A61638  15.970  14.550  25.000
 3315DPPE   C3A61639  16.130  14.130  24.840
 3315DPPE   C4A61640  16.450  13.780  24.750
 3315DPPE   C1B61641  16.190  15.320  24.600
 3315DPPE   C2B61642  16.270  15.040  24.870
 3315DPPE   C3B61643  16.480  14.650  24.800
 3315DPPE   C4B61644  16.450  14.440  25.200
 3316DPPE   NH361645  14.470  15.740  24.410
 3316DPPE   PO461646  14.760  16.130  24.400
 3316DPPE   GL161647  15.030  16.070  24.780
 3316DPPE   GL261648  15.250  16.340  24.780
 3316DPPE   C1A61649  15.300  15.860  25.040
 3316DPPE   C2A61650  15.460  15.520  25.200
 3316DPPE   C3A61651  15.370  15.090  25.230
 3316DPPE   C4A61652  15.550  14.670  25.290
 3316DPPE   C1B61653  15.590  16.460  24.970
 3316DPPE   C2B61654  15.770  16.760  25.180
 3316DPPE   C3B61655  16.050  17.010  25.260
 3316DPPE   C4B61656  16.310  17.040  25.680
 3317DPPE   NH361657  12.790  20.470  23.030
 3317DPPE   PO461658  13.040  20.480  23.540
 3317DPPE   GL161659  12.940  20.750  23.770
 3317DPPE   GL261660  13.060  21.100  23.730
 3317DPPE   C1A61661  12.970  20.910  24.170
 3317DPPE   C2A61662  13.160  20.830  24.490
 3317DPPE   C3A61663  13.360  20.670  24.870
 3317DPPE   C4A61664  13.180  20.710  25.270
 3317DPPE   C1B61665  13.000  21.380  24.080
 3317DPPE   C2B61666  13.010  21.350  24.520
 3317DPPE   C3B61667  13.090  21.580  24.950
 3317DPPE   C4B61668  13.110  21.970  25.220
 3318DPPE   NH361669   6.920  17.430  19.570
 3318DPPE   PO461670   7.080  17.360  19.920
 3318DPPE   GL161671   6.920  17.250  20.250
 3318DPPE   GL261672   6.830  16.940  20.270
 3318DPPE   C1A61673   6.580  17.260  20.540
 3318DPPE   C2A61674   6.330  17.500  20.710
 3318DPPE   C3A61675   5.950  17.450  20.890
 3318DPPE   C4A61676   5.610  17.280  21.220
 3318DPPE   C1B61677   6.410  16.890  20.290
 3318DPPE   C2B61678   6.090  16.690  20.440
 3318DPPE   C3B61679   5.800  16.490  20.590
 3318DPPE   C4B61680   5.560  16.300  20.830
 3319DPPE   NH361681   8.470   9.020  15.080
 3319DPPE   PO461682   8.320   9.350  14.780
 3319DPPE   GL161683   8.080   8.940  14.720
 3319DPPE   GL261684   8.020   8.850  15.070
 3319DPPE   C1A61685   7.780   8.580  14.700
 3319DPPE   C2A61686   7.360   8.590  14.810
 3319DPPE   C3A61687   7.000   8.740  15.110
 3319DPPE   C4A61688   6.680   8.700  15.440
 3319DPPE   C1B61689   7.660   8.560  15.240
 3319DPPE   C2B61690   7.310   8.410  15.290
 3319DPPE   C3B61691   6.990   8.230  15.440
 3319DPPE   C4B61692   6.630   8.100  15.740
 3320DPPE   NH361693  12.960  12.820  22.600
 3320DPPE   PO461694  13.100  13.000  22.210
 3320DPPE   GL161695  13.160  13.400  21.990
 3320DPPE   GL261696  13.260  13.150  21.760
 3320DPPE   C1A61697  13.330  13.610  21.660
 3320DPPE   C2A61698  13.710  13.710  21.380
 3320DPPE   C3A61699  13.970  13.940  21.160
 3320DPPE   C4A61700  14.300  14.080  21.010
 3320DPPE   C1B61701  13.440  13.140  21.360
 3320DPPE   C2B61702  13.400  13.360  20.970
 3320DPPE   C3B61703  13.510  13.470  20.590
 3320DPPE   C4B61704  13.550  13.610  20.230
 3321DPPE   NH361705   8.050   9.420  13.850
 3321DPPE   PO461706   8.290   9.680  14.300
 3321DPPE   GL161707   8.580   9.570  13.930
 3321DPPE   GL261708   8.460   9.530  13.570
 3321DPPE   C1A61709   8.910   9.610  13.610
 3321DPPE   C2A61710   8.790   9.730  13.310
 3321DPPE   C3A61711   8.930   9.930  12.880
 3321DPPE   C4A61712   9.190  10.130  12.480
 3321DPPE   C1B61713   8.490   9.320  13.240
 3321DPPE   C2B61714   8.460   8.960  12.880
 3321DPPE   C3B61715   8.590   8.770  12.510
 3321DPPE   C4B61716   8.660   8.400  12.300
 3322DPPE   NH361717   6.960  15.140  16.610
 3322DPPE   PO461718   6.570  15.190  16.290
 3322DPPE   GL161719   6.740  15.250  15.870
 3322DPPE   GL261720   6.920  14.930  15.700
 3322DPPE   C1A61721   6.970  15.440  15.480
 3322DPPE   C2A61722   7.170  15.450  15.100
 3322DPPE   C3A61723   7.290  15.200  14.750
 3322DPPE   C4A61724   7.670  15.110  14.430
 3322DPPE   C1B61725   7.290  15.050  15.620
 3322DPPE   C2B61726   7.480  15.380  15.560
 3322DPPE   C3B61727   7.910  15.720  15.560
 3322DPPE   C4B61728   8.150  16.010  15.470
 3323DPPE   NH361729  14.080  17.780  23.220
 3323DPPE   PO461730  13.730  17.550  23.370
 3323DPPE   GL161731  13.840  17.420  22.900
 3323DPPE   GL261732  13.640  17.210  22.660
 3323DPPE   C1A61733  14.070  17.570  22.590
 3323DPPE   C2A61734  14.040  17.770  22.190
 3323DPPE   C3A61735  14.150  17.890  21.700
 3323DPPE   C4A61736  14.100  17.860  21.240
 3323DPPE   C1B61737  13.630  17.390  22.250
 3323DPPE   C2B61738  13.930  17.430  21.830
 3323DPPE   C3B61739  14.220  17.460  21.470
 3323DPPE   C4B61740  14.700  17.340  21.300
 3324DPPE   NH361741   8.720  20.600  19.090
 3324DPPE   PO461742   8.870  20.550  19.500
 3324DPPE   GL161743   9.010  20.160  19.390
 3324DPPE   GL261744   9.180  20.340  19.060
 3324DPPE   C1A61745   9.120  19.880  19.070
 3324DPPE   C2A61746   9.570  19.650  18.910
 3324DPPE   C3A61747  10.000  19.660  18.640
 3324DPPE   C4A61748  10.330  19.660  18.310
 3324DPPE   C1B61749   9.550  20.200  19.100
 3324DPPE   C2B61750   9.870  20.110  18.900
 3324DPPE   C3B61751  10.160  20.100  18.680
 3324DPPE   C4B61752  10.540  20.120  18.460
 3325DPPE   NH361753  15.430  12.160  22.860
 3325DPPE   PO461754  15.250  11.870  23.220
 3325DPPE   GL161755  15.210  11.650  23.580
 3325DPPE   GL261756  15.090  11.340  23.640
 3325DPPE   C1A61757  15.320  11.690  24.000
 3325DPPE   C2A61758  15.490  11.500  24.310
 3325DPPE   C3A61759  15.800  11.450  24.660
 3325DPPE   C4A61760  15.900  11.390  25.070
 3325DPPE   C1B61761  15.300  11.150  23.980
 3325DPPE   C2B61762  15.480  10.980  24.300
 3325DPPE   C3B61763  15.370  10.990  24.720
 3325DPPE   C4B61764  15.640  10.990  25.080
 3326DPPE   NH361765   8.810  19.890  21.550
 3326DPPE   PO461766   8.920  19.590  21.940
 3326DPPE   GL161767   8.650  19.420  22.070
 3326DPPE   GL261768   8.630  19.140  22.140
 3326DPPE   C1A61769   8.310  19.570  22.270
 3326DPPE   C2A61770   8.010  19.800  22.430
 3326DPPE   C3A61771   7.840  19.950  22.850
 3326DPPE   C4A61772   7.580  20.080  23.200
 3326DPPE   C1B61773   8.410  19.210  22.580
 3326DPPE   C2B61774   8.190  19.140  22.940
 3326DPPE   C3B61775   7.920  19.210  23.240
 3326DPPE   C4B61776   7.580  19.370  23.450
 3327DPPE   NH361777   5.340  16.600  13.480
 3327DPPE   PO461778   5.640  16.790  13.700
 3327DPPE   GL161779   5.820  16.840  13.400
 3327DPPE   GL261780   5.860  17.230  13.540
 3327DPPE   C1A61781   5.920  16.870  12.950
 3327DPPE   C2A61782   6.040  16.440  12.740
 3327DPPE   C3A61783   6.240  15.970  12.990
 3327DPPE   C4A61784   6.140  15.560  13.070
 3327DPPE   C1B61785   5.620  17.230  13.170
 3327DPPE   C2B61786   5.590  17.330  12.740
 3327DPPE   C3B61787   5.480  17.170  12.290
 3327DPPE   C4B61788   5.160  16.960  11.910
 3328DPPE   NH361789   7.810  14.570  20.010
 3328DPPE   PO461790   8.010  14.670  20.390
 3328DPPE   GL161791   7.850  14.560  20.830
 3328DPPE   GL261792   8.000  14.800  20.940
 3328DPPE   C1A61793   7.710  14.450  21.280
 3328DPPE   C2A61794   7.520  14.490  21.670
 3328DPPE   C3A61795   7.400  14.710  21.940
 3328DPPE   C4A61796   7.570  14.960  22.170
 3328DPPE   C1B61797   7.790  14.970  21.280
 3328DPPE   C2B61798   7.380  15.020  21.540
 3328DPPE   C3B61799   6.960  15.040  21.580
 3328DPPE   C4B61800   6.640  15.050  21.440
 3329DPPE   NH361801  14.100   8.890  20.800
 3329DPPE   PO461802  13.920   8.940  20.370
 3329DPPE   GL161803  13.940   8.580  20.400
 3329DPPE   GL261804  14.120   8.340  20.270
 3329DPPE   C1A61805  13.760   8.260  20.740
 3329DPPE   C2A61806  14.000   7.850  20.920
 3329DPPE   C3A61807  14.290   7.490  20.760
 3329DPPE   C4A61808  14.100   7.160  20.590
 3329DPPE   C1B61809  14.100   7.830  20.300
 3329DPPE   C2B61810  14.310   7.460  20.250
 3329DPPE   C3B61811  14.420   7.080  19.970
 3329DPPE   C4B61812  14.150   6.820  19.610
 3330DPPE   NH361813  10.880  16.640  23.220
 3330DPPE   PO461814  11.190  16.350  23.250
 3330DPPE   GL161815  11.140  16.450  23.710
 3330DPPE   GL261816  10.640  16.450  23.810
 3330DPPE   C1A61817  10.950  16.460  24.200
 3330DPPE   C2A61818  11.050  16.560  24.670
 3330DPPE   C3A61819  11.010  16.720  25.140
 3330DPPE   C4A61820  10.860  16.720  25.580
 3330DPPE   C1B61821  10.330  16.430  24.160
 3330DPPE   C2B61822  10.120  16.700  24.490
 3330DPPE   C3B61823   9.860  16.670  24.850
 3330DPPE   C4B61824   9.840  16.220  24.970
 3331DPPE   NH361825   6.130  18.320  18.500
 3331DPPE   PO461826   5.690  18.530  18.630
 3331DPPE   GL161827   5.720  18.370  18.900
 3331DPPE   GL261828   5.980  18.410  19.160
 3331DPPE   C1A61829   5.450  18.050  19.170
 3331DPPE   C2A61830   5.280  17.960  19.520
 3331DPPE   C3A61831   4.890  17.740  19.770
 3331DPPE   C4A61832   4.510  17.450  19.680
 3331DPPE   C1B61833   5.710  18.470  19.400
 3331DPPE   C2B61834   5.200  18.410  19.420
 3331DPPE   C3B61835   4.800  18.360  19.720
 3331DPPE   C4B61836   4.430  18.420  20.040
 3332DPPE   NH361837   6.570  11.700  13.520
 3332DPPE   PO461838   6.900  11.890  13.600
 3332DPPE   GL161839   7.200  12.080  13.330
 3332DPPE   GL261840   7.480  12.240  13.530
 3332DPPE   C1A61841   7.360  12.310  12.870
 3332DPPE   C2A61842   7.630  11.980  12.560
 3332DPPE   C3A61843   7.910  11.540  12.600
 3332DPPE   C4A61844   8.400  11.380  12.460
 3332DPPE   C1B61845   7.810  12.280  13.690
 3332DPPE   C2B61846   8.160  12.450  13.870
 3332DPPE   C3B61847   8.410  12.630  14.250
 3332DPPE   C4B61848   8.740  12.910  14.290
 3333DPPE   NH361849  10.330  17.300  22.620
 3333DPPE   PO461850  10.520  17.130  22.180
 3333DPPE   GL161851  10.520  17.310  21.840
 3333DPPE   GL261852  10.820  17.490  21.720
 3333DPPE   C1A61853  10.590  17.090  21.510
 3333DPPE   C2A61854  10.870  17.090  21.180
 3333DPPE   C3A61855  11.230  17.100  20.940
 3333DPPE   C4A61856  11.570  17.180  20.650
 3333DPPE   C1B61857  11.220  17.260  21.530
 3333DPPE   C2B61858  11.600  17.260  21.250
 3333DPPE   C3B61859  11.970  17.340  20.910
 3333DPPE   C4B61860  12.010  17.400  20.610
 3334DPPE   NH361861   5.900  12.730  16.110
 3334DPPE   PO461862   5.940  12.560  15.760
 3334DPPE   GL161863   5.470  12.430  15.810
 3334DPPE   GL261864   5.280  12.600  15.610
 3334DPPE   C1A61865   5.200  12.180  15.930
 3334DPPE   C2A61866   4.770  12.010  16.040
 3334DPPE   C3A61867   4.470  11.840  15.870
 3334DPPE   C4A61868   4.110  11.770  15.560
 3334DPPE   C1B61869   4.840  12.510  15.750
 3334DPPE   C2B61870   4.450  12.430  15.870
 3334DPPE   C3B61871   4.240  12.160  16.170
 3334DPPE   C4B61872   3.990  11.910  16.020
 3335DPPE   NH361873   7.230  11.310  14.300
 3335DPPE   PO461874   7.330  11.190  13.810
 3335DPPE   GL161875   7.760  11.410  13.630
 3335DPPE   GL261876   7.910  11.760  13.630
 3335DPPE   C1A61877   8.070  11.260  13.440
 3335DPPE   C2A61878   8.380  11.380  13.340
 3335DPPE   C3A61879   8.390  11.640  12.940
 3335DPPE   C4A61880   8.110  11.920  12.760
 3335DPPE   C1B61881   8.050  11.970  13.320
 3335DPPE   C2B61882   7.850  12.260  12.970
 3335DPPE   C3B61883   7.930  12.350  12.530
 3335DPPE   C4B61884   8.320  12.340  12.370
 3336DPPE   NH361885   6.210  21.480  17.310
 3336DPPE   PO461886   6.410  21.590  17.710
 3336DPPE   GL161887   5.900  21.690  17.760
 3336DPPE   GL261888   5.750  21.520  17.500
 3336DPPE   C1A61889   5.560  21.880  18.010
 3336DPPE   C2A61890   5.360  22.010  18.350
 3336DPPE   C3A61891   4.910  21.770  18.480
 3336DPPE   C4A61892   4.510  21.970  18.580
 3336DPPE   C1B61893   5.580  21.900  17.460
 3336DPPE   C2B61894   5.210  22.040  17.280
 3336DPPE   C3B61895   4.830  22.050  17.460
 3336DPPE   C4B61896   4.570  22.260  17.810
 3337DPPE   NH361897   5.680  12.690  14.020
 3337DPPE   PO461898   5.670  12.290  13.780
 3337DPPE   GL161899   5.360  12.090  13.540
 3337DPPE   GL261900   5.180  12.000  13.690
 3337DPPE   C1A61901   5.080  11.840  13.220
 3337DPPE   C2A61902   4.770  11.590  13.020
 3337DPPE   C3A61903   4.690  11.220  13.120
 3337DPPE   C4A61904   4.180  11.080  13.070
 3337DPPE   C1B61905   4.870  12.230  13.850
 3337DPPE   C2B61906   4.610  12.640  13.890
 3337DPPE   C3B61907   4.140  12.700  14.040
 3337DPPE   C4B61908   3.760  12.510  14.240
 3338DPPE   NH361909  15.180  10.350  22.130
 3338DPPE   PO461910  15.330   9.960  21.860
 3338DPPE   GL161911  15.520   9.970  22.200
 3338DPPE   GL261912  15.400  10.050  22.520
 3338DPPE   C1A61913  15.800   9.700  22.400
 3338DPPE   C2A61914  15.670   9.420  22.690
 3338DPPE   C3A61915  15.650   9.100  22.990
 3338DPPE   C4A61916  15.660   9.030  23.500
 3338DPPE   C1B61917  15.590   9.890  22.840
 3338DPPE   C2B61918  15.990   9.730  22.850
 3338DPPE   C3B61919  16.210   9.550  22.580
 3338DPPE   C4B61920  16.540   9.310  22.440
 3339DPPE   NH361921  14.330  18.340  23.480
 3339DPPE   PO461922  14.650  18.000  23.710
 3339DPPE   GL161923  15.060  18.090  23.660
 3339DPPE   GL261924  15.320  17.970  23.910
 3339DPPE   C1A61925  15.380  18.080  23.360
 3339DPPE   C2A61926  15.720  18.310  23.170
 3339DPPE   C3A61927  16.180  18.520  23.210
 3339DPPE   C4A61928  16.560  18.660  23.020
 3339DPPE   C1B61929  15.750  17.970  23.720
 3339DPPE   C2B61930  16.080  18.020  23.500
 3339DPPE   C3B61931  16.480  18.100  23.280
 3339DPPE   C4B61932  16.580  18.140  22.860
 3340DPPE   NH361933   6.540  21.020  15.880
 3340DPPE   PO461934   6.720  21.260  16.170
 3340DPPE   GL161935   6.600  21.630  15.930
 3340DPPE   GL261936   6.770  22.000  15.980
 3340DPPE   C1A61937   6.230  21.880  15.730
 3340DPPE   C2A61938   5.920  22.160  15.860
 3340DPPE   C3A61939   5.640  22.540  15.930
 3340DPPE   C4A61940   5.520  22.820  16.050
 3340DPPE   C1B61941   6.970  21.680  15.610
 3340DPPE   C2B61942   7.020  21.600  15.140
 3340DPPE   C3B61943   7.190  21.830  14.870
 3340DPPE   C4B61944   7.590  22.000  14.680
 3341DPPE   NH361945  12.310  22.760  22.070
 3341DPPE   PO461946  12.460  22.560  21.780
 3341DPPE   GL161947  12.800  22.660  21.630
 3341DPPE   GL261948  12.920  22.880  21.860
 3341DPPE   C1A61949  12.890  22.900  21.280
 3341DPPE   C2A61950  13.330  23.170  21.210
 3341DPPE   C3A61951  13.450  23.620  21.220
 3341DPPE   C4A61952  13.210  23.970  21.390
 3341DPPE   C1B61953  13.290  23.200  21.810
 3341DPPE   C2B61954  13.650  23.490  21.660
 3341DPPE   C3B61955  14.050  23.580  21.720
 3341DPPE   C4B61956  14.370  23.690  21.990
 3342DPPE   NH361957   9.540  21.350  20.040
 3342DPPE   PO461958   9.220  21.470  19.880
 3342DPPE   GL161959   9.550  21.160  19.530
 3342DPPE   GL261960   9.850  21.290  19.620
 3342DPPE   C1A61961   9.840  21.200  19.130
 3342DPPE   C2A61962   9.970  21.090  18.700
 3342DPPE   C3A61963  10.360  21.190  18.390
 3342DPPE   C4A61964  10.860  21.260  18.260
 3342DPPE   C1B61965  10.230  21.240  19.490
 3342DPPE   C2B61966  10.700  21.210  19.370
 3342DPPE   C3B61967  10.930  21.520  19.240
 3342DPPE   C4B61968  11.280  21.690  19.100
 3343DPPE   NH361969  12.510   9.670  20.350
 3343DPPE   PO461970  12.050   9.690  20.320
 3343DPPE   GL161971  11.850   9.350  20.420
 3343DPPE   GL261972  11.800   9.190  20.210
 3343DPPE   C1A61973  11.800   9.140  20.880
 3343DPPE   C2A61974  11.580   8.870  21.280
 3343DPPE   C3A61975  11.310   8.600  21.140
 3343DPPE   C4A61976  10.920   8.580  21.280
 3343DPPE   C1B61977  11.460   9.030  20.400
 3343DPPE   C2B61978  11.160   8.790  20.570
 3343DPPE   C3B61979  10.990   8.500  20.790
 3343DPPE   C4B61980  10.690   8.210  21.010
 3344DPPE   NH361981  13.880  21.300  22.750
 3344DPPE   PO461982  14.140  21.670  22.880
 3344DPPE   GL161983  14.490  21.810  22.680
 3344DPPE   GL261984  14.810  21.610  22.600
 3344DPPE   C1A61985  14.900  22.110  22.460
 3344DPPE   C2A61986  14.900  22.600  22.300
 3344DPPE   C3A61987  15.000  22.950  22.310
 3344DPPE   C4A61988  14.910  23.310  22.600
 3344DPPE   C1B61989  14.880  21.840  23.040
 3344DPPE   C2B61990  15.020  21.750  23.430
 3344DPPE   C3B61991  15.160  21.290  23.590
 3344DPPE   C4B61992  15.020  21.120  23.890
 3345DPPE   NH361993  15.380  13.900  22.840
 3345DPPE   PO461994  15.170  13.830  22.420
 3345DPPE   GL161995  15.410  14.030  22.280
 3345DPPE   GL261996  15.580  13.800  22.100
 3345DPPE   C1A61997  15.830  14.240  22.400
 3345DPPE   C2A61998  16.280  14.280  22.490
 3345DPPE   C3A61999  16.530  13.980  22.720
 3345DPPE   C4A62000  16.640  14.060  23.110
 3345DPPE   C1B62001  15.630  14.080  21.790
 3345DPPE   C2B62002  15.460  14.360  21.430
 3345DPPE   C3B62003  15.690  14.660  21.180
 3345DPPE   C4B62004  16.110  14.540  21.000
 3346DPPE   NH362005   7.480  12.380  18.560
 3346DPPE   PO462006   7.710  12.550  18.860
 3346DPPE   GL162007   7.320  12.300  18.980
 3346DPPE   GL262008   7.140  12.530  19.040
 3346DPPE   C1A62009   7.210  11.850  18.950
 3346DPPE   C2A62010   6.860  11.520  19.050
 3346DPPE   C3A62011   6.560  11.240  18.860
 3346DPPE   C4A62012   6.540  10.820  18.740
 3346DPPE   C1B62013   6.760  12.480  19.330
 3346DPPE   C2B62014   6.540  12.480  19.680
 3346DPPE   C3B62015   6.530  12.100  19.830
 3346DPPE   C4B62016   6.380  11.760  20.110
 3347DPPE   NH362017  14.590  10.360  22.130
 3347DPPE   PO462018  14.620   9.920  22.070
 3347DPPE   GL162019  14.950   9.800  22.220
 3347DPPE   GL262020  14.720   9.670  22.470
 3347DPPE   C1A62021  15.210   9.620  22.550
 3347DPPE   C2A62022  15.150   9.340  22.920
 3347DPPE   C3A62023  14.970   8.930  22.850
 3347DPPE   C4A62024  14.590   8.780  22.580
 3347DPPE   C1B62025  14.690   9.470  22.810
 3347DPPE   C2B62026  14.610   9.140  23.070
 3347DPPE   C3B62027  14.330   8.780  23.110
 3347DPPE   C4B62028  14.180   8.430  23.330
 3348DPPE   NH362029   6.000  14.900  14.060
 3348DPPE   PO462030   6.080  14.470  14.220
 3348DPPE   GL162031   6.390  14.390  13.910
 3348DPPE   GL262032   6.470  14.690  13.950
 3348DPPE   C1A62033   6.860  14.320  13.630
 3348DPPE   C2A62034   6.850  14.440  13.150
 3348DPPE   C3A62035   7.010  14.370  12.750
 3348DPPE   C4A62036   7.360  14.380  12.460
 3348DPPE   C1B62037   6.580  14.840  13.580
 3348DPPE   C2B62038   6.720  14.930  13.200
 3348DPPE   C3B62039   7.050  14.890  12.860
 3348DPPE   C4B62040   7.020  14.790  12.360
 3349DPPE   NH362041  11.160  19.240  23.250
 3349DPPE   PO462042  11.130  19.620  23.220
 3349DPPE   GL162043  11.090  19.700  23.590
 3349DPPE   GL262044  10.800  19.860  23.730
 3349DPPE   C1A62045  11.150  19.700  23.990
 3349DPPE   C2A62046  10.960  19.920  24.410
 3349DPPE   C3A62047  10.880  20.240  24.710
 3349DPPE   C4A62048  10.860  20.650  24.750
 3349DPPE   C1B62049  10.630  20.010  24.050
 3349DPPE   C2B62050  10.440  20.260  24.350
 3349DPPE   C3B62051   9.990  20.060  24.550
 3349DPPE   C4B62052   9.920  20.020  25.050
 3350DPPE   NH362053   9.530  22.990  19.240
 3350DPPE   PO462054   9.500  23.360  19.440
 3350DPPE   GL162055   9.670  23.700  19.260
 3350DPPE   GL262056   9.450  23.710  19.050
 3350DPPE   C1A62057   9.790  24.040  19.300
 3350DPPE   C2A62058  10.010  24.160  18.960
 3350DPPE   C3A62059  10.010  24.480  18.680
 3350DPPE   C4A62060   9.910  24.550  18.160
 3350DPPE   C1B62061   9.500  23.940  18.760
 3350DPPE   C2B62062   9.640  24.200  18.470
 3350DPPE   C3B62063   9.410  24.580  18.260
 3350DPPE   C4B62064   9.380  25.080  18.240
 3351DPPE   NH362065   7.320  15.450  19.780
 3351DPPE   PO462066   7.620  15.070  19.990
 3351DPPE   GL162067   7.340  14.760  20.030
 3351DPPE   GL262068   7.420  14.730  20.380
 3351DPPE   C1A62069   6.940  14.670  20.180
 3351DPPE   C2A62070   6.490  14.770  20.140
 3351DPPE   C3A62071   6.160  14.820  20.250
 3351DPPE   C4A62072   6.060  14.880  20.650
 3351DPPE   C1B62073   7.430  14.810  20.760
 3351DPPE   C2B62074   7.300  14.650  21.160
 3351DPPE   C3B62075   7.040  14.570  21.550
 3351DPPE   C4B62076   6.680  14.510  21.670
 3352DPPE   NH362077   5.520  19.400  14.370
 3352DPPE   PO462078   5.330  19.630  13.980
 3352DPPE   GL162079   5.350  19.480  13.500
 3352DPPE   GL262080   5.390  19.140  13.490
 3352DPPE   C1A62081   5.130  19.680  13.250
 3352DPPE   C2A62082   5.060  19.850  12.800
 3352DPPE   C3A62083   4.880  20.160  12.550
 3352DPPE   C4A62084   4.670  20.380  12.320
 3352DPPE   C1B62085   5.580  19.370  13.120
 3352DPPE   C2B62086   5.860  19.470  12.830
 3352DPPE   C3B62087   5.870  19.250  12.370
 3352DPPE   C4B62088   5.800  19.360  11.950
 3353DPPE   NH362089  14.240  12.070  23.560
 3353DPPE   PO462090  14.490  11.700  23.300
 3353DPPE   GL162091  14.670  11.590  23.680
 3353DPPE   GL262092  14.370  11.710  23.860
 3353DPPE   C1A62093  14.870  11.450  24.060
 3353DPPE   C2A62094  14.780  11.370  24.480
 3353DPPE   C3A62095  14.790  11.010  24.710
 3353DPPE   C4A62096  14.390  10.950  24.980
 3353DPPE   C1B62097  14.070  11.680  24.200
 3353DPPE   C2B62098  13.840  11.510  24.510
 3353DPPE   C3B62099  13.440  11.320  24.460
 3353DPPE   C4B62100  13.200  11.150  24.750
 3354DPPE   NH362101  10.170   9.450  16.850
 3354DPPE   PO462102  10.210   9.450  16.380
 3354DPPE   GL162103  10.680   9.450  16.260
 3354DPPE   GL262104  10.950   9.400  16.410
 3354DPPE   C1A62105  10.860   9.670  15.950
 3354DPPE   C2A62106  10.830   9.450  15.590
 3354DPPE   C3A62107  10.770   9.290  15.270
 3354DPPE   C4A62108  10.720   8.850  15.300
 3354DPPE   C1B62109  11.280   9.420  16.130
 3354DPPE   C2B62110  11.530   9.420  15.740
 3354DPPE   C3B62111  11.690   9.280  15.410
 3354DPPE   C4B62112  11.660   8.940  15.120
 3355DPPE   NH362113   5.820  15.980  13.960
 3355DPPE   PO462114   5.630  16.190  13.570
 3355DPPE   GL162115   5.610  16.210  13.170
 3355DPPE   GL262116   5.720  15.920  13.050
 3355DPPE   C1A62117   5.530  16.410  12.760
 3355DPPE   C2A62118   5.450  16.530  12.360
 3355DPPE   C3A62119   5.380  16.480  12.030
 3355DPPE   C4A62120   5.310  16.370  11.670
 3355DPPE   C1B62121   5.890  15.990  12.650
 3355DPPE   C2B62122   5.920  16.150  12.310
 3355DPPE   C3B62123   5.900  16.590  12.230
 3355DPPE   C4B62124   5.830  16.890  11.960
 3356DPPE   NH362125   6.220  17.270  15.350
 3356DPPE   PO462126   5.910  17.650  15.360
 3356DPPE   GL162127   6.260  17.740  15.100
 3356DPPE   GL262128   6.510  17.610  15.140
 3356DPPE   C1A62129   6.450  18.130  14.970
 3356DPPE   C2A62130   6.820  18.240  14.870
 3356DPPE   C3A62131   7.150  18.370  14.570
 3356DPPE   C4A62132   7.380  18.170  14.280
 3356DPPE   C1B62133   6.810  17.610  14.890
 3356DPPE   C2B62134   7.040  17.380  14.530
 3356DPPE   C3B62135   7.280  17.150  14.280
 3356DPPE   C4B62136   7.660  17.050  14.120
 3357DPPE   NH362137   8.870  22.580  18.800
 3357DPPE   PO462138   8.600  22.660  18.530
 3357DPPE   GL162139   8.860  22.680  18.270
 3357DPPE   GL262140   9.030  22.500  18.210
 3357DPPE   C1A62141   9.090  22.870  17.900
 3357DPPE   C2A62142   9.340  23.160  17.650
 3357DPPE   C3A62143   9.770  23.300  17.630
 3357DPPE   C4A62144   9.980  23.590  17.450
 3357DPPE   C1B62145   9.550  22.570  18.060
 3357DPPE   C2B62146   9.770  22.760  17.810
 3357DPPE   C3B62147  10.170  22.990  17.740
 3357DPPE   C4B62148  10.320  23.250  17.420
 3358DPPE   NH362149   8.030  19.630  20.300
 3358DPPE   PO462150   7.860  19.390  20.600
 3358DPPE   GL162151   7.580  19.200  20.860
 3358DPPE   GL262152   7.390  18.950  20.730
 3358DPPE   C1A62153   7.530  18.990  21.300
 3358DPPE   C2A62154   7.260  18.970  21.730
 3358DPPE   C3A62155   7.030  19.050  22.110
 3358DPPE   C4A62156   6.790  19.120  22.460
 3358DPPE   C1B62157   7.100  19.030  20.960
 3358DPPE   C2B62158   6.750  18.900  21.250
 3358DPPE   C3B62159   6.460  18.980  21.540
 3358DPPE   C4B62160   5.960  18.800  21.740
 3359DPPE   NH362161  15.730  13.600  23.790
 3359DPPE   PO462162  15.930  13.380  23.450
 3359DPPE   GL162163  16.320  13.500  23.510
 3359DPPE   GL262164  16.520  13.790  23.520
 3359DPPE   C1A62165  16.640  13.500  23.870
 3359DPPE   C2A62166  17.100  13.620  23.750
 3359DPPE   C3A62167  17.470  13.960  23.750
 3359DPPE   C4A62168  17.880  14.060  23.910
 3359DPPE   C1B62169  16.950  14.010  23.520
 3359DPPE   C2B62170  17.130  14.450  23.660
 3359DPPE   C3B62171  17.330  14.800  23.900
 3359DPPE   C4B62172  17.260  15.330  23.880
 3360DPPE   NH362173   6.040  18.550  15.330
 3360DPPE   PO462174   6.180  19.010  15.360
 3360DPPE   GL162175   6.490  19.100  15.100
 3360DPPE   GL262176   6.480  19.380  15.100
 3360DPPE   C1A62177   6.920  19.010  14.880
 3360DPPE   C2A62178   7.190  19.020  14.590
 3360DPPE   C3A62179   7.480  19.050  14.200
 3360DPPE   C4A62180   7.890  19.390  14.140
 3360DPPE   C1B62181   6.760  19.650  14.770
 3360DPPE   C2B62182   7.150  19.630  14.720
 3360DPPE   C3B62183   7.570  19.640  14.650
 3360DPPE   C4B62184   7.910  19.770  14.470
 3361DPPE   NH362185   7.230  18.290  19.490
 3361DPPE   PO462186   7.180  18.440  19.830
 3361DPPE   GL162187   6.990  18.570  20.140
 3361DPPE   GL262188   6.780  18.870  20.010
 3361DPPE   C1A62189   6.930  18.670  20.570
 3361DPPE   C2A62190   6.540  18.700  20.860
 3361DPPE   C3A62191   6.070  18.770  20.990
 3361DPPE   C4A62192   5.640  18.750  21.210
 3361DPPE   C1B62193   6.440  18.830  20.360
 3361DPPE   C2B62194   6.140  19.000  20.540
 3361DPPE   C3B62195   5.730  19.180  20.730
 3361DPPE   C4B62196   5.290  19.100  20.840
 3362DPPE   NH362197  13.830  10.220  21.840
 3362DPPE   PO462198  13.570   9.840  21.710
 3362DPPE   GL162199  13.410   9.540  22.020
 3362DPPE   GL262200  13.800   9.460  22.130
 3362DPPE   C1A62201  13.250   9.390  22.400
 3362DPPE   C2A62202  12.870   9.200  22.580
 3362DPPE   C3A62203  12.840   8.720  22.710
 3362DPPE   C4A62204  13.010   8.350  22.830
 3362DPPE   C1B62205  13.640   9.120  22.410
 3362DPPE   C2B62206  13.730   9.040  22.870
 3362DPPE   C3B62207  13.840   8.950  23.280
 3362DPPE   C4B62208  14.090   8.800  23.580
 3363DPPE   NH362209   5.350  17.620  14.710
 3363DPPE   PO462210   5.720  17.420  14.950
 3363DPPE   GL162211   6.160  17.480  14.620
 3363DPPE   GL262212   6.290  17.780  14.620
 3363DPPE   C1A62213   6.530  17.330  14.520
 3363DPPE   C2A62214   6.750  17.070  14.290
 3363DPPE   C3A62215   6.890  16.870  13.940
 3363DPPE   C4A62216   7.250  16.600  13.840
 3363DPPE   C1B62217   6.640  17.980  14.530
 3363DPPE   C2B62218   6.800  18.240  14.260
 3363DPPE   C3B62219   6.800  18.440  13.830
 3363DPPE   C4B62220   6.940  18.730  13.690
 3364DPPE   NH362221  14.600  11.110  20.820
 3364DPPE   PO462222  14.560  10.880  20.500
 3364DPPE   GL162223  14.640  10.960  20.100
 3364DPPE   GL262224  14.550  10.590  19.990
 3364DPPE   C1A62225  14.980  11.230  19.990
 3364DPPE   C2A62226  15.160  11.460  19.630
 3364DPPE   C3A62227  15.560  11.650  19.510
 3364DPPE   C4A62228  15.820  11.510  19.140
 3364DPPE   C1B62229  14.900  10.560  19.600
 3364DPPE   C2B62230  14.890  10.620  19.190
 3364DPPE   C3B62231  14.960  10.490  18.720
 3364DPPE   C4B62232  15.250  10.300  18.480
 3365DPPE   NH362233   7.480  10.800  14.330
 3365DPPE   PO462234   7.820  10.880  14.520
 3365DPPE   GL162235   8.180  10.960  14.230
 3365DPPE   GL262236   8.450  10.870  14.210
 3365DPPE   C1A62237   8.410  11.230  13.870
 3365DPPE   C2A62238   8.450  11.700  13.760
 3365DPPE   C3A62239   8.440  12.140  13.650
 3365DPPE   C4A62240   8.150  12.430  13.350
 3365DPPE   C1B62241   8.850  11.040  13.920
 3365DPPE   C2B62242   9.260  11.230  13.880
 3365DPPE   C3B62243   9.530  11.510  13.750
 3365DPPE   C4B62244   9.800  11.930  13.820
 3366DPPE   NH362245   7.740  11.310  14.130
 3366DPPE   PO462246   7.520  11.630  14.070
 3366DPPE   GL162247   7.590  11.980  14.050
 3366DPPE   GL262248   7.260  12.050  13.890
 3366DPPE   C1A62249   8.070  12.010  14.050
 3366DPPE   C2A62250   8.510  12.060  14.160
 3366DPPE   C3A62251   8.890  12.000  13.940
 3366DPPE   C4A62252   9.250  11.820  13.940
 3366DPPE   C1B62253   7.380  12.470  13.920
 3366DPPE   C2B62254   7.650  12.710  13.830
 3366DPPE   C3B62255   8.100  12.910  13.600
 3366DPPE   C4B62256   8.400  13.110  13.330
 3367DPPE   NH362257   7.420  18.180  20.190
 3367DPPE   PO462258   7.860  18.330  20.280
 3367DPPE   GL162259   7.530  18.430  20.600
 3367DPPE   GL262260   7.570  18.300  20.870
 3367DPPE   C1A62261   7.060  18.220  20.720
 3367DPPE   C2A62262   6.810  18.340  21.100
 3367DPPE   C3A62263   6.440  18.500  21.420
 3367DPPE   C4A62264   6.550  18.280  21.880
 3367DPPE   C1B62265   7.250  18.570  21.060
 3367DPPE   C2B62266   7.070  18.570  21.480
 3367DPPE   C3B62267   6.810  18.710  21.800
 3367DPPE   C4B62268   6.530  18.760  22.040
 3368DPPE   NH362269  13.750  11.020  20.980
 3368DPPE   PO462270  13.420  11.350  21.050
 3368DPPE   GL162271  13.680  11.430  20.610
 3368DPPE   GL262272  13.400  11.460  20.410
 3368DPPE   C1A62273  14.020  11.620  20.550
 3368DPPE   C2A62274  14.120  12.090  20.400
 3368DPPE   C3A62275  13.940  12.390  20.150
 3368DPPE   C4A62276  14.200  12.640  19.860
 3368DPPE   C1B62277  13.770  11.470  20.080
 3368DPPE   C2B62278  13.760  11.610  19.620
 3368DPPE   C3B62279  14.120  11.780  19.280
 3368DPPE   C4B62280  14.220  12.080  18.840
 3369DPPE   NH362281   7.890  23.850  18.220
 3369DPPE   PO462282   7.980  23.820  18.670
 3369DPPE   GL162283   8.040  24.060  19.120
 3369DPPE   GL262284   8.160  23.790  19.340
 3369DPPE   C1A62285   8.130  24.340  19.450
 3369DPPE   C2A62286   8.080  24.700  19.620
 3369DPPE   C3A62287   8.140  24.910  20.050
 3369DPPE   C4A62288   8.010  25.040  20.460
 3369DPPE   C1B62289   7.780  23.890  19.560
 3369DPPE   C2B62290   7.410  23.940  19.730
 3369DPPE   C3B62291   7.060  24.200  19.630
 3369DPPE   C4B62292   6.700  24.330  19.580
 3370DPPE   NH362293   6.860  10.990  14.740
 3370DPPE   PO462294   6.680  11.270  15.120
 3370DPPE   GL162295   6.540  10.820  15.310
 3370DPPE   GL262296   6.430  10.720  15.020
 3370DPPE   C1A62297   6.260  10.490  15.480
 3370DPPE   C2A62298   5.970  10.200  15.420
 3370DPPE   C3A62299   5.720   9.910  15.190
 3370DPPE   C4A62300   5.610   9.760  14.780
 3370DPPE   C1B62301   5.990  10.650  15.120
 3370DPPE   C2B62302   5.570  10.460  15.250
 3370DPPE   C3B62303   5.160  10.590  15.270
 3370DPPE   C4B62304   4.830  10.620  15.540
 3371DPPE   NH362305  10.090   9.070  15.400
 3371DPPE   PO462306  10.130   8.770  15.770
 3371DPPE   GL162307  10.150   8.600  15.360
 3371DPPE   GL262308  10.010   8.470  15.070
 3371DPPE   C1A62309  10.470   8.430  15.110
 3371DPPE   C2A62310  10.830   8.320  15.040
 3371DPPE   C3A62311  11.060   8.010  14.980
 3371DPPE   C4A62312  11.360   7.670  14.950
 3371DPPE   C1B62313  10.180   8.540  14.670
 3371DPPE   C2B62314  10.280   8.090  14.430
 3371DPPE   C3B62315  10.190   7.830  14.300
 3371DPPE   C4B62316   9.730   7.630  14.310
 3372DPPE   NH362317   5.400  14.640  16.130
 3372DPPE   PO462318   5.290  14.350  15.970
 3372DPPE   GL162319   5.040  13.950  16.060
 3372DPPE   GL262320   4.810  14.040  16.370
 3372DPPE   C1A62321   4.610  13.620  16.120
 3372DPPE   C2A62322   4.400  13.320  15.990
 3372DPPE   C3A62323   4.190  13.150  16.360
 3372DPPE   C4A62324   3.790  13.160  16.580
 3372DPPE   C1B62325   4.460  14.060  16.490
 3372DPPE   C2B62326   4.080  14.190  16.350
 3372DPPE   C3B62327   3.720  13.920  16.210
 3372DPPE   C4B62328   3.350  13.560  16.180
 3373DPPE   NH362329  15.820  12.050  22.160
 3373DPPE   PO462330  16.020  11.860  21.900
 3373DPPE   GL162331  16.400  12.020  21.850
 3373DPPE   GL262332  16.710  11.830  21.840
 3373DPPE   C1A62333  16.710  12.050  22.300
 3373DPPE   C2A62334  16.990  12.380  22.580
 3373DPPE   C3A62335  17.460  12.450  22.730
 3373DPPE   C4A62336  17.870  12.340  22.790
 3373DPPE   C1B62337  16.800  12.260  21.700
 3373DPPE   C2B62338  17.100  12.610  21.650
 3373DPPE   C3B62339  17.300  12.790  21.990
 3373DPPE   C4B62340  17.310  12.740  22.370
 3374DPPE   NH362341  12.800  16.410  23.850
 3374DPPE   PO462342  13.160  16.280  24.130
 3374DPPE   GL162343  13.030  16.230  24.600
 3374DPPE   GL262344  13.350  16.500  24.720
 3374DPPE   C1A62345  12.900  16.020  24.990
 3374DPPE   C2A62346  12.780  16.190  25.290
 3374DPPE   C3A62347  12.920  16.260  25.700
 3374DPPE   C4A62348  13.370  16.380  25.880
 3374DPPE   C1B62349  13.160  16.480  25.040
 3374DPPE   C2B62350  13.140  16.660  25.460
 3374DPPE   C3B62351  12.970  16.700  25.940
 3374DPPE   C4B62352  12.830  16.560  26.250
 3375DPPE   NH362353  11.730   8.050  17.000
 3375DPPE   PO462354  12.000   8.330  17.200
 3375DPPE   GL162355  12.140   8.330  16.810
 3375DPPE   GL262356  12.470   8.130  16.960
 3375DPPE   C1A62357  12.010   8.130  16.360
 3375DPPE   C2A62358  12.190   8.120  15.950
 3375DPPE   C3A62359  12.180   7.730  15.650
 3375DPPE   C4A62360  12.180   7.280  15.810
 3375DPPE   C1B62361  12.650   7.900  16.660
 3375DPPE   C2B62362  12.770   7.650  16.330
 3375DPPE   C3B62363  12.650   7.470  15.970
 3375DPPE   C4B62364  12.590   7.470  15.530
 3376DPPE   NH362365   4.800  18.060  15.290
 3376DPPE   PO462366   5.010  17.680  15.180
 3376DPPE   GL162367   4.560  17.650  15.440
 3376DPPE   GL262368   4.490  17.590  15.720
 3376DPPE   C1A62369   4.130  17.730  15.440
 3376DPPE   C2A62370   3.740  17.650  15.530
 3376DPPE   C3A62371   3.350  17.440  15.570
 3376DPPE   C4A62372   3.230  17.170  15.200
 3376DPPE   C1B62373   4.080  17.770  15.930
 3376DPPE   C2B62374   3.590  17.870  15.980
 3376DPPE   C3B62375   3.160  17.890  15.770
 3376DPPE   C4B62376   2.840  18.160  15.510
 3377DPPE   NH362377  14.600  14.160  24.380
 3377DPPE   PO462378  14.340  14.380  24.560
 3377DPPE   GL162379  14.290  14.340  25.000
 3377DPPE   GL262380  14.490  14.100  24.990
 3377DPPE   C1A62381  14.520  14.510  25.460
 3377DPPE   C2A62382  14.440  14.680  25.880
 3377DPPE   C3A62383  14.110  14.930  26.090
 3377DPPE   C4A62384  14.140  15.440  26.250
 3377DPPE   C1B62385  14.310  13.820  25.170
 3377DPPE   C2B62386  14.250  13.640  25.440
 3377DPPE   C3B62387  14.020  13.350  25.660
 3377DPPE   C4B62388  13.750  13.320  25.980
 3378DPPE   NH362389   7.880  22.710  19.240
 3378DPPE   PO462390   7.830  22.960  18.910
 3378DPPE   GL162391   7.610  23.140  19.290
 3378DPPE   GL262392   7.310  23.420  19.180
 3378DPPE   C1A62393   7.560  23.320  19.650
 3378DPPE   C2A62394   7.440  23.570  20.040
 3378DPPE   C3A62395   7.220  23.480  20.310
 3378DPPE   C4A62396   7.070  23.710  20.610
 3378DPPE   C1B62397   7.060  23.730  19.090
 3378DPPE   C2B62398   7.100  24.220  19.080
 3378DPPE   C3B62399   6.970  24.660  18.930
 3378DPPE   C4B62400   7.380  24.880  18.770
 3379DPPE   NH362401  10.550  12.850  21.500
 3379DPPE   PO462402  10.670  12.490  21.700
 3379DPPE   GL162403  10.440  12.330  22.120
 3379DPPE   GL262404  10.430  11.980  22.220
 3379DPPE   C1A62405  10.040  12.200  22.380
 3379DPPE   C2A62406   9.840  12.050  22.770
 3379DPPE   C3A62407   9.780  11.910  23.130
 3379DPPE   C4A62408   9.740  11.870  23.630
 3379DPPE   C1B62409  10.550  11.890  22.580
 3379DPPE   C2B62410  10.380  11.690  23.080
 3379DPPE   C3B62411  10.230  11.920  23.360
 3379DPPE   C4B62412  10.070  12.210  23.490
 3380DPPE   NH362413   6.110  12.590  14.740
 3380DPPE   PO462414   5.980  12.380  14.330
 3380DPPE   GL162415   5.620  12.120  14.310
 3380DPPE   GL262416   5.610  11.840  14.100
 3380DPPE   C1A62417   5.210  11.900  14.390
 3380DPPE   C2A62418   4.850  11.690  14.110
 3380DPPE   C3A62419   4.590  11.340  14.040
 3380DPPE   C4A62420   4.490  10.870  13.980
 3380DPPE   C1B62421   5.390  11.490  14.110
 3380DPPE   C2B62422   5.090  11.240  13.960
 3380DPPE   C3B62423   4.940  11.050  13.510
 3380DPPE   C4B62424   5.100  10.620  13.290
 3381DPPE   NH362425  14.340  18.020  24.100
 3381DPPE   PO462426  14.050  17.640  24.150
 3381DPPE   GL162427  14.080  17.800  24.590
 3381DPPE   GL262428  13.790  17.720  24.810
 3381DPPE   C1A62429  14.360  17.950  25.040
 3381DPPE   C2A62430  14.720  18.140  25.230
 3381DPPE   C3A62431  14.830  18.450  25.510
 3381DPPE   C4A62432  14.770  18.820  25.280
 3381DPPE   C1B62433  13.610  17.870  25.170
 3381DPPE   C2B62434  13.560  17.950  25.490
 3381DPPE   C3B62435  13.510  17.780  25.940
 3381DPPE   C4B62436  13.240  17.820  26.240
 3382DPPE   NH362437  13.790  14.320  23.230
 3382DPPE   PO462438  14.000  14.650  23.050
 3382DPPE   GL162439  13.930  14.910  22.760
 3382DPPE   GL262440  13.840  14.700  22.440
 3382DPPE   C1A62441  13.740  15.210  22.490
 3382DPPE   C2A62442  13.890  15.610  22.420
 3382DPPE   C3A62443  13.960  15.820  21.990
 3382DPPE   C4A62444  14.010  15.900  21.560
 3382DPPE   C1B62445  14.070  14.880  22.290
 3382DPPE   C2B62446  14.510  14.960  22.200
 3382DPPE   C3B62447  14.790  15.390  22.260
 3382DPPE   C4B62448  15.050  15.600  21.990
 3383DPPE   NH362449   8.640   8.950  15.590
 3383DPPE   PO462450   8.420   9.070  15.940
 3383DPPE   GL162451   8.190   8.670  16.110
 3383DPPE   GL262452   8.240   8.750  16.500
 3383DPPE   C1A62453   8.110   8.280  16.090
 3383DPPE   C2A62454   7.790   8.040  15.730
 3383DPPE   C3A62455   7.740   7.940  15.350
 3383DPPE   C4A62456   7.840   7.640  15.040
 3383DPPE   C1B62457   8.130   8.380  16.630
 3383DPPE   C2B62458   7.890   8.070  16.830
 3383DPPE   C3B62459   7.880   7.790  17.230
 3383DPPE   C4B62460   7.500   7.800  17.500
 3384DPPE   NH362461   9.520  15.080  20.840
 3384DPPE   PO462462   9.930  14.940  21.040
 3384DPPE   GL162463  10.280  15.280  20.900
 3384DPPE   GL262464  10.530  15.050  21.100
 3384DPPE   C1A62465  10.000  15.640  21.030
 3384DPPE   C2A62466  10.180  16.050  20.970
 3384DPPE   C3A62467  10.340  16.280  20.920
 3384DPPE   C4A62468  10.540  16.460  20.520
 3384DPPE   C1B62469  10.800  15.170  20.860
 3384DPPE   C2B62470  10.810  15.500  20.550
 3384DPPE   C3B62471  11.110  15.890  20.380
 3384DPPE   C4B62472  11.170  15.970  19.900
 3385DPPE   NH362473  11.520  11.460  21.530
 3385DPPE   PO462474  11.140  11.080  21.410
 3385DPPE   GL162475  10.810  10.920  21.550
 3385DPPE   GL262476  10.700  10.870  21.190
 3385DPPE   C1A62477  10.770  10.610  21.940
 3385DPPE   C2A62478  10.700  10.300  22.230
 3385DPPE   C3A62479  10.820   9.970  22.330
 3385DPPE   C4A62480  10.740   9.540  22.400
 3385DPPE   C1B62481  10.740  10.450  21.480
 3385DPPE   C2B62482  10.540  10.150  21.770
 3385DPPE   C3B62483  10.280  10.170  22.050
 3385DPPE   C4B62484   9.830  10.200  21.980
 3386DPPE   NH362485   8.090  17.890  19.500
 3386DPPE   PO462486   8.070  18.410  19.390
 3386DPPE   GL162487   8.170  18.090  19.030
 3386DPPE   GL262488   8.000  18.130  18.760
 3386DPPE   C1A62489   8.410  17.870  18.760
 3386DPPE   C2A62490   8.630  17.580  18.760
 3386DPPE   C3A62491   8.790  17.360  18.300
 3386DPPE   C4A62492   9.030  17.200  17.920
 3386DPPE   C1B62493   8.340  18.250  18.420
 3386DPPE   C2B62494   8.640  17.980  18.240
 3386DPPE   C3B62495   9.000  17.850  18.000
 3386DPPE   C4B62496   9.230  17.560  17.670
 3387DPPE   NH362497   9.270   8.810  16.960
 3387DPPE   PO462498   9.380   9.300  17.100
 3387DPPE   GL162499   9.140   9.180  17.520
 3387DPPE   GL262500   8.970   8.940  17.340
 3387DPPE   C1A62501   9.030   8.960  17.890
 3387DPPE   C2A62502   8.750   8.660  18.130
 3387DPPE   C3A62503   8.620   8.600  18.440
 3387DPPE   C4A62504   8.290   8.410  18.680
 3387DPPE   C1B62505   8.820   8.580  17.650
 3387DPPE   C2B62506   8.500   8.220  17.790
 3387DPPE   C3B62507   8.020   7.990  17.740
 3387DPPE   C4B62508   7.700   7.790  17.960
 3388DPPE   NH362509   8.540  11.670  18.040
 3388DPPE   PO462510   8.580  11.090  18.170
 3388DPPE   GL162511   8.410  10.680  18.260
 3388DPPE   GL262512   8.450  10.580  18.590
 3388DPPE   C1A62513   7.930  10.580  18.470
 3388DPPE   C2A62514   7.590  10.280  18.480
 3388DPPE   C3A62515   7.400  10.210  18.840
 3388DPPE   C4A62516   7.170  10.100  19.130
 3388DPPE   C1B62517   8.240  10.390  18.950
 3388DPPE   C2B62518   8.230  10.430  19.340
 3388DPPE   C3B62519   8.040  10.150  19.710
 3388DPPE   C4B62520   8.060   9.880  19.930
 3389DPPE   NH362521   6.040  15.630  14.440
 3389DPPE   PO462522   5.840  15.420  14.010
 3389DPPE   GL162523   6.220  15.370  13.790
 3389DPPE   GL262524   6.440  15.220  14.000
 3389DPPE   C1A62525   6.440  15.320  13.420
 3389DPPE   C2A62526   6.610  15.430  13.020
 3389DPPE   C3A62527   6.590  15.740  12.720
 3389DPPE   C4A62528   6.480  16.080  12.560
 3389DPPE   C1B62529   6.790  15.220  13.820
 3389DPPE   C2B62530   6.940  15.340  13.550
 3389DPPE   C3B62531   6.870  15.730  13.280
 3389DPPE   C4B62532   7.270  15.990  13.220
 3390DPPE   NH362533   4.500  17.940  14.470
 3390DPPE   PO462534   4.560  18.340  14.440
 3390DPPE   GL162535   4.190  18.210  14.150
 3390DPPE   GL262536   4.150  18.140  13.780
 3390DPPE   C1A62537   3.700  18.300  13.910
 3390DPPE   C2A62538   3.610  18.030  13.670
 3390DPPE   C3A62539   3.270  17.820  13.500
 3390DPPE   C4A62540   2.960  17.440  13.490
 3390DPPE   C1B62541   3.930  17.830  14.040
 3390DPPE   C2B62542   3.590  17.690  14.040
 3390DPPE   C3B62543   3.350  17.430  13.870
 3390DPPE   C4B62544   3.070  17.090  13.890
 3391DPPE   NH362545  13.310  13.250  23.240
 3391DPPE   PO462546  13.720  13.280  23.410
 3391DPPE   GL162547  13.580  13.180  23.700
 3391DPPE   GL262548  13.270  13.330  23.790
 3391DPPE   C1A62549  13.510  13.140  24.170
 3391DPPE   C2A62550  13.750  12.990  24.560
 3391DPPE   C3A62551  13.650  12.770  24.760
 3391DPPE   C4A62552  13.690  12.310  24.940
 3391DPPE   C1B62553  12.950  13.210  24.140
 3391DPPE   C2B62554  12.700  13.190  24.450
 3391DPPE   C3B62555  12.610  13.090  24.910
 3391DPPE   C4B62556  12.330  13.300  25.150
 3392DPPE   NH362557  13.300  19.810  22.740
 3392DPPE   PO462558  13.230  19.300  22.830
 3392DPPE   GL162559  12.990  19.060  22.530
 3392DPPE   GL262560  13.240  18.870  22.490
 3392DPPE   C1A62561  13.030  18.980  22.060
 3392DPPE   C2A62562  12.950  18.790  21.750
 3392DPPE   C3A62563  13.300  18.650  21.520
 3392DPPE   C4A62564  13.660  18.780  21.410
 3392DPPE   C1B62565  13.300  18.550  22.170
 3392DPPE   C2B62566  13.400  18.280  21.860
 3392DPPE   C3B62567  13.650  18.130  21.600
 3392DPPE   C4B62568  13.810  18.290  21.310
 3393DPPE   NH362569   8.960   9.250  15.250
 3393DPPE   PO462570   9.100   8.770  15.040
 3393DPPE   GL162571   8.880   8.400  14.840
 3393DPPE   GL262572   8.790   8.290  14.500
 3393DPPE   C1A62573   9.000   7.930  14.850
 3393DPPE   C2A62574   9.210   7.730  15.130
 3393DPPE   C3A62575   9.440   7.520  15.440
 3393DPPE   C4A62576   9.900   7.620  15.560
 3393DPPE   C1B62577   9.030   7.970  14.360
 3393DPPE   C2B62578   9.130   7.570  14.360
 3393DPPE   C3B62579   9.380   7.180  14.290
 3393DPPE   C4B62580   9.410   6.830  13.950
 3394DPPE   NH362581  15.570  12.680  23.590
 3394DPPE   PO462582  16.020  12.410  23.550
 3394DPPE   GL162583  16.440  12.530  23.730
 3394DPPE   GL262584  16.580  12.350  23.520
 3394DPPE   C1A62585  16.610  12.230  24.000
 3394DPPE   C2A62586  16.600  12.150  24.430
 3394DPPE   C3A62587  16.800  11.960  24.840
 3394DPPE   C4A62588  16.880  11.800  25.270
 3394DPPE   C1B62589  16.940  12.440  23.520
 3394DPPE   C2B62590  17.290  12.760  23.570
 3394DPPE   C3B62591  17.760  12.780  23.770
 3394DPPE   C4B62592  18.030  12.910  23.950
 3395DPPE   NH362593  13.300  10.720  20.110
 3395DPPE   PO462594  13.520  10.910  20.540
 3395DPPE   GL162595  13.820  10.950  20.140
 3395DPPE   GL262596  14.080  10.920  20.120
 3395DPPE   C1A62597  13.940  11.180  19.730
 3395DPPE   C2A62598  14.280  11.460  19.640
 3395DPPE   C3A62599  14.550  11.740  19.450
 3395DPPE   C4A62600  14.640  12.180  19.170
 3395DPPE   C1B62601  14.270  11.330  20.150
 3395DPPE   C2B62602  14.190  11.760  19.980
 3395DPPE   C3B62603  14.520  12.140  20.080
 3395DPPE   C4B62604  14.830  12.490  20.040
 3396DPPE   NH362605  11.300  13.550  22.660
 3396DPPE   PO462606  11.510  13.760  22.970
 3396DPPE   GL162607  11.340  13.750  23.420
 3396DPPE   GL262608  11.150  13.560  23.390
 3396DPPE   C1A62609  11.300  14.050  23.790
 3396DPPE   C2A62610  11.490  14.240  24.040
 3396DPPE   C3A62611  11.330  14.290  24.530
 3396DPPE   C4A62612  11.260  14.410  24.970
 3396DPPE   C1B62613  11.170  13.450  23.880
 3396DPPE   C2B62614  11.210  13.370  24.350
 3396DPPE   C3B62615  11.150  13.130  24.750
 3396DPPE   C4B62616  11.200  12.790  24.930
 3397DPPE   NH362617  10.610  15.370  22.510
 3397DPPE   PO462618  10.720  15.680  22.090
 3397DPPE   GL162619  10.800  15.760  21.690
 3397DPPE   GL262620  10.950  16.050  21.660
 3397DPPE   C1A62621  11.020  15.730  21.250
 3397DPPE   C2A62622  11.160  15.820  20.910
 3397DPPE   C3A62623  11.470  16.020  20.640
 3397DPPE   C4A62624  11.930  16.260  20.490
 3397DPPE   C1B62625  11.170  16.190  21.350
 3397DPPE   C2B62626  11.320  16.420  20.960
 3397DPPE   C3B62627  11.540  16.600  20.640
 3397DPPE   C4B62628  11.750  16.760  20.220
 3398DPPE   NH362629  11.560  12.970  22.430
 3398DPPE   PO462630  11.210  13.140  22.360
 3398DPPE   GL162631  11.010  13.050  22.720
 3398DPPE   GL262632  10.830  13.350  22.730
 3398DPPE   C1A62633  10.870  13.180  23.200
 3398DPPE   C2A62634  10.840  13.110  23.590
 3398DPPE   C3A62635  10.840  12.760  23.800
 3398DPPE   C4A62636  11.110  12.410  23.920
 3398DPPE   C1B62637  10.490  12.990  22.780
 3398DPPE   C2B62638  10.250  12.700  23.120
 3398DPPE   C3B62639  10.370  12.740  23.580
 3398DPPE   C4B62640  10.480  12.940  24.040
 3399DPPE   NH362641   9.840  10.840  18.170
 3399DPPE   PO462642   9.650  11.210  18.120
 3399DPPE   GL162643   9.990  11.570  18.170
 3399DPPE   GL262644   9.800  11.920  18.190
 3399DPPE   C1A62645  10.420  11.790  18.150
 3399DPPE   C2A62646  10.560  12.180  18.040
 3399DPPE   C3A62647  10.880  12.270  17.700
 3399DPPE   C4A62648  11.360  12.230  17.700
 3399DPPE   C1B62649  10.090  12.270  18.170
 3399DPPE   C2B62650  10.340  12.670  17.970
 3399DPPE   C3B62651  10.820  12.730  17.930
 3399DPPE   C4B62652  11.180  12.750  17.710
 3400DPPE   NH362653   6.960  11.370  13.450
 3400DPPE   PO462654   6.630  11.410  13.120
 3400DPPE   GL162655   6.570  11.340  12.730
 3400DPPE   GL262656   6.860  11.190  12.500
 3400DPPE   C1A62657   6.360  11.080  12.420
 3400DPPE   C2A62658   6.410  10.710  12.090
 3400DPPE   C3A62659   6.680  10.520  11.830
 3400DPPE   C4A62660   6.770  10.210  11.610
 3400DPPE   C1B62661   7.130  11.300  12.140
 3400DPPE   C2B62662   7.370  11.600  12.020
 3400DPPE   C3B62663   7.770  11.790  12.060
 3400DPPE   C4B62664   8.150  11.870  12.240
 3401DPPE   NH362665  10.280  14.770  21.470
 3401DPPE   PO462666  10.630  14.720  21.630
 3401DPPE   GL162667  10.920  14.700  21.270
 3401DPPE   GL262668  11.340  14.770  21.360
 3401DPPE   C1A62669  11.170  14.790  20.850
 3401DPPE   C2A62670  11.380  14.980  20.470
 3401DPPE   C3A62671  11.710  15.330  20.260
 3401DPPE   C4A62672  11.890  15.520  19.880
 3401DPPE   C1B62673  11.630  14.960  21.030
 3401DPPE   C2B62674  11.920  15.030  20.610
 3401DPPE   C3B62675  12.240  15.310  20.330
 3401DPPE   C4B62676  12.610  15.280  20.000
 3402DPPE   NH362677   8.710  17.860  20.100
 3402DPPE   PO462678   8.460  17.690  19.850
 3402DPPE   GL162679   8.790  17.630  19.690
 3402DPPE   GL262680   9.180  17.470  19.770
 3402DPPE   C1A62681   8.920  17.310  19.340
 3402DPPE   C2A62682   9.120  17.400  18.970
 3402DPPE   C3A62683   9.420  17.410  18.580
 3402DPPE   C4A62684   9.410  17.590  18.140
 3402DPPE   C1B62685   9.390  17.480  19.360
 3402DPPE   C2B62686   9.680  17.360  19.010
 3402DPPE   C3B62687   9.880  17.310  18.700
 3402DPPE   C4B62688   9.850  17.300  18.280
 3403DPPE   NH362689  12.550  20.150  22.630
 3403DPPE   PO462690  13.010  20.270  22.610
 3403DPPE   GL162691  13.300  20.100  22.290
 3403DPPE   GL262692  13.420  19.790  22.270
 3403DPPE   C1A62693  13.520  20.110  21.920
 3403DPPE   C2A62694  13.910  20.030  21.760
 3403DPPE   C3A62695  14.250  20.180  21.580
 3403DPPE   C4A62696  14.720  20.290  21.700
 3403DPPE   C1B62697  13.720  19.620  21.960
 3403DPPE   C2B62698  13.660  19.310  21.600
 3403DPPE   C3B62699  13.790  19.230  21.150
 3403DPPE   C4B62700  14.180  19.080  21.290
 3404DPPE   NH362701   6.730  21.480  17.120
 3404DPPE   PO462702   6.480  21.720  16.950
 3404DPPE   GL162703   6.130  21.990  16.790
 3404DPPE   GL262704   6.260  22.210  16.640
 3404DPPE   C1A62705   5.630  22.170  16.910
 3404DPPE   C2A62706   5.410  22.460  16.990
 3404DPPE   C3A62707   4.930  22.500  17.000
 3404DPPE   C4A62708   4.790  22.910  17.010
 3404DPPE   C1B62709   5.980  22.520  16.730
 3404DPPE   C2B62710   5.630  22.630  16.550
 3404DPPE   C3B62711   5.540  23.060  16.530
 3404DPPE   C4B62712   5.340  23.340  16.260
 3405DPPE   NH362713  13.480   8.930  20.140
 3405DPPE   PO462714  13.760   8.630  19.910
 3405DPPE   GL162715  13.730   8.220  19.860
 3405DPPE   GL262716  13.840   8.130  19.450
 3405DPPE   C1A62717  13.590   7.680  19.920
 3405DPPE   C2A62718  13.460   7.330  19.690
 3405DPPE   C3A62719  13.500   6.930  19.950
 3405DPPE   C4A62720  13.440   6.570  19.930
 3405DPPE   C1B62721  14.220   7.950  19.280
 3405DPPE   C2B62722  14.390   7.980  18.940
 3405DPPE   C3B62723  14.340   7.840  18.510
 3405DPPE   C4B62724  14.570   7.770  18.110
 3406DPPE   NH362725   7.660  12.470  16.330
 3406DPPE   PO462726   7.840  12.340  16.680
 3406DPPE   GL162727   8.080  12.730  16.600
 3406DPPE   GL262728   8.230  12.790  16.360
 3406DPPE   C1A62729   8.120  13.180  16.650
 3406DPPE   C2A62730   8.280  13.560  16.500
 3406DPPE   C3A62731   8.620  13.840  16.270
 3406DPPE   C4A62732   9.000  13.870  15.980
 3406DPPE   C1B62733   8.410  13.100  16.200
 3406DPPE   C2B62734   8.680  13.200  16.180
 3406DPPE   C3B62735   9.090  13.340  16.100
 3406DPPE   C4B62736   9.470  13.600  16.090
 3407DPPE   NH362737   6.320  21.730  18.210
 3407DPPE   PO462738   6.370  22.140  18.270
 3407DPPE   GL162739   6.000  22.200  18.100
 3407DPPE   GL262740   6.140  22.140  17.710
 3407DPPE   C1A62741   5.650  22.430  18.070
 3407DPPE   C2A62742   5.300  22.700  18.280
 3407DPPE   C3A62743   5.100  23.020  18.400
 3407DPPE   C4A62744   4.760  23.100  18.780
 3407DPPE   C1B62745   5.700  22.350  17.560
 3407DPPE   C2B62746   5.250  22.420  17.690
 3407DPPE   C3B62747   4.850  22.570  17.490
 3407DPPE   C4B62748   4.450  22.530  17.340
 3408DPPE   NH362749   9.130  18.520  22.080
 3408DPPE   PO462750   8.850  18.530  21.740
 3408DPPE   GL162751   8.450  18.650  21.980
 3408DPPE   GL262752   8.720  18.680  22.310
 3408DPPE   C1A62753   8.140  18.780  22.230
 3408DPPE   C2A62754   7.910  18.970  22.560
 3408DPPE   C3A62755   7.720  18.910  22.930
 3408DPPE   C4A62756   7.440  18.960  23.250
 3408DPPE   C1B62757   8.410  18.750  22.660
 3408DPPE   C2B62758   8.060  18.560  22.740
 3408DPPE   C3B62759   7.850  18.320  23.040
 3408DPPE   C4B62760   7.510  18.040  23.250
 3409DPPE   NH362761   6.850  18.040  19.810
 3409DPPE   PO462762   7.220  17.820  19.790
 3409DPPE   GL162763   7.000  17.800  20.220
 3409DPPE   GL262764   6.860  18.150  20.290
 3409DPPE   C1A62765   6.720  17.830  20.590
 3409DPPE   C2A62766   6.520  18.020  20.920
 3409DPPE   C3A62767   6.240  18.210  21.090
 3409DPPE   C4A62768   5.990  18.400  21.310
 3409DPPE   C1B62769   6.570  18.340  20.520
 3409DPPE   C2B62770   6.140  18.430  20.600
 3409DPPE   C3B62771   5.710  18.360  20.860
 3409DPPE   C4B62772   5.490  18.200  21.230
 3410DPPE   NH362773  13.210  14.180  22.660
 3410DPPE   PO462774  12.990  14.480  22.930
 3410DPPE   GL162775  12.980  14.710  22.540
 3410DPPE   GL262776  13.360  14.740  22.420
 3410DPPE   C1A62777  12.890  14.820  22.100
 3410DPPE   C2A62778  12.860  14.960  21.710
 3410DPPE   C3A62779  13.030  15.060  21.360
 3410DPPE   C4A62780  12.720  15.250  21.110
 3410DPPE   C1B62781  13.610  14.940  22.070
 3410DPPE   C2B62782  13.780  15.250  21.890
 3410DPPE   C3B62783  13.680  15.420  21.470
 3410DPPE   C4B62784  13.840  15.580  21.160
 3411DPPE   NH362785   8.280  11.530  16.450
 3411DPPE   PO462786   8.680  11.620  16.600
 3411DPPE   GL162787   8.770  12.050  16.550
 3411DPPE   GL262788   9.080  11.970  16.710
 3411DPPE   C1A62789   9.100  12.380  16.330
 3411DPPE   C2A62790   9.310  12.340  16.100
 3411DPPE   C3A62791   9.560  12.460  15.680
 3411DPPE   C4A62792   9.580  12.320  15.270
 3411DPPE   C1B62793   9.480  12.100  16.530
 3411DPPE   C2B62794   9.940  12.200  16.720
 3411DPPE   C3B62795  10.400  12.390  16.750
 3411DPPE   C4B62796  10.910  12.430  16.810
 3412DPPE   NH362797   6.560  15.530  18.670
 3412DPPE   PO462798   6.440  15.960  18.790
 3412DPPE   GL162799   6.150  16.040  19.200
 3412DPPE   GL262800   6.370  15.970  19.580
 3412DPPE   C1A62801   5.920  15.890  19.540
 3412DPPE   C2A62802   5.720  15.620  19.760
 3412DPPE   C3A62803   5.620  15.200  20.010
 3412DPPE   C4A62804   5.260  14.920  20.300
 3412DPPE   C1B62805   6.280  15.740  19.930
 3412DPPE   C2B62806   6.070  15.780  20.210
 3412DPPE   C3B62807   5.610  15.820  20.280
 3412DPPE   C4B62808   5.320  15.850  20.630
 3413DPPE   NH362809  13.360   8.790  20.610
 3413DPPE   PO462810  13.620   9.020  20.850
 3413DPPE   GL162811  13.680   8.690  21.010
 3413DPPE   GL262812  13.370   8.450  20.950
 3413DPPE   C1A62813  13.620   8.230  21.340
 3413DPPE   C2A62814  13.600   7.890  21.660
 3413DPPE   C3A62815  13.470   7.590  22.030
 3413DPPE   C4A62816  13.090   7.580  22.220
 3413DPPE   C1B62817  13.120   8.040  21.060
 3413DPPE   C2B62818  12.970   7.700  20.790
 3413DPPE   C3B62819  13.240   7.320  20.680
 3413DPPE   C4B62820  13.380   7.000  20.890
 3414DPPE   NH362821  13.640  12.030  21.260
 3414DPPE   PO462822  13.420  12.290  21.490
 3414DPPE   GL162823  13.280  12.340  21.030
 3414DPPE   GL262824  13.520  12.340  20.870
 3414DPPE   C1A62825  13.210  12.510  20.490
 3414DPPE   C2A62826  13.160  12.730  20.090
 3414DPPE   C3A62827  13.310  12.850  19.740
 3414DPPE   C4A62828  13.330  12.950  19.420
 3414DPPE   C1B62829  13.730  12.540  20.550
 3414DPPE   C2B62830  13.700  12.820  20.230
 3414DPPE   C3B62831  13.790  13.060  19.900
 3414DPPE   C4B62832  14.190  13.150  19.790
 3415DPPE   NH362833   9.940  22.460  19.850
 3415DPPE   PO462834   9.440  22.570  19.680
 3415DPPE   GL162835   9.700  22.470  19.300
 3415DPPE   GL262836   9.570  22.170  19.150
 3415DPPE   C1A62837   9.860  22.470  18.880
 3415DPPE   C2A62838  10.160  22.630  18.630
 3415DPPE   C3A62839  10.320  22.990  18.350
 3415DPPE   C4A62840  10.450  23.270  18.030
 3415DPPE   C1B62841   9.650  22.000  18.780
 3415DPPE   C2B62842   9.780  21.840  18.450
 3415DPPE   C3B62843   9.860  21.430  18.210
 3415DPPE   C4B62844   9.860  21.010  18.120
 3416DPPE   NH362845  15.000   9.830  20.310
 3416DPPE   PO462846  15.380   9.610  20.470
 3416DPPE   GL162847  15.620   9.370  20.330
 3416DPPE   GL262848  15.490   8.990  20.300
 3416DPPE   C1A62849  15.810   9.410  19.940
 3416DPPE   C2A62850  16.140   9.660  19.800
 3416DPPE   C3A62851  16.320  10.070  19.830
 3416DPPE   C4A62852  16.320  10.470  19.560
 3416DPPE   C1B62853  15.940   8.950  20.280
 3416DPPE   C2B62854  16.410   8.740  20.300
 3416DPPE   C3B62855  16.510   9.050  20.100
 3416DPPE   C4B62856  16.510   9.390  19.770
 3417DPPE   NH362857   6.540  16.330  18.560
 3417DPPE   PO462858   6.290  16.500  18.940
 3417DPPE   GL162859   5.900  16.530  19.080
 3417DPPE   GL262860   5.730  16.260  19.110
 3417DPPE   C1A62861   5.490  16.730  19.030
 3417DPPE   C2A62862   4.990  16.530  19.180
 3417DPPE   C3A62863   4.600  16.310  19.280
 3417DPPE   C4A62864   4.230  16.420  19.580
 3417DPPE   C1B62865   5.380  16.030  19.220
 3417DPPE   C2B62866   4.930  16.050  19.010
 3417DPPE   C3B62867   4.470  15.890  19.050
 3417DPPE   C4B62868   4.190  15.990  19.360
 3418DPPE   NH362869  10.870  11.960  21.760
 3418DPPE   PO462870  11.320  11.940  21.980
 3418DPPE   GL162871  11.470  11.760  22.380
 3418DPPE   GL262872  11.690  11.780  22.450
 3418DPPE   C1A62873  11.550  11.290  22.740
 3418DPPE   C2A62874  11.380  10.990  23.140
 3418DPPE   C3A62875  11.390  11.070  23.600
 3418DPPE   C4A62876  11.390  10.930  24.110
 3418DPPE   C1B62877  11.650  11.310  22.230
 3418DPPE   C2B62878  11.500  10.880  22.400
 3418DPPE   C3B62879  11.200  10.630  22.720
 3418DPPE   C4B62880  11.180  10.380  23.150
 3419DPPE   NH362881  14.810   9.390  21.240
 3419DPPE   PO462882  15.240   9.090  21.240
 3419DPPE   GL162883  15.080   8.600  21.110
 3419DPPE   GL262884  15.370   8.610  20.990
 3419DPPE   C1A62885  15.210   8.240  21.250
 3419DPPE   C2A62886  15.650   8.200  21.450
 3419DPPE   C3A62887  15.890   8.570  21.640
 3419DPPE   C4A62888  16.260   8.690  21.850
 3419DPPE   C1B62889  15.270   8.320  20.740
 3419DPPE   C2B62890  15.490   8.040  20.500
 3419DPPE   C3B62891  15.790   7.590  20.580
 3419DPPE   C4B62892  15.840   7.110  20.480
 3420DPPE   NH362893   7.390  12.980  19.030
 3420DPPE   PO462894   7.290  13.320  18.670
 3420DPPE   GL162895   6.940  13.100  18.770
 3420DPPE   GL262896   6.670  13.310  18.700
 3420DPPE   C1A62897   6.750  12.760  18.890
 3420DPPE   C2A62898   6.320  12.610  19.120
 3420DPPE   C3A62899   6.030  12.560  19.530
 3420DPPE   C4A62900   5.580  12.680  19.510
 3420DPPE   C1B62901   6.410  13.110  18.950
 3420DPPE   C2B62902   6.080  13.020  19.250
 3420DPPE   C3B62903   5.840  13.080  19.710
 3420DPPE   C4B62904   5.730  12.960  20.060
 3421DPPE   NH362905  13.560  18.000  23.410
 3421DPPE   PO462906  13.850  18.210  23.290
 3421DPPE   GL162907  14.120  18.250  22.930
 3421DPPE   GL262908  14.420  18.450  22.960
 3421DPPE   C1A62909  14.110  18.070  22.610
 3421DPPE   C2A62910  14.480  17.940  22.460
 3421DPPE   C3A62911  14.890  17.980  22.370
 3421DPPE   C4A62912  15.190  18.220  22.420
 3421DPPE   C1B62913  14.660  18.390  22.570
 3421DPPE   C2B62914  14.820  18.430  22.210
 3421DPPE   C3B62915  14.810  18.290  21.840
 3421DPPE   C4B62916  14.490  18.180  21.590
 3422DPPE   NH362917  11.400  14.650  22.440
 3422DPPE   PO462918  11.440  14.220  22.720
 3422DPPE   GL162919  11.090  14.000  22.950
 3422DPPE   GL262920  11.010  14.090  23.360
 3422DPPE   C1A62921  10.770  13.700  23.110
 3422DPPE   C2A62922  10.630  13.550  23.500
 3422DPPE   C3A62923  10.610  13.400  23.910
 3422DPPE   C4A62924  10.360  13.360  24.300
 3422DPPE   C1B62925  10.760  13.990  23.640
 3422DPPE   C2B62926  10.650  13.910  24.090
 3422DPPE   C3B62927  10.350  13.850  24.480
 3422DPPE   C4B62928  10.000  13.560  24.680
 3423DPPE   NH362929  11.200  22.470  22.490
 3423DPPE   PO462930  11.150  22.050  22.580
 3423DPPE   GL162931  11.030  22.130  22.950
 3423DPPE   GL262932  10.820  21.880  22.980
 3423DPPE   C1A62933  11.180  22.430  23.260
 3423DPPE   C2A62934  11.310  22.620  23.660
 3423DPPE   C3A62935  11.560  22.770  24.070
 3423DPPE   C4A62936  11.730  22.890  24.410
 3423DPPE   C1B62937  10.560  21.860  23.350
 3423DPPE   C2B62938  10.460  22.020  23.810
 3423DPPE   C3B62939  10.160  22.080  24.080
 3423DPPE   C4B62940  10.120  22.060  24.570
 3424DPPE   NH362941  14.040  18.680  23.220
 3424DPPE   PO462942  14.440  18.920  23.370
 3424DPPE   GL162943  14.820  18.920  23.140
 3424DPPE   GL262944  14.850  19.250  23.040
 3424DPPE   C1A62945  15.150  18.840  22.980
 3424DPPE   C2A62946  15.370  18.460  22.840
 3424DPPE   C3A62947  15.490  18.080  22.720
 3424DPPE   C4A62948  15.270  17.700  22.510
 3424DPPE   C1B62949  15.170  19.340  22.780
 3424DPPE   C2B62950  15.540  19.410  22.750
 3424DPPE   C3B62951  15.870  19.340  22.910
 3424DPPE   C4B62952  16.140  19.120  23.090
 3425DPPE   NH362953   6.350  14.060  14.420
 3425DPPE   PO462954   6.340  13.690  14.610
 3425DPPE   GL162955   6.740  13.730  14.360
 3425DPPE   GL262956   6.780  13.760  14.040
 3425DPPE   C1A62957   7.160  13.860  14.320
 3425DPPE   C2A62958   7.600  13.850  14.160
 3425DPPE   C3A62959   8.010  13.960  14.070
 3425DPPE   C4A62960   8.390  14.150  13.960
 3425DPPE   C1B62961   7.030  13.840  13.790
 3425DPPE   C2B62962   7.230  13.990  13.460
 3425DPPE   C3B62963   7.360  14.380  13.340
 3425DPPE   C4B62964   7.350  14.590  13.060
 3426DPPE   NH362965  11.500  15.480  22.320
 3426DPPE   PO462966  11.770  15.550  22.570
 3426DPPE   GL162967  12.040  15.590  22.170
 3426DPPE   GL262968  11.890  15.290  22.080
 3426DPPE   C1A62969  12.280  15.790  21.940
 3426DPPE   C2A62970  12.470  16.130  21.770
 3426DPPE   C3A62971  12.730  16.150  21.500
 3426DPPE   C4A62972  13.050  16.030  21.230
 3426DPPE   C1B62973  12.260  15.140  22.070
 3426DPPE   C2B62974  12.560  15.460  22.140
 3426DPPE   C3B62975  12.750  15.880  22.180
 3426DPPE   C4B62976  12.870  16.220  22.120
 3427DPPE   NH362977   4.870  18.470  15.620
 3427DPPE   PO462978   4.880  18.830  15.420
 3427DPPE   GL162979   4.480  19.050  15.200
 3427DPPE   GL262980   4.390  19.320  15.440
 3427DPPE   C1A62981   3.970  18.980  15.170
 3427DPPE   C2A62982   3.680  18.770  15.410
 3427DPPE   C3A62983   3.520  18.820  15.770
 3427DPPE   C4A62984   3.160  19.030  15.700
 3427DPPE   C1B62985   3.940  19.230  15.610
 3427DPPE   C2B62986   3.540  19.400  15.800
 3427DPPE   C3B62987   3.170  19.370  16.070
 3427DPPE   C4B62988   2.990  19.130  16.380
 3428DPPE   NH362989  15.320  14.860  24.450
 3428DPPE   PO462990  15.560  15.100  24.080
 3428DPPE   GL162991  16.010  15.110  24.140
 3428DPPE   GL262992  16.180  14.880  23.950
 3428DPPE   C1A62993  16.430  15.280  24.180
 3428DPPE   C2A62994  16.880  15.330  24.220
 3428DPPE   C3A62995  17.270  15.040  24.450
 3428DPPE   C4A62996  17.500  14.750  24.500
 3428DPPE   C1B62997  16.560  15.020  23.740
 3428DPPE   C2B62998  16.980  15.020  23.560
 3428DPPE   C3B62999  17.220  14.830  23.350
 3428DPPE   C4B63000  17.360  14.590  23.100
 3429DPPE   NH363001   4.720  17.280  13.760
 3429DPPE   PO463002   4.810  16.890  13.600
 3429DPPE   GL163003   4.660  17.130  13.250
 3429DPPE   GL263004   4.750  17.530  13.340
 3429DPPE   C1A63005   4.490  17.280  12.930
 3429DPPE   C2A63006   4.240  17.400  12.630
 3429DPPE   C3A63007   3.990  17.490  12.260
 3429DPPE   C4A63008   3.590  17.700  12.230
 3429DPPE   C1B63009   4.840  17.670  12.980
 3429DPPE   C2B63010   4.640  17.800  12.630
 3429DPPE   C3B63011   4.470  17.740  12.310
 3429DPPE   C4B63012   4.300  17.610  11.850
 3430DPPE   NH363013   7.730  16.240  19.780
 3430DPPE   PO463014   7.370  15.990  19.680
 3430DPPE   GL163015   7.120  15.890  20.050
 3430DPPE   GL263016   7.010  15.700  20.090
 3430DPPE   C1A63017   6.870  16.000  20.510
 3430DPPE   C2A63018   6.710  15.940  20.910
 3430DPPE   C3A63019   6.360  15.840  21.030
 3430DPPE   C4A63020   6.020  15.730  21.290
 3430DPPE   C1B63021   6.870  15.540  20.510
 3430DPPE   C2B63022   6.690  15.450  20.960
 3430DPPE   C3B63023   6.470  15.510  21.420
 3430DPPE   C4B63024   6.170  15.450  21.660
 3431DPPE   NH363025  10.380  22.290  22.130
 3431DPPE   PO463026  10.790  22.450  22.160
 3431DPPE   GL163027  10.470  22.770  22.170
 3431DPPE   GL263028  10.120  22.760  22.140
 3431DPPE   C1A63029  10.440  22.920  22.620
 3431DPPE   C2A63030  10.220  23.270  22.830
 3431DPPE   C3A63031   9.960  23.210  23.150
 3431DPPE   C4A63032   9.820  23.460  23.550
 3431DPPE   C1B63033  10.010  22.750  22.630
 3431DPPE   C2B63034   9.910  22.700  23.000
 3431DPPE   C3B63035   9.950  22.810  23.480
 3431DPPE   C4B63036   9.930  22.470  23.810
 3432DPPE   NH363037  12.450   9.670  18.830
 3432DPPE   PO463038  12.690   9.270  19.050
 3432DPPE   GL163039  12.920   9.550  18.680
 3432DPPE   GL263040  13.270   9.580  18.600
 3432DPPE   C1A63041  12.970   9.710  18.260
 3432DPPE   C2A63042  13.250   9.810  17.930
 3432DPPE   C3A63043  13.510   9.770  17.580
 3432DPPE   C4A63044  13.550   9.740  17.170
 3432DPPE   C1B63045  13.430   9.750  18.380
 3432DPPE   C2B63046  13.690   9.880  18.220
 3432DPPE   C3B63047  13.780  10.100  17.860
 3432DPPE   C4B63048  13.920  10.510  17.750
 3433DPPE   NH363049   6.000  19.470  15.100
 3433DPPE   PO463050   5.610  19.710  14.800
 3433DPPE   GL163051   5.780  19.820  14.380
 3433DPPE   GL263052   5.580  19.930  14.240
 3433DPPE   C1A63053   6.000  19.670  13.950
 3433DPPE   C2A63054   6.010  19.860  13.570
 3433DPPE   C3A63055   5.750  19.960  13.140
 3433DPPE   C4A63056   5.880  20.050  12.750
 3433DPPE   C1B63057   5.760  20.160  13.950
 3433DPPE   C2B63058   5.760  20.350  13.620
 3433DPPE   C3B63059   5.750  20.540  13.290
 3433DPPE   C4B63060   5.850  20.640  12.770
 3434DPPE   NH363061  12.670  10.870  20.050
 3434DPPE   PO463062  12.950  10.450  19.860
 3434DPPE   GL163063  13.150  10.770  19.630
 3434DPPE   GL263064  12.860  10.920  19.610
 3434DPPE   C1A63065  13.320  10.780  19.200
 3434DPPE   C2A63066  13.610  10.940  18.870
 3434DPPE   C3A63067  13.800  11.260  18.530
 3434DPPE   C4A63068  14.120  11.280  18.160
 3434DPPE   C1B63069  12.960  11.180  19.350
 3434DPPE   C2B63070  13.270  11.290  19.010
 3434DPPE   C3B63071  13.450  11.580  18.720
 3434DPPE   C4B63072  13.620  11.640  18.280
 3435DPPE   NH363073   5.610  15.090  13.710
 3435DPPE   PO463074   5.630  15.230  13.200
 3435DPPE   GL163075   5.780  15.460  12.780
 3435DPPE   GL263076   5.580  15.570  12.490
 3435DPPE   C1A63077   6.060  15.630  12.400
 3435DPPE   C2A63078   6.480  15.410  12.260
 3435DPPE   C3A63079   6.900  15.220  12.100
 3435DPPE   C4A63080   7.070  15.210  11.750
 3435DPPE   C1B63081   5.640  15.500  12.020
 3435DPPE   C2B63082   6.160  15.290  11.880
 3435DPPE   C3B63083   6.540  15.130  11.810
 3435DPPE   C4B63084   6.750  14.780  11.850
 3436DPPE   NH363085   8.530  12.950  20.280
 3436DPPE   PO463086   8.330  13.350  20.090
 3436DPPE   GL163087   7.880  13.290  20.220
 3436DPPE   GL263088   7.650  13.110  20.130
 3436DPPE   C1A63089   7.550  13.360  20.500
 3436DPPE   C2A63090   7.430  13.070  20.830
 3436DPPE   C3A63091   7.380  12.860  21.210
 3436DPPE   C4A63092   7.070  12.910  21.570
 3436DPPE   C1B63093   7.460  12.760  20.450
 3436DPPE   C2B63094   7.120  12.570  20.820
 3436DPPE   C3B63095   6.940  12.560  21.220
 3436DPPE   C4B63096   6.610  12.770  21.290
 3437DPPE   NH363097  11.620   7.870  17.440
 3437DPPE   PO463098  11.250   8.040  17.550
 3437DPPE   GL163099  10.920   7.860  17.510
 3437DPPE   GL263100  10.840   7.820  17.210
 3437DPPE   C1A63101  10.700   7.510  17.630
 3437DPPE   C2A63102  10.740   7.110  17.930
 3437DPPE   C3A63103  10.410   6.860  18.100
 3437DPPE   C4A63104  10.430   6.520  18.400
 3437DPPE   C1B63105  10.720   7.510  17.000
 3437DPPE   C2B63106  10.370   7.250  16.770
 3437DPPE   C3B63107  10.330   7.210  16.450
 3437DPPE   C4B63108  10.500   7.180  16.100
 3438DPPE   NH363109  12.480   7.770  17.400
 3438DPPE   PO463110  12.110   7.790  17.200
 3438DPPE   GL163111  12.420   7.480  16.990
 3438DPPE   GL263112  12.750   7.510  17.070
 3438DPPE   C1A63113  12.540   7.180  16.690
 3438DPPE   C2A63114  12.760   7.150  16.380
 3438DPPE   C3A63115  13.020   7.150  16.120
 3438DPPE   C4A63116  13.300   6.960  15.750
 3438DPPE   C1B63117  13.170   7.370  17.160
 3438DPPE   C2B63118  13.620   7.140  17.030
 3438DPPE   C3B63119  13.960   7.350  16.890
 3438DPPE   C4B63120  14.280   7.620  17.050
 3439DPPE   NH363121   8.040   9.240  14.340
 3439DPPE   PO463122   8.380   9.200  14.190
 3439DPPE   GL163123   8.450   9.040  13.740
 3439DPPE   GL263124   8.770   9.110  13.750
 3439DPPE   C1A63125   8.610   8.710  13.410
 3439DPPE   C2A63126   8.830   8.490  12.950
 3439DPPE   C3A63127   9.140   8.430  12.680
 3439DPPE   C4A63128   9.460   8.330  12.460
 3439DPPE   C1B63129   8.920   9.100  13.340
 3439DPPE   C2B63130   8.970   9.300  13.000
 3439DPPE   C3B63131   9.200   9.560  12.800
 3439DPPE   C4B63132   9.510   9.460  12.610
 3440DPPE   NH363133   6.050  21.510  16.810
 3440DPPE   PO463134   5.780  21.390  17.030
 3440DPPE   GL163135   5.400  21.620  17.150
 3440DPPE   GL263136   5.200  21.650  16.840
 3440DPPE   C1A63137   5.040  21.540  17.340
 3440DPPE   C2A63138   4.680  21.640  17.250
 3440DPPE   C3A63139   4.250  21.590  17.150
 3440DPPE   C4A63140   3.800  21.650  17.150
 3440DPPE   C1B63141   5.110  22.100  16.740
 3440DPPE   C2B63142   4.830  22.360  16.520
 3440DPPE   C3B63143   4.480  22.470  16.760
 3440DPPE   C4B63144   4.230  22.830  17.000
 3441DPPE   NH363145   7.850  22.090  17.890
 3441DPPE   PO463146   8.050  22.320  17.900
 3441DPPE   GL163147   8.410  22.130  17.720
 3441DPPE   GL263148   8.500  21.920  17.790
 3441DPPE   C1A63149   8.800  22.410  17.520
 3441DPPE   C2A63150   9.080  22.290  17.190
 3441DPPE   C3A63151   8.940  22.190  16.820
 3441DPPE   C4A63152   9.270  21.860  16.620
 3441DPPE   C1B63153   8.300  21.720  17.400
 3441DPPE   C2B63154   8.560  21.590  17.040
 3441DPPE   C3B63155   8.950  21.580  17.010
 3441DPPE   C4B63156   9.300  21.850  17.140
 3442DPPE   NH363157   5.480  16.280  16.630
 3442DPPE   PO463158   5.590  15.900  16.930
 3442DPPE   GL163159   5.190  15.820  16.910
 3442DPPE   GL263160   5.120  15.950  16.620
 3442DPPE   C1A63161   4.840  15.540  16.820
 3442DPPE   C2A63162   4.520  15.400  16.930
 3442DPPE   C3A63163   4.170  15.550  17.060
 3442DPPE   C4A63164   3.660  15.510  17.190
 3442DPPE   C1B63165   4.610  15.920  16.550
 3442DPPE   C2B63166   4.220  15.820  16.670
 3442DPPE   C3B63167   3.820  15.790  16.760
 3442DPPE   C4B63168   3.330  15.760  16.770
 3443DPPE   NH363169  13.620   9.490  19.530
 3443DPPE   PO463170  13.560   9.140  19.220
 3443DPPE   GL163171  13.620   9.350  18.910
 3443DPPE   GL263172  13.670   9.150  18.680
 3443DPPE   C1A63173  13.850   9.630  18.690
 3443DPPE   C2A63174  14.050   9.950  18.520
 3443DPPE   C3A63175  14.350  10.250  18.620
 3443DPPE   C4A63176  14.470  10.560  18.910
 3443DPPE   C1B63177  14.020   9.240  18.390
 3443DPPE   C2B63178  14.230   9.520  18.300
 3443DPPE   C3B63179  14.270   9.940  18.070
 3443DPPE   C4B63180  14.590  10.030  17.760
 3444DPPE   NH363181   5.180  19.310  14.740
 3444DPPE   PO463182   5.030  19.430  14.320
 3444DPPE   GL163183   4.860  19.620  14.020
 3444DPPE   GL263184   4.820  19.860  14.130
 3444DPPE   C1A63185   4.680  19.680  13.560
 3444DPPE   C2A63186   4.660  19.910  13.220
 3444DPPE   C3A63187   4.440  20.370  13.310
 3444DPPE   C4A63188   4.190  20.840  13.200
 3444DPPE   C1B63189   4.660  20.090  13.910
 3444DPPE   C2B63190   4.340  20.050  13.680
 3444DPPE   C3B63191   3.840  19.950  13.640
 3444DPPE   C4B63192   3.630  19.730  13.330
 3445DPPE   NH363193   5.180  19.710  15.040
 3445DPPE   PO463194   5.140  20.020  15.340
 3445DPPE   GL163195   4.680  20.330  15.280
 3445DPPE   GL263196   4.410  20.260  15.440
 3445DPPE   C1A63197   4.290  20.320  14.940
 3445DPPE   C2A63198   4.120  20.380  14.550
 3445DPPE   C3A63199   4.170  20.100  14.170
 3445DPPE   C4A63200   4.340  19.650  14.000
 3445DPPE   C1B63201   4.050  20.510  15.410
 3445DPPE   C2B63202   3.840  20.890  15.480
 3445DPPE   C3B63203   3.490  21.010  15.700
 3445DPPE   C4B63204   3.070  21.070  15.630
 3446DPPE   NH363205   9.200  12.400  20.450
 3446DPPE   PO463206   8.930  12.710  20.200
 3446DPPE   GL163207   8.620  12.410  20.360
 3446DPPE   GL263208   8.480  12.120  20.170
 3446DPPE   C1A63209   8.250  12.300  20.570
 3446DPPE   C2A63210   7.910  12.100  20.760
 3446DPPE   C3A63211   7.610  11.790  20.910
 3446DPPE   C4A63212   7.530  11.390  20.980
 3446DPPE   C1B63213   8.090  11.870  20.290
 3446DPPE   C2B63214   8.000  11.490  20.650
 3446DPPE   C3B63215   8.040  11.130  20.880
 3446DPPE   C4B63216   8.160  10.880  21.100
 3447DPPE   NH363217  11.530  19.920  23.300
 3447DPPE   PO463218  11.910  19.800  23.390
 3447DPPE   GL163219  11.790  19.920  23.870
 3447DPPE   GL263220  11.590  20.180  23.750
 3447DPPE   C1A63221  11.600  19.960  24.220
 3447DPPE   C2A63222  11.620  19.940  24.650
 3447DPPE   C3A63223  11.610  20.030  25.070
 3447DPPE   C4A63224  11.640  20.060  25.540
 3447DPPE   C1B63225  11.510  20.490  24.140
 3447DPPE   C2B63226  11.340  20.450  24.580
 3447DPPE   C3B63227  11.230  20.460  25.060
 3447DPPE   C4B63228  11.230  20.690  25.350
 3448DPPE   NH363229  13.140  15.030  23.720
 3448DPPE   PO463230  13.440  14.610  23.770
 3448DPPE   GL163231  13.350  14.390  24.230
 3448DPPE   GL263232  13.010  14.270  24.390
 3448DPPE   C1A63233  13.350  14.320  24.760
 3448DPPE   C2A63234  13.060  14.250  25.000
 3448DPPE   C3A63235  12.940  14.020  25.330
 3448DPPE   C4A63236  12.630  14.040  25.650
 3448DPPE   C1B63237  12.980  13.970  24.600
 3448DPPE   C2B63238  12.710  13.840  24.920
 3448DPPE   C3B63239  12.740  13.600  25.290
 3448DPPE   C4B63240  12.670  13.410  25.690
 3449DPPE   NH363241   7.560  20.690  17.780
 3449DPPE   PO463242   7.680  21.120  17.850
 3449DPPE   GL163243   8.030  20.870  17.770
 3449DPPE   GL263244   7.970  20.710  17.470
 3449DPPE   C1A63245   8.400  20.750  17.890
 3449DPPE   C2A63246   8.800  20.770  17.610
 3449DPPE   C3A63247   9.030  20.560  17.320
 3449DPPE   C4A63248   9.270  20.560  16.970
 3449DPPE   C1B63249   8.360  20.750  17.360
 3449DPPE   C2B63250   8.520  20.720  17.010
 3449DPPE   C3B63251   8.840  20.430  16.850
 3449DPPE   C4B63252   9.140  20.430  16.470
 3450DPPE   NH363253   5.210  14.090  14.380
 3450DPPE   PO463254   5.080  14.420  14.200
 3450DPPE   GL163255   4.630  14.210  14.250
 3450DPPE   GL263256   4.460  14.170  13.990
 3450DPPE   C1A63257   4.180  14.090  14.460
 3450DPPE   C2A63258   3.780  14.050  14.610
 3450DPPE   C3A63259   3.400  13.910  14.640
 3450DPPE   C4A63260   3.170  13.540  14.860
 3450DPPE   C1B63261   4.040  14.090  13.770
 3450DPPE   C2B63262   4.030  13.910  13.380
 3450DPPE   C3B63263   3.880  14.000  12.950
 3450DPPE   C4B63264   4.050  14.250  12.600
 3451DPPE   NH363265  14.850  18.310  24.050
 3451DPPE   PO463266  14.500  18.590  23.890
 3451DPPE   GL163267  14.780  18.510  23.530
 3451DPPE   GL263268  15.090  18.540  23.740
 3451DPPE   C1A63269  14.960  18.390  23.180
 3451DPPE   C2A63270  15.000  18.120  22.920
 3451DPPE   C3A63271  14.840  17.760  22.790
 3451DPPE   C4A63272  14.930  17.300  22.750
 3451DPPE   C1B63273  15.350  18.620  23.390
 3451DPPE   C2B63274  15.630  18.820  23.070
 3451DPPE   C3B63275  16.040  18.660  22.730
 3451DPPE   C4B63276  16.340  18.990  22.670
 3452DPPE   NH363277   9.030  23.550  19.370
 3452DPPE   PO463278   8.670  23.820  19.320
 3452DPPE   GL163279   8.790  24.040  19.700
 3452DPPE   GL263280   8.850  23.650  19.840
 3452DPPE   C1A63281   8.760  24.310  19.840
 3452DPPE   C2A63282   8.530  24.650  19.670
 3452DPPE   C3A63283   8.400  25.120  19.650
 3452DPPE   C4A63284   8.180  25.560  19.700
 3452DPPE   C1B63285   8.740  23.860  20.170
 3452DPPE   C2B63286   8.530  24.110  20.440
 3452DPPE   C3B63287   8.040  24.110  20.460
 3452DPPE   C4B63288   7.650  24.320  20.660
 3453DPPE   NH363289  11.050  14.910  21.930
 3453DPPE   PO463290  11.050  15.350  22.070
 3453DPPE   GL163291  11.280  15.320  21.660
 3453DPPE   GL263292  11.610  15.420  21.720
 3453DPPE   C1A63293  11.640  15.480  21.280
 3453DPPE   C2A63294  11.810  15.500  20.840
 3453DPPE   C3A63295  11.950  15.740  20.450
 3453DPPE   C4A63296  12.250  15.820  20.130
 3453DPPE   C1B63297  12.010  15.480  21.630
 3453DPPE   C2B63298  12.290  15.630  21.300
 3453DPPE   C3B63299  12.560  15.780  21.090
 3453DPPE   C4B63300  12.940  15.880  20.730
 3454DPPE   NH363301  11.200  21.540  22.720
 3454DPPE   PO463302  11.210  21.150  22.480
 3454DPPE   GL163303  10.970  21.140  22.950
 3454DPPE   GL263304  11.180  21.210  23.190
 3454DPPE   C1A63305  10.710  21.310  23.230
 3454DPPE   C2A63306  10.310  21.490  23.480
 3454DPPE   C3A63307   9.910  21.320  23.610
 3454DPPE   C4A63308   9.460  21.340  23.620
 3454DPPE   C1B63309  11.110  21.600  23.350
 3454DPPE   C2B63310  11.080  21.960  23.440
 3454DPPE   C3B63311  10.990  22.190  23.740
 3454DPPE   C4B63312  11.100  22.180  24.220
 3455DPPE   NH363313   6.770  21.160  19.160
 3455DPPE   PO463314   6.860  21.530  18.990
 3455DPPE   GL163315   6.430  21.550  19.040
 3455DPPE   GL263316   6.210  21.560  18.750
 3455DPPE   C1A63317   6.020  21.660  19.250
 3455DPPE   C2A63318   5.860  22.000  19.420
 3455DPPE   C3A63319   5.470  22.260  19.190
 3455DPPE   C4A63320   5.040  22.200  19.000
 3455DPPE   C1B63321   5.910  21.400  18.850
 3455DPPE   C2B63322   5.520  21.180  18.910
 3455DPPE   C3B63323   5.210  21.100  19.100
 3455DPPE   C4B63324   4.740  21.080  19.110
 3456DPPE   NH363325   9.080   9.960  14.970
 3456DPPE   PO463326   9.120   9.560  14.850
 3456DPPE   GL163327   9.430   9.620  14.570
 3456DPPE   GL263328   9.480   9.950  14.600
 3456DPPE   C1A63329   9.690   9.540  14.230
 3456DPPE   C2A63330  10.060   9.340  13.940
 3456DPPE   C3A63331  10.340   9.180  13.930
 3456DPPE   C4A63332  10.800   9.350  13.850
 3456DPPE   C1B63333   9.810  10.110  14.250
 3456DPPE   C2B63334  10.160   9.950  14.200
 3456DPPE   C3B63335  10.420   9.810  13.930
 3456DPPE   C4B63336  10.400   9.550  13.610
 3457DPPE   NH363337   9.200   9.850  15.880
 3457DPPE   PO463338   8.970   9.740  15.430
 3457DPPE   GL163339   9.440   9.890  15.370
 3457DPPE   GL263340   9.530   9.750  15.070
 3457DPPE   C1A63341   9.950   9.890  15.400
 3457DPPE   C2A63342  10.310  10.010  15.080
 3457DPPE   C3A63343  10.690  10.240  15.020
 3457DPPE   C4A63344  11.130  10.300  15.210
 3457DPPE   C1B63345   9.940   9.810  14.740
 3457DPPE   C2B63346  10.230  10.180  14.620
 3457DPPE   C3B63347  10.550  10.300  14.420
 3457DPPE   C4B63348  10.740  10.300  14.090
 3458DPPE   NH363349   7.530  22.680  18.060
 3458DPPE   PO463350   7.120  22.750  17.900
 3458DPPE   GL163351   6.820  22.950  17.680
 3458DPPE   GL263352   6.910  23.090  17.410
 3458DPPE   C1A63353   6.400  23.030  17.630
 3458DPPE   C2A63354   6.070  23.260  17.860
 3458DPPE   C3A63355   5.900  23.620  18.040
 3458DPPE   C4A63356   5.520  23.770  17.910
 3458DPPE   C1B63357   6.790  23.540  17.420
 3458DPPE   C2B63358   6.440  23.570  17.060
 3458DPPE   C3B63359   6.440  23.320  16.700
 3458DPPE   C4B63360   6.230  22.930  16.580
 3459DPPE   NH363361  15.430   9.150  21.670
 3459DPPE   PO463362  15.340   9.490  21.550
 3459DPPE   GL163363  15.730   9.370  21.300
 3459DPPE   GL263364  15.730   9.000  21.200
 3459DPPE   C1A63365  16.130   9.450  21.150
 3459DPPE   C2A63366  16.500   9.410  20.970
 3459DPPE   C3A63367  16.790   9.600  20.870
 3459DPPE   C4A63368  17.170   9.600  21.050
 3459DPPE   C1B63369  16.050   9.040  21.420
 3459DPPE   C2B63370  16.470   9.160  21.450
 3459DPPE   C3B63371  16.740   9.470  21.410
 3459DPPE   C4B63372  16.870   9.770  21.600
 3460DPPE   NH363373   6.440  13.360  14.190
 3460DPPE   PO463374   6.270  13.760  14.020
 3460DPPE   GL163375   6.480  13.930  13.680
 3460DPPE   GL263376   6.360  14.060  13.500
 3460DPPE   C1A63377   6.760  13.860  13.340
 3460DPPE   C2A63378   7.040  13.830  12.980
 3460DPPE   C3A63379   7.060  13.960  12.520
 3460DPPE   C4A63380   7.090  13.910  12.050
 3460DPPE   C1B63381   6.410  14.080  13.060
 3460DPPE   C2B63382   6.580  14.080  12.660
 3460DPPE   C3B63383   6.540  13.880  12.240
 3460DPPE   C4B63384   6.660  13.850  11.830
 3461DPPE   NH363385   6.000  19.310  18.980
 3461DPPE   PO463386   6.020  18.850  18.830
 3461DPPE   GL163387   5.720  18.930  19.160
 3461DPPE   GL263388   5.360  18.950  18.900
 3461DPPE   C1A63389   5.320  18.930  19.450
 3461DPPE   C2A63390   4.820  18.920  19.560
 3461DPPE   C3A63391   4.700  19.230  19.800
 3461DPPE   C4A63392   4.690  19.510  20.150
 3461DPPE   C1B63393   5.030  18.890  19.000
 3461DPPE   C2B63394   4.630  18.890  19.070
 3461DPPE   C3B63395   4.220  18.700  19.050
 3461DPPE   C4B63396   3.800  18.630  19.250
 3462DPPE   NH363397   4.980  18.280  16.060
 3462DPPE   PO463398   4.750  18.030  15.800
 3462DPPE   GL163399   4.320  18.210  15.740
 3462DPPE   GL263400   4.420  18.400  15.420
 3462DPPE   C1A63401   3.890  18.230  15.950
 3462DPPE   C2A63402   3.480  18.340  15.850
 3462DPPE   C3A63403   3.290  18.480  15.540
 3462DPPE   C4A63404   3.140  18.350  15.100
 3462DPPE   C1B63405   4.140  18.270  15.260
 3462DPPE   C2B63406   3.860  18.130  15.430
 3462DPPE   C3B63407   3.430  17.910  15.260
 3462DPPE   C4B63408   3.000  17.810  15.240
 3463DPPE   NH363409   8.420  18.440  21.470
 3463DPPE   PO463410   8.470  18.820  21.530
 3463DPPE   GL163411   8.270  19.190  21.680
 3463DPPE   GL263412   8.130  19.240  21.940
 3463DPPE   C1A63413   8.310  19.660  21.770
 3463DPPE   C2A63414   7.930  19.780  21.760
 3463DPPE   C3A63415   7.590  19.780  22.060
 3463DPPE   C4A63416   7.250  19.970  22.100
 3463DPPE   C1B63417   7.860  19.400  22.220
 3463DPPE   C2B63418   7.590  19.390  22.410
 3463DPPE   C3B63419   7.200  19.430  22.570
 3463DPPE   C4B63420   7.000  19.820  22.930
 3464DPPE   NH363421   9.700  21.760  21.730
 3464DPPE   PO463422   9.320  21.640  21.500
 3464DPPE   GL163423   9.180  21.780  21.770
 3464DPPE   GL263424   9.340  21.680  22.070
 3464DPPE   C1A63425   8.830  21.890  21.930
 3464DPPE   C2A63426   8.660  21.990  22.350
 3464DPPE   C3A63427   8.290  22.170  22.620
 3464DPPE   C4A63428   7.890  22.070  22.640
 3464DPPE   C1B63429   9.250  21.830  22.430
 3464DPPE   C2B63430   9.260  22.060  22.760
 3464DPPE   C3B63431   9.370  22.170  23.120
 3464DPPE   C4B63432   9.660  22.420  23.350
 3465DPPE   NH363433   5.470  20.340  15.130
 3465DPPE   PO463434   5.560  20.150  14.740
 3465DPPE   GL163435   5.680  20.390  14.440
 3465DPPE   GL263436   6.000  20.280  14.430
 3465DPPE   C1A63437   5.570  20.850  14.220
 3465DPPE   C2A63438   5.830  21.190  14.130
 3465DPPE   C3A63439   6.020  21.310  13.890
 3465DPPE   C4A63440   6.200  21.500  13.590
 3465DPPE   C1B63441   6.090  20.530  14.080
 3465DPPE   C2B63442   5.930  20.860  13.700
 3465DPPE   C3B63443   6.080  20.900  13.310
 3465DPPE   C4B63444   6.330  20.710  12.920
 3466DPPE   NH363445  10.290  21.380  22.240
 3466DPPE   PO463446  10.650  21.220  22.570
 3466DPPE   GL163447  10.310  21.380  22.730
 3466DPPE   GL263448  10.350  21.160  22.980
 3466DPPE   C1A63449  10.210  21.760  22.990
 3466DPPE   C2A63450  10.100  22.190  23.220
 3466DPPE   C3A63451  10.390  22.460  23.550
 3466DPPE   C4A63452  10.680  22.760  23.610
 3466DPPE   C1B63453  10.100  21.030  23.200
 3466DPPE   C2B63454  10.070  20.630  23.560
 3466DPPE   C3B63455  10.060  20.780  23.900
 3466DPPE   C4B63456  10.170  21.160  24.190
 3467DPPE   NH363457  11.570  16.140  23.530
 3467DPPE   PO463458  11.300  15.880  23.430
 3467DPPE   GL163459  11.120  15.820  23.760
 3467DPPE   GL263460  11.100  15.430  23.700
 3467DPPE   C1A63461  10.780  16.040  23.990
 3467DPPE   C2A63462  10.380  15.980  24.230
 3467DPPE   C3A63463  10.200  15.950  24.620
 3467DPPE   C4A63464   9.950  15.670  24.900
 3467DPPE   C1B63465  10.870  15.580  24.170
 3467DPPE   C2B63466  10.650  15.660  24.440
 3467DPPE   C3B63467  10.180  15.480  24.500
 3467DPPE   C4B63468   9.830  15.210  24.430
 3468DPPE   NH363469   5.390  15.700  13.360
 3468DPPE   PO463470   4.880  15.650  13.280
 3468DPPE   GL163471   4.640  15.890  13.040
 3468DPPE   GL263472   4.370  15.700  12.900
 3468DPPE   C1A63473   4.510  16.050  12.620
 3468DPPE   C2A63474   4.440  16.170  12.110
 3468DPPE   C3A63475   4.510  16.290  11.750
 3468DPPE   C4A63476   4.880  16.310  11.360
 3468DPPE   C1B63477   3.970  15.490  12.860
 3468DPPE   C2B63478   3.680  15.280  13.000
 3468DPPE   C3B63479   3.540  14.910  13.170
 3468DPPE   C4B63480   3.370  14.800  13.520
 3469DPPE   NH363481   5.980  14.120  13.790
 3469DPPE   PO463482   5.870  14.260  13.400
 3469DPPE   GL163483   5.920  14.320  12.940
 3469DPPE   GL263484   5.760  14.180  12.720
 3469DPPE   C1A63485   6.260  14.400  12.650
 3469DPPE   C2A63486   6.680  14.420  12.330
 3469DPPE   C3A63487   6.800  14.320  11.950
 3469DPPE   C4A63488   7.170  14.360  11.820
 3469DPPE   C1B63489   5.930  14.060  12.390
 3469DPPE   C2B63490   6.230  14.190  11.960
 3469DPPE   C3B63491   6.380  14.430  11.540
 3469DPPE   C4B63492   6.350  14.570  11.120
 3470DPPE   NH363493  15.270  16.640  23.950
 3470DPPE   PO463494  15.300  17.100  23.760
 3470DPPE   GL163495  15.830  17.190  23.760
 3470DPPE   GL263496  16.170  17.230  24.080
 3470DPPE   C1A63497  16.220  17.400  23.540
 3470DPPE   C2A63498  16.610  17.650  23.450
 3470DPPE   C3A63499  16.850  17.720  23.230
 3470DPPE   C4A63500  17.010  17.860  22.780
 3470DPPE   C1B63501  16.260  17.660  23.950
 3470DPPE   C2B63502  16.450  17.980  23.780
 3470DPPE   C3B63503  16.470  18.470  23.620
 3470DPPE   C4B63504  16.450  18.960  23.490
 3471DPPE   NH363505   6.480  21.770  16.410
 3471DPPE   PO463506   6.260  21.450  16.290
 3471DPPE   GL163507   6.030  21.840  16.280
 3471DPPE   GL263508   6.290  22.140  16.160
 3471DPPE   C1A63509   5.770  22.200  16.370
 3471DPPE   C2A63510   5.340  22.330  16.330
 3471DPPE   C3A63511   5.130  22.700  16.460
 3471DPPE   C4A63512   4.830  22.830  16.290
 3471DPPE   C1B63513   6.500  22.440  15.900
 3471DPPE   C2B63514   6.500  22.780  15.600
 3471DPPE   C3B63515   6.250  23.060  15.390
 3471DPPE   C4B63516   6.080  23.290  15.000
 3472DPPE   NH363517  11.860  12.480  21.440
 3472DPPE   PO463518  11.480  12.270  21.190
 3472DPPE   GL163519  11.720  12.510  20.850
 3472DPPE   GL263520  11.970  12.740  21.040
 3472DPPE   C1A63521  11.990  12.710  20.580
 3472DPPE   C2A63522  12.180  13.010  20.260
 3472DPPE   C3A63523  12.440  13.410  20.010
 3472DPPE   C4A63524  12.640  13.750  19.790
 3472DPPE   C1B63525  12.090  13.140  20.930
 3472DPPE   C2B63526  12.430  13.400  21.050
 3472DPPE   C3B63527  12.660  13.670  21.000
 3472DPPE   C4B63528  13.050  13.660  20.730
 3473DPPE   NH363529   9.470  13.440  19.730
 3473DPPE   PO463530   9.850  13.640  19.930
 3473DPPE   GL163531  10.110  13.930  19.840
 3473DPPE   GL263532   9.880  14.250  19.700
 3473DPPE   C1A63533  10.460  14.020  19.710
 3473DPPE   C2A63534  10.820  14.240  19.620
 3473DPPE   C3A63535  10.980  14.590  19.430
 3473DPPE   C4A63536  11.250  14.900  19.380
 3473DPPE   C1B63537  10.000  14.130  19.360
 3473DPPE   C2B63538  10.160  14.300  18.970
 3473DPPE   C3B63539  10.330  14.550  18.610
 3473DPPE   C4B63540  10.290  14.950  18.340
 3474DPPE   NH363541   8.210  21.890  18.770
 3474DPPE   PO463542   8.510  22.200  18.880
 3474DPPE   GL163543   8.760  22.150  18.580
 3474DPPE   GL263544   8.660  22.090  18.260
 3474DPPE   C1A63545   9.160  21.960  18.340
 3474DPPE   C2A63546   9.540  22.100  18.010
 3474DPPE   C3A63547   9.890  22.170  17.750
 3474DPPE   C4A63548  10.240  22.400  17.630
 3474DPPE   C1B63549   8.960  22.140  17.880
 3474DPPE   C2B63550   9.240  22.430  17.720
 3474DPPE   C3B63551   9.120  22.760  17.430
 3474DPPE   C4B63552   9.390  22.880  17.050
 3475DPPE   NH363553  13.750  10.510  20.360
 3475DPPE   PO463554  13.830  10.230  20.140
 3475DPPE   GL163555  13.960  10.490  19.860
 3475DPPE   GL263556  13.670  10.710  19.750
 3475DPPE   C1A63557  14.270  10.840  19.620
 3475DPPE   C2A63558  14.710  11.080  19.610
 3475DPPE   C3A63559  15.070  11.060  19.320
 3475DPPE   C4A63560  15.170  11.430  19.100
 3475DPPE   C1B63561  13.840  10.840  19.380
 3475DPPE   C2B63562  14.200  10.990  19.110
 3475DPPE   C3B63563  14.550  11.150  19.130
 3475DPPE   C4B63564  14.540  11.610  18.970
 3476DPPE   NH363565   6.970  10.560  15.450
 3476DPPE   PO463566   6.900  10.520  15.010
 3476DPPE   GL163567   6.620  10.190  15.030
 3476DPPE   GL263568   6.470   9.980  14.640
 3476DPPE   C1A63569   6.240  10.170  14.990
 3476DPPE   C2A63570   5.820  10.230  14.780
 3476DPPE   C3A63571   5.330  10.100  14.950
 3476DPPE   C4A63572   4.970   9.960  15.150
 3476DPPE   C1B63573   6.180   9.700  14.660
 3476DPPE   C2B63574   6.260   9.300  14.530
 3476DPPE   C3B63575   6.460   8.870  14.560
 3476DPPE   C4B63576   6.580   8.650  14.880
 3477DPPE   NH363577  13.510  10.330  22.180
 3477DPPE   PO463578  13.370  10.410  21.700
 3477DPPE   GL163579  13.160  10.000  21.950
 3477DPPE   GL263580  13.170   9.970  22.340
 3477DPPE   C1A63581  12.780   9.710  22.250
 3477DPPE   C2A63582  12.570   9.600  22.700
 3477DPPE   C3A63583  12.560   9.230  23.010
 3477DPPE   C4A63584  12.420   8.880  23.340
 3477DPPE   C1B63585  13.010   9.710  22.700
 3477DPPE   C2B63586  12.760   9.790  23.110
 3477DPPE   C3B63587  12.720   9.720  23.600
 3477DPPE   C4B63588  12.510   9.510  23.940
 3478DPPE   NH363589   5.540  16.000  15.640
 3478DPPE   PO463590   5.270  15.950  15.280
 3478DPPE   GL163591   4.930  15.890  15.590
 3478DPPE   GL263592   4.840  16.110  15.760
 3478DPPE   C1A63593   4.400  15.720  15.590
 3478DPPE   C2A63594   4.180  15.350  15.530
 3478DPPE   C3A63595   3.770  15.240  15.350
 3478DPPE   C4A63596   3.360  15.080  15.350
 3478DPPE   C1B63597   4.430  16.170  15.930
 3478DPPE   C2B63598   3.980  16.000  15.910
 3478DPPE   C3B63599   3.500  15.970  15.950
 3478DPPE   C4B63600   3.330  15.650  15.810
 3479DPPE   NH363601  11.650  19.550  22.330
 3479DPPE   PO463602  11.680  19.660  21.920
 3479DPPE   GL163603  11.830  19.430  21.610
 3479DPPE   GL263604  12.160  19.560  21.630
 3479DPPE   C1A63605  11.950  19.550  21.140
 3479DPPE   C2A63606  12.150  19.300  20.970
 3479DPPE   C3A63607  12.100  19.510  20.580
 3479DPPE   C4A63608  12.060  19.550  20.120
 3479DPPE   C1B63609  12.460  19.570  21.280
 3479DPPE   C2B63610  12.610  19.780  21.030
 3479DPPE   C3B63611  12.490  19.850  20.520
 3479DPPE   C4B63612  12.570  19.500  20.260
 3480DPPE   NH363613  11.510  22.990  21.070
 3480DPPE   PO463614  11.390  23.450  21.090
 3480DPPE   GL163615  11.700  23.560  20.860
 3480DPPE   GL263616  11.510  23.570  20.460
 3480DPPE   C1A63617  11.890  23.960  20.950
 3480DPPE   C2A63618  12.020  24.380  20.750
 3480DPPE   C3A63619  12.270  24.740  20.770
 3480DPPE   C4A63620  12.610  24.770  20.570
 3480DPPE   C1B63621  11.660  23.640  19.950
 3480DPPE   C2B63622  11.670  23.800  19.490
 3480DPPE   C3B63623  11.830  24.150  19.250
 3480DPPE   C4B63624  12.150  24.280  19.040
 3481DPPE   NH363625   7.680  12.040  17.680
 3481DPPE   PO463626   7.570  11.680  17.700
 3481DPPE   GL163627   7.510  11.430  18.020
 3481DPPE   GL263628   7.710  11.510  18.330
 3481DPPE   C1A63629   7.180  11.150  18.160
 3481DPPE   C2A63630   6.720  11.300  18.410
 3481DPPE   C3A63631   6.240  11.420  18.550
 3481DPPE   C4A63632   5.930  11.380  18.900
 3481DPPE   C1B63633   7.330  11.440  18.550
 3481DPPE   C2B63634   7.050  11.170  18.750
 3481DPPE   C3B63635   6.980  11.060  19.180
 3481DPPE   C4B63636   6.810  10.800  19.500
 3482DPPE   NH363637   5.260  14.370  13.720
 3482DPPE   PO463638   5.240  14.780  13.550
 3482DPPE   GL163639   4.920  14.510  13.390
 3482DPPE   GL263640   4.710  14.290  13.560
 3482DPPE   C1A63641   4.590  14.630  13.150
 3482DPPE   C2A63642   4.420  14.700  12.850
 3482DPPE   C3A63643   4.440  14.610  12.470
 3482DPPE   C4A63644   4.390  14.300  12.190
 3482DPPE   C1B63645   4.330  14.450  13.580
 3482DPPE   C2B63646   3.920  14.580  13.570
 3482DPPE   C3B63647   3.670  14.380  13.420
 3482DPPE   C4B63648   3.480  14.000  13.240
 3483DPPE   NH363649   9.240   8.630  16.010
 3483DPPE   PO463650   9.730   8.580  15.890
 3483DPPE   GL163651  10.000   8.290  15.870
 3483DPPE   GL263652   9.880   8.130  15.630
 3483DPPE   C1A63653  10.330   7.960  15.830
 3483DPPE   C2A63654  10.470   7.570  15.720
 3483DPPE   C3A63655  10.710   7.370  15.530
 3483DPPE   C4A63656  10.970   7.140  15.850
 3483DPPE   C1B63657  10.170   8.010  15.310
 3483DPPE   C2B63658  10.420   7.900  14.880
 3483DPPE   C3B63659  10.670   7.670  14.490
 3483DPPE   C4B63660  11.020   7.390  14.620
 3484DPPE   NH363661   9.110  11.360  18.780
 3484DPPE   PO463662   9.130  11.080  18.870
 3484DPPE   GL163663   8.890  10.800  19.070
 3484DPPE   GL263664   8.550  10.800  19.050
 3484DPPE   C1A63665   8.750  10.410  19.260
 3484DPPE   C2A63666   8.560  10.120  19.570
 3484DPPE   C3A63667   8.460   9.660  19.740
 3484DPPE   C4A63668   8.450   9.160  19.980
 3484DPPE   C1B63669   8.600  10.910  19.480
 3484DPPE   C2B63670   8.400  10.650  19.730
 3484DPPE   C3B63671   8.150  10.620  20.040
 3484DPPE   C4B63672   7.790  10.600  20.280
 3485DPPE   NH363673   7.010  14.130  16.350
 3485DPPE   PO463674   7.040  14.330  16.840
 3485DPPE   GL163675   7.480  14.270  16.990
 3485DPPE   GL263676   7.630  14.080  17.140
 3485DPPE   C1A63677   7.860  14.540  16.850
 3485DPPE   C2A63678   8.260  14.610  16.800
 3485DPPE   C3A63679   8.610  14.610  16.980
 3485DPPE   C4A63680   9.010  14.570  17.260
 3485DPPE   C1B63681   8.080  14.110  16.890
 3485DPPE   C2B63682   8.420  14.130  17.070
 3485DPPE   C3B63683   8.690  13.930  17.320
 3485DPPE   C4B63684   9.020  13.760  17.490
 3486DPPE   NH363685  10.360  15.950  21.850
 3486DPPE   PO463686  10.220  15.460  22.090
 3486DPPE   GL163687  10.400  15.500  21.670
 3486DPPE   GL263688  10.710  15.260  21.590
 3486DPPE   C1A63689  10.510  15.600  21.220
 3486DPPE   C2A63690  10.580  15.820  20.850
 3486DPPE   C3A63691  10.570  15.970  20.420
 3486DPPE   C4A63692  10.700  16.220  20.070
 3486DPPE   C1B63693  11.040  15.210  21.270
 3486DPPE   C2B63694  11.290  15.330  20.920
 3486DPPE   C3B63695  11.390  15.560  20.520
 3486DPPE   C4B63696  11.560  15.850  20.190
 3487DPPE   NH363697   5.650  19.790  15.310
 3487DPPE   PO463698   5.860  20.210  15.400
 3487DPPE   GL163699   6.160  20.430  15.220
 3487DPPE   GL263700   5.940  20.520  14.970
 3487DPPE   C1A63701   6.590  20.540  15.000
 3487DPPE   C2A63702   6.780  20.770  14.650
 3487DPPE   C3A63703   6.780  20.970  14.230
 3487DPPE   C4A63704   6.520  20.750  13.940
 3487DPPE   C1B63705   6.220  20.690  14.640
 3487DPPE   C2B63706   6.250  20.990  14.290
 3487DPPE   C3B63707   6.140  21.500  14.400
 3487DPPE   C4B63708   6.130  21.970  14.390
 3488DPPE   NH363709   7.420  17.580  20.250
 3488DPPE   PO463710   7.700  17.910  20.530
 3488DPPE   GL163711   7.350  17.860  20.840
 3488DPPE   GL263712   7.160  17.590  20.680
 3488DPPE   C1A63713   7.220  18.100  21.240
 3488DPPE   C2A63714   7.120  18.150  21.690
 3488DPPE   C3A63715   7.180  18.040  22.140
 3488DPPE   C4A63716   6.800  18.070  22.320
 3488DPPE   C1B63717   6.880  17.670  21.010
 3488DPPE   C2B63718   6.740  17.920  21.420
 3488DPPE   C3B63719   6.340  18.030  21.550
 3488DPPE   C4B63720   6.010  17.840  21.740
 3489DPPE   NH363721   7.560  17.880  18.730
 3489DPPE   PO463722   7.790  17.710  19.050
 3489DPPE   GL163723   8.130  17.460  19.050
 3489DPPE   GL263724   8.330  17.450  19.380
 3489DPPE   C1A63725   8.250  17.260  18.680
 3489DPPE   C2A63726   8.440  17.080  18.470
 3489DPPE   C3A63727   8.720  16.890  18.170
 3489DPPE   C4A63728   9.110  16.750  17.820
 3489DPPE   C1B63729   8.700  17.750  19.200
 3489DPPE   C2B63730   9.080  17.880  19.120
 3489DPPE   C3B63731   9.500  17.800  18.860
 3489DPPE   C4B63732   9.830  17.860  18.520
 3490DPPE   NH363733   9.490  10.420  16.930
 3490DPPE   PO463734   9.170  10.720  16.970
 3490DPPE   GL163735   9.440  10.970  16.940
 3490DPPE   GL263736   9.520  10.920  16.590
 3490DPPE   C1A63737   9.870  11.160  17.020
 3490DPPE   C2A63738   9.940  11.460  17.230
 3490DPPE   C3A63739  10.360  11.770  17.290
 3490DPPE   C4A63740  10.620  12.040  17.080
 3490DPPE   C1B63741   9.600  11.230  16.290
 3490DPPE   C2B63742   9.440  11.620  16.360
 3490DPPE   C3B63743   9.070  11.860  16.090
 3490DPPE   C4B63744   8.870  12.180  15.890
 3491DPPE   NH363745   8.490  22.210  20.480
 3491DPPE   PO463746   8.480  21.850  20.520
 3491DPPE   GL163747   8.130  21.830  20.770
 3491DPPE   GL263748   8.270  21.810  21.050
 3491DPPE   C1A63749   7.700  21.820  21.050
 3491DPPE   C2A63750   7.180  21.800  21.230
 3491DPPE   C3A63751   6.950  21.520  21.460
 3491DPPE   C4A63752   6.720  21.100  21.500
 3491DPPE   C1B63753   8.090  21.870  21.520
 3491DPPE   C2B63754   7.620  21.910  21.590
 3491DPPE   C3B63755   7.290  22.140  21.680
 3491DPPE   C4B63756   6.870  22.160  21.680
 3492DPPE   NH363757   7.760  11.660  15.000
 3492DPPE   PO463758   7.640  11.340  14.630
 3492DPPE   GL163759   8.070  11.370  14.570
 3492DPPE   GL263760   8.260  11.530  14.850
 3492DPPE   C1A63761   8.290  11.590  14.230
 3492DPPE   C2A63762   8.750  11.560  14.090
 3492DPPE   C3A63763   8.890  11.450  13.680
 3492DPPE   C4A63764   9.110  11.270  13.330
 3492DPPE   C1B63765   8.310  12.000  14.600
 3492DPPE   C2B63766   8.760  12.230  14.590
 3492DPPE   C3B63767   8.860  12.450  14.320
 3492DPPE   C4B63768   8.780  12.490  13.870
 3493DPPE   NH363769   8.960  12.860  19.050
 3493DPPE   PO463770   8.700  12.470  19.340
 3493DPPE   GL163771   8.200  12.360  19.520
 3493DPPE   GL263772   8.050  12.050  19.370
 3493DPPE   C1A63773   7.890  12.210  19.810
 3493DPPE   C2A63774   7.600  11.990  20.100
 3493DPPE   C3A63775   7.230  11.790  20.240
 3493DPPE   C4A63776   7.150  11.490  20.490
 3493DPPE   C1B63777   7.970  11.690  19.430
 3493DPPE   C2B63778   7.730  11.330  19.460
 3493DPPE   C3B63779   7.510  10.940  19.250
 3493DPPE   C4B63780   7.270  10.530  19.320
 3494DPPE   NH363781  12.300   9.020  18.630
 3494DPPE   PO463782  12.480   8.910  18.140
 3494DPPE   GL163783  12.600   8.990  17.660
 3494DPPE   GL263784  12.840   9.150  17.840
 3494DPPE   C1A63785  12.880   8.850  17.360
 3494DPPE   C2A63786  12.870   8.890  16.910
 3494DPPE   C3A63787  13.110   8.570  16.670
 3494DPPE   C4A63788  13.460   8.310  16.690
 3494DPPE   C1B63789  13.160   9.350  17.570
 3494DPPE   C2B63790  13.590   9.300  17.470
 3494DPPE   C3B63791  13.590   9.260  16.990
 3494DPPE   C4B63792  13.250   9.060  16.700
 3495DPPE   NH363793   7.940   9.340  15.200
 3495DPPE   PO463794   7.600   9.700  15.110
 3495DPPE   GL163795   7.220   9.500  15.320
 3495DPPE   GL263796   7.060   9.230  15.150
 3495DPPE   C1A63797   6.810   9.540  15.600
 3495DPPE   C2A63798   6.400   9.440  15.880
 3495DPPE   C3A63799   6.030   9.470  15.970
 3495DPPE   C4A63800   5.630   9.610  16.190
 3495DPPE   C1B63801   6.910   9.110  15.460
 3495DPPE   C2B63802   6.490   9.150  15.500
 3495DPPE   C3B63803   6.090   8.960  15.510
 3495DPPE   C4B63804   5.910   8.530  15.320
 3496DPPE   NH363805  15.040  12.150  21.420
 3496DPPE   PO463806  15.210  11.630  21.450
 3496DPPE   GL163807  15.470  11.860  21.240
 3496DPPE   GL263808  15.650  11.720  21.020
 3496DPPE   C1A63809  15.680  12.190  20.990
 3496DPPE   C2A63810  15.540  12.470  20.560
 3496DPPE   C3A63811  15.810  12.490  20.220
 3496DPPE   C4A63812  16.240  12.670  20.160
 3496DPPE   C1B63813  16.070  11.790  20.970
 3496DPPE   C2B63814  16.370  11.820  20.820
 3496DPPE   C3B63815  16.780  11.680  20.850
 3496DPPE   C4B63816  17.040  11.720  21.260
 3497DPPE   NH363817  12.220  14.140  23.680
 3497DPPE   PO463818  12.370  14.560  23.650
 3497DPPE   GL163819  12.130  14.560  23.990
 3497DPPE   GL263820  12.110  14.260  24.150
 3497DPPE   C1A63821  12.100  14.960  24.260
 3497DPPE   C2A63822  11.700  15.030  24.480
 3497DPPE   C3A63823  11.380  14.940  24.780
 3497DPPE   C4A63824  11.400  14.910  25.190
 3497DPPE   C1B63825  11.860  14.500  24.440
 3497DPPE   C2B63826  11.680  14.580  24.850
 3497DPPE   C3B63827  11.690  14.480  25.240
 3497DPPE   C4B63828  11.610  14.530  25.670
 3498DPPE   NH363829   5.670  12.570  15.320
 3498DPPE   PO463830   5.720  12.790  14.960
 3498DPPE   GL163831   5.250  12.740  15.010
 3498DPPE   GL263832   5.160  12.950  14.870
 3498DPPE   C1A63833   4.880  12.460  14.970
 3498DPPE   C2A63834   4.540  12.300  14.800
 3498DPPE   C3A63835   4.130  12.010  14.880
 3498DPPE   C4A63836   3.790  11.890  15.120
 3498DPPE   C1B63837   4.860  13.010  14.920
 3498DPPE   C2B63838   4.430  12.810  15.000
 3498DPPE   C3B63839   4.140  12.570  15.020
 3498DPPE   C4B63840   3.760  12.420  14.830
 3499DPPE   NH363841  10.580  11.030  19.340
 3499DPPE   PO463842  10.480  11.210  19.000
 3499DPPE   GL163843  10.330  11.590  19.090
 3499DPPE   GL263844  10.630  11.800  19.110
 3499DPPE   C1A63845  10.290  11.920  19.450
 3499DPPE   C2A63846  10.140  12.380  19.540
 3499DPPE   C3A63847  10.420  12.780  19.450
 3499DPPE   C4A63848  10.720  12.940  19.180
 3499DPPE   C1B63849  11.030  11.860  19.090
 3499DPPE   C2B63850  11.240  12.120  18.900
 3499DPPE   C3B63851  11.430  12.250  18.520
 3499DPPE   C4B63852  11.690  12.290  18.090
 3500DPPE   NH363853  13.430  10.300  19.790
 3500DPPE   PO463854  13.180   9.860  19.640
 3500DPPE   GL163855  13.200  10.120  19.380
 3500DPPE   GL263856  13.000  10.360  19.290
 3500DPPE   C1A63857  13.620  10.300  19.190
 3500DPPE   C2A63858  13.950  10.470  18.970
 3500DPPE   C3A63859  14.050  10.820  18.630
 3500DPPE   C4A63860  14.240  11.230  18.660
 3500DPPE   C1B63861  13.020  10.440  18.800
 3500DPPE   C2B63862  13.410  10.610  18.580
 3500DPPE   C3B63863  13.600  10.840  18.340
 3500DPPE   C4B63864  13.850  10.830  18.150
 3501DPPE   NH363865  14.420  19.150  23.820
 3501DPPE   PO463866  14.650  19.620  23.810
 3501DPPE   GL163867  14.730  19.990  24.110
 3501DPPE   GL263868  14.620  20.280  24.310
 3501DPPE   C1A63869  15.080  20.140  24.280
 3501DPPE   C2A63870  15.440  20.080  24.420
 3501DPPE   C3A63871  15.900  20.090  24.490
 3501DPPE   C4A63872  16.160  20.040  24.820
 3501DPPE   C1B63873  14.640  20.770  24.300
 3501DPPE   C2B63874  14.810  21.140  24.470
 3501DPPE   C3B63875  15.200  21.410  24.670
 3501DPPE   C4B63876  15.520  21.640  24.770
 3502DPPE   NH363877  11.980  22.500  21.500
 3502DPPE   PO463878  11.620  22.790  21.480
 3502DPPE   GL163879  12.010  22.990  21.320
 3502DPPE   GL263880  11.970  23.250  21.210
 3502DPPE   C1A63881  12.450  23.090  21.190
 3502DPPE   C2A63882  12.700  23.270  20.910
 3502DPPE   C3A63883  13.100  23.520  20.860
 3502DPPE   C4A63884  13.590  23.660  20.770
 3502DPPE   C1B63885  12.280  23.550  21.210
 3502DPPE   C2B63886  12.470  23.960  21.080
 3502DPPE   C3B63887  12.550  24.280  20.780
 3502DPPE   C4B63888  12.360  24.470  20.330
 3503DPPE   NH363889  10.780  20.720  22.730
 3503DPPE   PO463890  11.210  20.620  22.680
 3503DPPE   GL163891  11.080  20.580  23.170
 3503DPPE   GL263892  11.400  20.710  23.320
 3503DPPE   C1A63893  10.830  20.550  23.500
 3503DPPE   C2A63894  10.520  20.540  23.890
 3503DPPE   C3A63895  10.510  20.770  24.330
 3503DPPE   C4A63896  10.330  20.970  24.670
 3503DPPE   C1B63897  11.290  20.670  23.680
 3503DPPE   C2B63898  11.160  20.880  23.850
 3503DPPE   C3B63899  11.040  21.230  23.700
 3503DPPE   C4B63900  10.720  21.490  23.700
 3504DPPE   NH363901  11.520  18.120  22.660
 3504DPPE   PO463902  11.170  17.780  22.530
 3504DPPE   GL163903  11.430  17.900  22.080
 3504DPPE   GL263904  11.040  17.900  22.040
 3504DPPE   C1A63905  11.890  17.840  21.980
 3504DPPE   C2A63906  12.240  17.960  21.850
 3504DPPE   C3A63907  12.640  17.950  21.960
 3504DPPE   C4A63908  13.010  18.090  22.060
 3504DPPE   C1B63909  11.290  17.740  21.630
 3504DPPE   C2B63910  11.590  17.900  21.320
 3504DPPE   C3B63911  11.560  18.170  21.010
 3504DPPE   C4B63912  11.790  18.410  20.730
 3505DPPE   NH363913   8.070  11.890  18.360
 3505DPPE   PO463914   8.210  11.470  18.350
 3505DPPE   GL163915   8.130  11.110  18.530
 3505DPPE   GL263916   8.120  10.910  18.770
 3505DPPE   C1A63917   7.620  11.010  18.670
 3505DPPE   C2A63918   7.310  10.740  18.810
 3505DPPE   C3A63919   6.950  10.640  18.910
 3505DPPE   C4A63920   6.760  10.380  19.230
 3505DPPE   C1B63921   7.800  10.610  18.930
 3505DPPE   C2B63922   7.680  10.260  19.240
 3505DPPE   C3B63923   7.590   9.900  19.450
 3505DPPE   C4B63924   7.580   9.490  19.400
 3506DPPE   NH363925   8.530  15.310  20.060
 3506DPPE   PO463926   8.420  15.700  19.750
 3506DPPE   GL163927   8.620  15.920  19.390
 3506DPPE   GL263928   8.670  16.250  19.330
 3506DPPE   C1A63929   9.060  15.980  19.200
 3506DPPE   C2A63930   9.500  16.080  19.020
 3506DPPE   C3A63931   9.880  16.180  19.220
 3506DPPE   C4A63932  10.030  16.230  19.620
 3506DPPE   C1B63933   8.880  16.450  19.050
 3506DPPE   C2B63934   9.260  16.450  18.780
 3506DPPE   C3B63935   9.660  16.360  18.620
 3506DPPE   C4B63936   9.890  16.070  18.740
 3507DPPE   NH363937   8.110  16.010  20.590
 3507DPPE   PO463938   7.790  16.180  20.330
 3507DPPE   GL163939   7.520  16.010  20.570
 3507DPPE   GL263940   7.260  15.730  20.680
 3507DPPE   C1A63941   7.200  16.200  20.900
 3507DPPE   C2A63942   6.900  16.470  21.090
 3507DPPE   C3A63943   6.500  16.710  21.250
 3507DPPE   C4A63944   6.460  16.940  21.680
 3507DPPE   C1B63945   7.150  15.670  21.020
 3507DPPE   C2B63946   6.980  15.970  21.280
 3507DPPE   C3B63947   6.540  16.190  21.310
 3507DPPE   C4B63948   6.300  16.360  21.600
 3508DPPE   NH363949  15.350  10.710  21.730
 3508DPPE   PO463950  15.550  10.920  22.100
 3508DPPE   GL163951  16.020  10.930  22.060
 3508DPPE   GL263952  16.240  10.600  22.150
 3508DPPE   C1A63953  16.400  11.060  22.220
 3508DPPE   C2A63954  16.850  11.090  22.230
 3508DPPE   C3A63955  16.970  11.490  22.150
 3508DPPE   C4A63956  17.190  11.900  22.070
 3508DPPE   C1B63957  16.690  10.380  22.430
 3508DPPE   C2B63958  16.770  10.040  22.470
 3508DPPE   C3B63959  16.600   9.760  22.270
 3508DPPE   C4B63960  16.610   9.410  21.940
 3509DPPE   NH363961  10.370  18.530  21.480
 3509DPPE   PO463962  10.620  18.860  21.520
 3509DPPE   GL163963  10.800  18.510  21.220
 3509DPPE   GL263964  10.640  18.300  21.070
 3509DPPE   C1A63965  11.200  18.500  20.890
 3509DPPE   C2A63966  11.350  18.350  20.580
 3509DPPE   C3A63967  11.730  18.200  20.260
 3509DPPE   C4A63968  12.080  17.820  20.230
 3509DPPE   C1B63969  10.810  18.380  20.600
 3509DPPE   C2B63970  10.990  18.180  20.190
 3509DPPE   C3B63971  11.020  18.240  19.720
 3509DPPE   C4B63972  11.170  18.320  19.300
 3510DPPE   NH363973  11.270  18.600  22.750
 3510DPPE   PO463974  11.310  18.480  23.210
 3510DPPE   GL163975  11.140  18.400  23.670
 3510DPPE   GL263976  11.400  18.270  23.810
 3510DPPE   C1A63977  10.880  18.450  24.120
 3510DPPE   C2A63978  10.580  18.320  24.310
 3510DPPE   C3A63979  10.180  18.370  24.600
 3510DPPE   C4A63980   9.810  18.570  24.870
 3510DPPE   C1B63981  11.260  18.230  24.330
 3510DPPE   C2B63982  11.020  18.260  24.680
 3510DPPE   C3B63983  11.140  18.450  25.150
 3510DPPE   C4B63984  11.230  18.500  25.590
 3511DPPE   NH363985   7.250  14.500  18.160
 3511DPPE   PO463986   7.080  14.670  17.780
 3511DPPE   GL163987   7.490  14.520  17.700
 3511DPPE   GL263988   7.640  14.710  17.880
 3511DPPE   C1A63989   7.670  14.700  17.320
 3511DPPE   C2A63990   7.760  15.180  17.180
 3511DPPE   C3A63991   7.930  15.420  16.870
 3511DPPE   C4A63992   8.480  15.530  16.790
 3511DPPE   C1B63993   7.990  14.670  17.800
 3511DPPE   C2B63994   8.430  14.860  17.720
 3511DPPE   C3B63995   8.690  14.970  17.370
 3511DPPE   C4B63996   8.730  15.120  16.950
 3512DPPE   NH363997   9.520  18.630  21.090
 3512DPPE   PO463998   9.880  18.670  21.350
 3512DPPE   GL163999  10.080  18.360  21.010
 3512DPPE   GL264000   9.830  18.410  20.740
 3512DPPE   C1A64001  10.320  18.280  20.660
 3512DPPE   C2A64002  10.080  17.970  20.370
 3512DPPE   C3A64003   9.790  17.640  20.330
 3512DPPE   C4A64004   9.440  17.760  20.070
 3512DPPE   C1B64005   9.700  18.270  20.280
 3512DPPE   C2B64006   9.870  18.130  19.880
 3512DPPE   C3B64007  10.150  17.960  19.510
 3512DPPE   C4B64008  10.540  18.130  19.370
 3513DPPE   NH364009  13.400  21.690  23.320
 3513DPPE   PO464010  13.680  21.600  23.060
 3513DPPE   GL164011  13.820  21.970  23.160
 3513DPPE   GL264012  14.030  22.170  23.000
 3513DPPE   C1A64013  13.860  22.260  23.440
 3513DPPE   C2A64014  14.000  22.700  23.370
 3513DPPE   C3A64015  13.940  23.200  23.280
 3513DPPE   C4A64016  14.190  23.520  23.100
 3513DPPE   C1B64017  14.520  22.290  22.800
 3513DPPE   C2B64018  14.970  22.430  22.800
 3513DPPE   C3B64019  15.210  22.780  22.770
 3513DPPE   C4B64020  15.550  23.120  22.870
 3514DPPE   NH364021   9.080  23.020  19.520
 3514DPPE   PO464022   9.200  22.600  19.210
 3514DPPE   GL164023   9.400  22.770  18.830
 3514DPPE   GL264024   9.250  22.900  18.490
 3514DPPE   C1A64025   9.720  22.880  18.630
 3514DPPE   C2A64026   9.810  22.970  18.260
 3514DPPE   C3A64027   9.910  23.320  18.090
 3514DPPE   C4A64028  10.250  23.700  17.970
 3514DPPE   C1B64029   9.380  23.260  18.150
 3514DPPE   C2B64030   9.450  23.580  17.930
 3514DPPE   C3B64031   9.300  23.650  17.510
 3514DPPE   C4B64032   9.140  23.970  17.290
 3515DPPE   NH364033  14.510  19.410  23.320
 3515DPPE   PO464034  14.490  19.890  23.380
 3515DPPE   GL164035  14.890  19.730  23.350
 3515DPPE   GL264036  14.980  19.430  23.500
 3515DPPE   C1A64037  15.330  19.730  23.240
 3515DPPE   C2A64038  15.690  19.720  23.190
 3515DPPE   C3A64039  16.100  19.780  22.950
 3515DPPE   C4A64040  16.390  19.540  22.720
 3515DPPE   C1B64041  15.370  19.180  23.310
 3515DPPE   C2B64042  15.740  19.140  23.480
 3515DPPE   C3B64043  15.920  18.860  23.590
 3515DPPE   C4B64044  15.880  18.450  23.640
 3516DPPE   NH364045   8.560  19.120  21.060
 3516DPPE   PO464046   8.730  19.610  21.080
 3516DPPE   GL164047   8.240  19.510  21.240
 3516DPPE   GL264048   8.060  19.270  21.050
 3516DPPE   C1A64049   7.820  19.770  21.300
 3516DPPE   C2A64050   7.470  19.840  21.510
 3516DPPE   C3A64051   7.040  19.870  21.580
 3516DPPE   C4A64052   6.790  19.760  21.780
 3516DPPE   C1B64053   7.860  19.300  21.470
 3516DPPE   C2B64054   7.650  19.410  21.800
 3516DPPE   C3B64055   7.280  19.450  21.920
 3516DPPE   C4B64056   6.980  19.530  22.130
 3517DPPE   NH364057  12.260  21.720  21.950
 3517DPPE   PO464058  12.650  21.460  21.900
 3517DPPE   GL164059  12.940  21.290  21.480
 3517DPPE   GL264060  13.000  21.530  21.470
 3517DPPE   C1A64061  13.290  21.260  21.160
 3517DPPE   C2A64062  13.440  21.530  20.860
 3517DPPE   C3A64063  13.790  21.810  20.740
 3517DPPE   C4A64064  14.170  22.010  20.840
 3517DPPE   C1B64065  13.220  21.820  21.230
 3517DPPE   C2B64066  13.540  22.140  21.000
 3517DPPE   C3B64067  13.880  22.410  20.880
 3517DPPE   C4B64068  14.250  22.520  21.030
 3518DPPE   NH364069   9.420   9.100  14.800
 3518DPPE   PO464070   9.460   9.250  15.260
 3518DPPE   GL164071   9.950   9.460  15.110
 3518DPPE   GL264072  10.080   9.300  14.810
 3518DPPE   C1A64073  10.390   9.570  15.190
 3518DPPE   C2A64074  10.770   9.790  15.200
 3518DPPE   C3A64075  11.170   9.810  15.040
 3518DPPE   C4A64076  11.410   9.470  15.040
 3518DPPE   C1B64077  10.240   9.260  14.380
 3518DPPE   C2B64078  10.440   8.880  14.320
 3518DPPE   C3B64079  10.720   8.580  14.390
 3518DPPE   C4B64080  10.730   8.180  14.530
 3519DPPE   NH364081   6.900  15.460  17.440
 3519DPPE   PO464082   7.150  15.410  17.130
 3519DPPE   GL164083   7.330  15.580  16.690
 3519DPPE   GL264084   7.420  15.300  16.730
 3519DPPE   C1A64085   7.710  15.790  16.710
 3519DPPE   C2A64086   8.150  15.690  16.470
 3519DPPE   C3A64087   8.490  15.970  16.390
 3519DPPE   C4A64088   8.870  15.840  16.690
 3519DPPE   C1B64089   7.700  15.000  16.640
 3519DPPE   C2B64090   8.130  15.100  16.590
 3519DPPE   C3B64091   8.520  15.070  16.520
 3519DPPE   C4B64092   8.900  14.800  16.610
 3520DPPE   NH364093   7.950  10.460  16.110
 3520DPPE   PO464094   7.570  10.260  16.300
 3520DPPE   GL164095   7.510   9.910  16.480
 3520DPPE   GL264096   7.320   9.930  16.780
 3520DPPE   C1A64097   7.230   9.630  16.410
 3520DPPE   C2A64098   7.110   9.250  16.390
 3520DPPE   C3A64099   6.720   8.900  16.460
 3520DPPE   C4A64100   6.410   8.590  16.360
 3520DPPE   C1B64101   7.200   9.540  16.930
 3520DPPE   C2B64102   6.930   9.170  16.880
 3520DPPE   C3B64103   6.730   8.820  16.950
 3520DPPE   C4B64104   6.420   8.520  17.170
 3521DPPE   NH364105   7.990  21.900  19.630
 3521DPPE   PO464106   7.720  22.020  19.980
 3521DPPE   GL164107   7.360  22.000  20.260
 3521DPPE   GL264108   7.470  21.690  20.440
 3521DPPE   C1A64109   6.920  22.180  20.410
 3521DPPE   C2A64110   6.740  22.490  20.640
 3521DPPE   C3A64111   6.930  22.870  20.720
 3521DPPE   C4A64112   7.140  23.160  20.690
 3521DPPE   C1B64113   7.270  21.970  20.760
 3521DPPE   C2B64114   7.100  22.290  21.000
 3521DPPE   C3B64115   7.050  22.500  21.340
 3521DPPE   C4B64116   7.330  22.640  21.690
 3522DPPE   NH364117  12.120  13.920  21.980
 3522DPPE   PO464118  11.720  13.950  21.910
 3522DPPE   GL164119  11.900  14.180  21.580
 3522DPPE   GL264120  11.510  14.310  21.390
 3522DPPE   C1A64121  12.300  14.370  21.410
 3522DPPE   C2A64122  12.600  14.680  21.250
 3522DPPE   C3A64123  12.820  14.780  20.930
 3522DPPE   C4A64124  13.110  15.160  20.770
 3522DPPE   C1B64125  11.900  14.530  21.200
 3522DPPE   C2B64126  12.280  14.520  20.920
 3522DPPE   C3B64127  12.420  14.820  20.560
 3522DPPE   C4B64128  12.310  14.680  20.230
 3523DPPE   NH364129  14.730  15.190  23.250
 3523DPPE   PO464130  14.650  15.640  23.080
 3523DPPE   GL164131  14.800  15.520  22.790
 3523DPPE   GL264132  14.910  15.140  22.810
 3523DPPE   C1A64133  15.110  15.670  22.530
 3523DPPE   C2A64134  15.530  15.700  22.730
 3523DPPE   C3A64135  15.830  16.040  22.770
 3523DPPE   C4A64136  16.080  16.140  22.480
 3523DPPE   C1B64137  15.240  15.180  22.540
 3523DPPE   C2B64138  15.630  15.250  22.520
 3523DPPE   C3B64139  15.950  15.240  22.300
 3523DPPE   C4B64140  15.940  15.350  21.890
 3524DPPE   NH364141  12.980  16.660  24.370
 3524DPPE   PO464142  12.690  16.950  24.050
 3524DPPE   GL164143  12.630  17.070  24.590
 3524DPPE   GL264144  12.830  16.830  24.780
 3524DPPE   C1A64145  12.360  16.910  24.770
 3524DPPE   C2A64146  12.360  16.970  25.190
 3524DPPE   C3A64147  12.330  17.140  25.660
 3524DPPE   C4A64148  11.990  17.060  25.990
 3524DPPE   C1B64149  13.130  17.050  25.070
 3524DPPE   C2B64150  13.430  17.080  25.350
 3524DPPE   C3B64151  13.420  16.930  25.750
 3524DPPE   C4B64152  13.730  16.710  25.910
 3525DPPE   NH364153   5.210  17.520  16.710
 3525DPPE   PO464154   5.090  17.680  16.220
 3525DPPE   GL164155   4.690  17.700  16.190
 3525DPPE   GL264156   4.710  17.920  16.380
 3525DPPE   C1A64157   4.410  17.340  16.240
 3525DPPE   C2A64158   3.940  17.220  16.330
 3525DPPE   C3A64159   3.660  16.950  16.230
 3525DPPE   C4A64160   3.290  16.930  16.340
 3525DPPE   C1B64161   4.310  17.800  16.530
 3525DPPE   C2B64162   4.100  17.700  16.790
 3525DPPE   C3B64163   3.670  17.660  17.030
 3525DPPE   C4B64164   3.480  17.270  17.260
 3526DPPE   NH364165   8.420  19.530  19.790
 3526DPPE   PO464166   8.820  19.740  20.030
 3526DPPE   GL164167   9.140  19.800  19.740
 3526DPPE   GL264168   9.360  19.940  19.920
 3526DPPE   C1A64169   9.420  19.710  19.420
 3526DPPE   C2A64170   9.800  19.770  19.310
 3526DPPE   C3A64171  10.190  19.810  19.100
 3526DPPE   C4A64172  10.460  19.650  18.740
 3526DPPE   C1B64173   9.750  19.970  19.810
 3526DPPE   C2B64174  10.160  20.000  19.690
 3526DPPE   C3B64175  10.540  19.920  19.460
 3526DPPE   C4B64176  10.910  19.740  19.180
 3527DPPE   NH364177   9.940  14.490  21.810
 3527DPPE   PO464178   9.790  14.810  22.030
 3527DPPE   GL164179   9.480  14.760  22.280
 3527DPPE   GL264180   9.150  14.950  22.240
 3527DPPE   C1A64181   9.340  14.810  22.710
 3527DPPE   C2A64182   9.170  15.030  23.180
 3527DPPE   C3A64183   9.030  15.450  23.390
 3527DPPE   C4A64184   8.760  15.770  23.340
 3527DPPE   C1B64185   8.900  14.650  22.590
 3527DPPE   C2B64186   8.920  14.680  23.050
 3527DPPE   C3B64187   8.510  14.740  23.230
 3527DPPE   C4B64188   8.280  14.870  23.780
 3528DPPE   NH364189   6.360  12.970  16.800
 3528DPPE   PO464190   6.120  12.810  16.600
 3528DPPE   GL164191   5.780  12.500  16.590
 3528DPPE   GL264192   5.790  12.220  16.710
 3528DPPE   C1A64193   5.510  12.270  16.350
 3528DPPE   C2A64194   5.110  12.090  16.460
 3528DPPE   C3A64195   4.720  12.020  16.690
 3528DPPE   C4A64196   4.460  12.030  16.990
 3528DPPE   C1B64197   5.520  12.350  16.970
 3528DPPE   C2B64198   5.310  12.270  17.410
 3528DPPE   C3B64199   5.110  12.320  17.660
 3528DPPE   C4B64200   4.650  12.310  17.810
 3529DPPE   NH364201  15.730  13.250  22.920
 3529DPPE   PO464202  16.000  13.230  22.630
 3529DPPE   GL164203  16.330  13.450  22.620
 3529DPPE   GL264204  16.520  13.230  22.610
 3529DPPE   C1A64205  16.680  13.680  22.370
 3529DPPE   C2A64206  17.230  13.700  22.360
 3529DPPE   C3A64207  17.550  13.880  22.250
 3529DPPE   C4A64208  17.910  14.020  22.040
 3529DPPE   C1B64209  16.960  13.290  22.680
 3529DPPE   C2B64210  17.390  13.250  22.510
 3529DPPE   C3B64211  17.660  13.090  22.230
 3529DPPE   C4B64212  17.790  12.710  21.930
 3530DPPE   NH364213   8.520  16.130  21.350
 3530DPPE   PO464214   8.770  16.190  21.690
 3530DPPE   GL164215   8.420  16.080  21.940
 3530DPPE   GL264216   8.250  16.130  21.810
 3530DPPE   C1A64217   8.410  15.950  22.440
 3530DPPE   C2A64218   8.090  15.880  22.770
 3530DPPE   C3A64219   7.790  15.760  23.010
 3530DPPE   C4A64220   7.520  16.100  23.260
 3530DPPE   C1B64221   7.870  15.900  22.090
 3530DPPE   C2B64222   7.730  15.680  22.420
 3530DPPE   C3B64223   7.570  15.340  22.510
 3530DPPE   C4B64224   7.140  15.100  22.580
 3531DPPE   NH364225   6.510  20.060  16.160
 3531DPPE   PO464226   6.380  19.750  15.990
 3531DPPE   GL164227   6.710  19.890  15.720
 3531DPPE   GL264228   6.800  19.750  15.500
 3531DPPE   C1A64229   7.070  20.180  15.630
 3531DPPE   C2A64230   7.370  20.140  15.360
 3531DPPE   C3A64231   7.510  20.340  14.940
 3531DPPE   C4A64232   7.880  20.200  14.730
 3531DPPE   C1B64233   6.930  19.910  15.120
 3531DPPE   C2B64234   6.890  20.270  14.770
 3531DPPE   C3B64235   7.190  20.450  14.570
 3531DPPE   C4B64236   7.530  20.520  14.350
 3532DPPE   NH364237  14.220  11.400  23.040
 3532DPPE   PO464238  14.440  11.290  22.600
 3532DPPE   GL164239  14.610  10.880  22.880
 3532DPPE   GL264240  14.340  10.850  23.000
 3532DPPE   C1A64241  14.710  10.570  23.180
 3532DPPE   C2A64242  14.920  10.250  23.360
 3532DPPE   C3A64243  15.000   9.930  23.690
 3532DPPE   C4A64244  15.250   9.970  23.990
 3532DPPE   C1B64245  14.330  10.700  23.450
 3532DPPE   C2B64246  14.390  10.650  23.810
 3532DPPE   C3B64247  14.750  10.400  24.010
 3532DPPE   C4B64248  14.910  10.110  24.430
 3533DPPE   NH364249  11.230  16.180  22.280
 3533DPPE   PO464250  11.470  16.460  22.540
 3533DPPE   GL164251  11.780  16.500  22.220
 3533DPPE   GL264252  12.050  16.650  22.370
 3533DPPE   C1A64253  11.990  16.460  21.890
 3533DPPE   C2A64254  12.190  16.610  21.470
 3533DPPE   C3A64255  12.440  16.740  21.190
 3533DPPE   C4A64256  12.530  16.920  20.790
 3533DPPE   C1B64257  12.460  16.560  22.110
 3533DPPE   C2B64258  12.670  16.590  21.800
 3533DPPE   C3B64259  12.900  16.670  21.600
 3533DPPE   C4B64260  13.080  16.530  21.280
 3534DPPE   NH364261  11.320  20.060  21.930
 3534DPPE   PO464262  11.030  20.490  21.780
 3534DPPE   GL164263  11.280  20.420  21.380
 3534DPPE   GL264264  11.020  20.320  21.140
 3534DPPE   C1A64265  11.600  20.320  21.170
 3534DPPE   C2A64266  11.690  19.910  20.930
 3534DPPE   C3A64267  11.920  20.130  20.560
 3534DPPE   C4A64268  12.060  20.410  20.250
 3534DPPE   C1B64269  11.260  20.250  20.790
 3534DPPE   C2B64270  11.510  20.340  20.360
 3534DPPE   C3B64271  11.580  20.550  20.040
 3534DPPE   C4B64272  11.320  20.870  20.030
 3535DPPE   NH364273   9.560  10.100  17.730
 3535DPPE   PO464274   9.560  10.000  18.130
 3535DPPE   GL164275   9.190   9.700  18.310
 3535DPPE   GL264276   9.300   9.550  18.550
 3535DPPE   C1A64277   8.920   9.340  18.390
 3535DPPE   C2A64278   8.710   9.050  18.580
 3535DPPE   C3A64279   8.520   8.800  18.900
 3535DPPE   C4A64280   8.210   8.860  19.110
 3535DPPE   C1B64281   9.180   9.270  18.800
 3535DPPE   C2B64282   8.930   9.010  19.030
 3535DPPE   C3B64283   8.900   8.830  19.330
 3535DPPE   C4B64284   8.520   8.720  19.600
 3536DPPE   NH364285   8.910   9.470  17.090
 3536DPPE   PO464286   8.940   9.170  16.760
 3536DPPE   GL164287   8.760   8.770  16.920
 3536DPPE   GL264288   8.650   8.500  16.720
 3536DPPE   C1A64289   8.320   8.660  17.010
 3536DPPE   C2A64290   8.080   8.380  17.340
 3536DPPE   C3A64291   7.770   8.410  17.530
 3536DPPE   C4A64292   7.610   8.480  17.890
 3536DPPE   C1B64293   8.560   8.130  16.720
 3536DPPE   C2B64294   8.400   7.730  16.870
 3536DPPE   C3B64295   8.480   7.280  16.990
 3536DPPE   C4B64296   8.800   7.030  17.090
 3537DPPE   NH364297  12.900  17.360  23.330
 3537DPPE   PO464298  12.500  17.260  23.660
 3537DPPE   GL164299  12.250  17.350  24.050
 3537DPPE   GL264300  11.900  17.480  24.010
 3537DPPE   C1A64301  12.320  17.440  24.560
 3537DPPE   C2A64302  12.240  17.360  24.970
 3537DPPE   C3A64303  12.160  17.470  25.330
 3537DPPE   C4A64304  11.920  17.600  25.740
 3537DPPE   C1B64305  11.740  17.540  24.510
 3537DPPE   C2B64306  11.820  17.620  24.930
 3537DPPE   C3B64307  11.600  17.650  25.360
 3537DPPE   C4B64308  11.310  17.550  25.580
 3538DPPE   NH364309   6.020  14.690  17.420
 3538DPPE   PO464310   6.100  14.930  17.750
 3538DPPE   GL164311   5.900  14.910  18.080
 3538DPPE   GL264312   5.740  15.180  18.060
 3538DPPE   C1A64313   5.580  14.830  18.440
 3538DPPE   C2A64314   5.200  14.690  18.650
 3538DPPE   C3A64315   4.990  14.420  18.520
 3538DPPE   C4A64316   4.810  14.060  18.710
 3538DPPE   C1B64317   5.350  15.140  18.110
 3538DPPE   C2B64318   4.930  15.120  18.380
 3538DPPE   C3B64319   4.840  14.970  18.830
 3538DPPE   C4B64320   4.880  14.580  19.110
 3539DPPE   NH364321   8.590  20.560  20.900
 3539DPPE   PO464322   8.210  20.370  20.740
 3539DPPE   GL164323   8.280  20.170  21.100
 3539DPPE   GL264324   8.460  20.100  21.300
 3539DPPE   C1A64325   7.940  20.250  21.380
 3539DPPE   C2A64326   7.570  20.240  21.790
 3539DPPE   C3A64327   7.240  20.480  22.050
 3539DPPE   C4A64328   7.020  20.730  22.160
 3539DPPE   C1B64329   8.280  20.190  21.770
 3539DPPE   C2B64330   8.000  20.260  22.150
 3539DPPE   C3B64331   7.610  20.150  22.370
 3539DPPE   C4B64332   7.430  19.900  22.600
 3540DPPE   NH364333  13.970  20.470  22.860
 3540DPPE   PO464334  14.180  20.020  22.810
 3540DPPE   GL164335  14.460  19.960  22.900
 3540DPPE   GL264336  14.650  19.840  22.890
 3540DPPE   C1A64337  14.900  20.220  22.660
 3540DPPE   C2A64338  15.350  20.390  22.520
 3540DPPE   C3A64339  15.470  20.780  22.450
 3540DPPE   C4A64340  15.750  21.040  22.730
 3540DPPE   C1B64341  15.010  19.760  22.820
 3540DPPE   C2B64342  15.200  19.790  22.540
 3540DPPE   C3B64343  15.670  19.860  22.520
 3540DPPE   C4B64344  15.950  19.680  22.420
 3541DPPE   NH364345   7.420  19.460  18.870
 3541DPPE   PO464346   7.750  19.640  18.570
 3541DPPE   GL164347   8.140  19.540  18.430
 3541DPPE   GL264348   8.150  19.460  18.120
 3541DPPE   C1A64349   8.570  19.470  18.390
 3541DPPE   C2A64350   8.960  19.470  18.180
 3541DPPE   C3A64351   9.260  19.340  17.880
 3541DPPE   C4A64352   9.760  19.380  17.740
 3541DPPE   C1B64353   8.530  19.480  17.900
 3541DPPE   C2B64354   8.780  19.180  17.550
 3541DPPE   C3B64355   8.860  18.970  17.050
 3541DPPE   C4B64356   9.120  19.030  16.850
 3542DPPE   NH364357   8.570  22.510  19.320
 3542DPPE   PO464358   8.360  22.710  19.570
 3542DPPE   GL164359   8.210  22.900  19.900
 3542DPPE   GL264360   8.030  23.180  19.710
 3542DPPE   C1A64361   8.110  23.140  20.340
 3542DPPE   C2A64362   7.890  23.600  20.540
 3542DPPE   C3A64363   7.910  23.840  20.820
 3542DPPE   C4A64364   8.090  24.220  21.150
 3542DPPE   C1B64365   7.970  23.440  19.980
 3542DPPE   C2B64366   7.890  23.840  20.020
 3542DPPE   C3B64367   7.800  24.280  19.920
 3542DPPE   C4B64368   7.790  24.600  20.230
 3543DPPE   NH364369   9.690  16.640  22.530
 3543DPPE   PO464370   9.870  16.270  22.440
 3543DPPE   GL164371   9.630  16.240  22.870
 3543DPPE   GL264372   9.360  16.160  22.690
 3543DPPE   C1A64373   9.580  16.390  23.250
 3543DPPE   C2A64374   9.210  16.520  23.520
 3543DPPE   C3A64375   9.260  16.450  23.970
 3543DPPE   C4A64376   9.110  16.350  24.380
 3543DPPE   C1B64377   9.000  16.330  23.030
 3543DPPE   C2B64378   8.800  16.320  23.360
 3543DPPE   C3B64379   8.800  16.480  23.850
 3543DPPE   C4B64380   8.450  16.400  24.220
 3544DPPE   NH364381  13.960  12.880  23.540
 3544DPPE   PO464382  14.010  12.460  23.270
 3544DPPE   GL164383  13.730  12.290  23.560
 3544DPPE   GL264384  13.640  12.500  23.790
 3544DPPE   C1A64385  13.430  11.950  23.770
 3544DPPE   C2A64386  13.460  11.700  24.060
 3544DPPE   C3A64387  13.160  11.710  24.410
 3544DPPE   C4A64388  13.420  11.780  24.850
 3544DPPE   C1B64389  13.640  12.170  24.150
 3544DPPE   C2B64390  13.720  12.000  24.500
 3544DPPE   C3B64391  13.900  11.790  24.900
 3544DPPE   C4B64392  13.790  11.590  25.180
 3545DPPE   NH364393  10.260  10.220  18.500
 3545DPPE   PO464394  10.280  10.700  18.430
 3545DPPE   GL164395  10.580  11.020  18.550
 3545DPPE   GL264396  10.860  11.070  18.640
 3545DPPE   C1A64397  10.670  11.300  18.220
 3545DPPE   C2A64398  10.890  11.540  17.990
 3545DPPE   C3A64399  11.050  11.880  17.990
 3545DPPE   C4A64400  11.060  12.350  18.190
 3545DPPE   C1B64401  11.160  11.250  18.340
 3545DPPE   C2B64402  11.380  11.260  17.990
 3545DPPE   C3B64403  11.700  11.330  17.750
 3545DPPE   C4B64404  12.030  11.130  17.570
 3546DPPE   NH364405  11.070   8.210  17.980
 3546DPPE   PO464406  11.440   8.440  18.130
 3546DPPE   GL164407  11.250   8.140  18.420
 3546DPPE   GL264408  11.290   7.800  18.270
 3546DPPE   C1A64409  10.970   7.880  18.610
 3546DPPE   C2A64410  10.930   7.460  18.820
 3546DPPE   C3A64411  10.970   7.100  19.140
 3546DPPE   C4A64412  11.140   6.870  19.470
 3546DPPE   C1B64413  11.390   7.470  18.570
 3546DPPE   C2B64414  11.390   7.230  18.980
 3546DPPE   C3B64415  11.590   7.030  19.280
 3546DPPE   C4B64416  11.770   6.780  19.710
 3547DPPE   NH364417   8.320  14.520  20.720
 3547DPPE   PO464418   8.510  14.780  21.030
 3547DPPE   GL164419   8.260  14.530  21.280
 3547DPPE   GL264420   8.410  14.220  21.270
 3547DPPE   C1A64421   8.100  14.370  21.680
 3547DPPE   C2A64422   7.820  14.100  21.860
 3547DPPE   C3A64423   7.460  14.270  22.130
 3547DPPE   C4A64424   7.310  14.130  22.530
 3547DPPE   C1B64425   7.900  14.040  21.270
 3547DPPE   C2B64426   7.560  13.970  21.450
 3547DPPE   C3B64427   7.220  14.030  21.730
 3547DPPE   C4B64428   6.980  14.320  22.070
 3548DPPE   NH364429   6.340  20.980  16.370
 3548DPPE   PO464430   6.020  21.000  16.090
 3548DPPE   GL164431   6.150  21.270  15.730
 3548DPPE   GL264432   5.970  21.530  15.500
 3548DPPE   C1A64433   6.450  21.470  15.490
 3548DPPE   C2A64434   6.560  21.840  15.200
 3548DPPE   C3A64435   6.300  22.190  14.990
 3548DPPE   C4A64436   6.190  22.520  14.610
 3548DPPE   C1B64437   6.000  21.830  15.260
 3548DPPE   C2B64438   5.910  22.240  15.370
 3548DPPE   C3B64439   5.990  22.620  15.620
 3548DPPE   C4B64440   6.020  22.600  16.220
 3549DPPE   NH364441  12.470  21.910  23.270
 3549DPPE   PO464442  12.080  21.870  23.240
 3549DPPE   GL164443  12.170  22.030  23.640
 3549DPPE   GL264444  12.430  21.900  23.800
 3549DPPE   C1A64445  11.880  21.840  23.870
 3549DPPE   C2A64446  11.710  21.550  24.140
 3549DPPE   C3A64447  11.600  21.420  24.580
 3549DPPE   C4A64448  11.390  21.350  25.000
 3549DPPE   C1B64449  12.560  22.310  23.890
 3549DPPE   C2B64450  12.570  22.630  24.030
 3549DPPE   C3B64451  12.450  23.000  23.840
 3549DPPE   C4B64452  12.410  23.390  24.010
 3550DPPE   NH364453   4.820  19.260  15.660
 3550DPPE   PO464454   5.000  19.270  15.220
 3550DPPE   GL164455   4.690  19.420  14.940
 3550DPPE   GL264456   4.790  19.670  14.760
 3550DPPE   C1A64457   4.220  19.420  14.970
 3550DPPE   C2A64458   3.700  19.460  14.980
 3550DPPE   C3A64459   3.420  19.270  15.280
 3550DPPE   C4A64460   3.110  19.530  15.540
 3550DPPE   C1B64461   4.350  19.840  14.650
 3550DPPE   C2B64462   3.950  19.790  14.550
 3550DPPE   C3B64463   3.820  19.440  14.210
 3550DPPE   C4B64464   3.400  19.260  14.080
 3551DPPE   NH364465   7.950  15.410  20.160
 3551DPPE   PO464466   7.530  15.610  20.220
 3551DPPE   GL164467   7.240  15.270  20.330
 3551DPPE   GL264468   6.960  15.180  20.070
 3551DPPE   C1A64469   6.990  15.090  20.560
 3551DPPE   C2A64470   6.570  15.090  20.680
 3551DPPE   C3A64471   6.320  14.910  21.080
 3551DPPE   C4A64472   6.020  14.720  21.130
 3551DPPE   C1B64473   6.570  15.310  20.210
 3551DPPE   C2B64474   6.320  15.550  20.580
 3551DPPE   C3B64475   6.000  15.370  21.010
 3551DPPE   C4B64476   5.670  15.200  21.030
 3552DPPE   NH364477  14.910  17.290  24.170
 3552DPPE   PO464478  14.860  16.870  23.960
 3552DPPE   GL164479  14.970  16.810  23.460
 3552DPPE   GL264480  15.390  16.700  23.420
 3552DPPE   C1A64481  15.150  16.890  22.910
 3552DPPE   C2A64482  15.420  17.190  22.640
 3552DPPE   C3A64483  15.750  17.250  22.360
 3552DPPE   C4A64484  16.150  17.410  22.550
 3552DPPE   C1B64485  15.270  16.430  23.050
 3552DPPE   C2B64486  15.500  16.570  22.650
 3552DPPE   C3B64487  15.400  16.870  22.270
 3552DPPE   C4B64488  15.370  17.220  21.990
 3553DPPE   NH364489   8.600  15.350  20.990
 3553DPPE   PO464490   8.900  15.070  21.150
 3553DPPE   GL164491   8.580  15.160  21.440
 3553DPPE   GL264492   8.290  15.090  21.330
 3553DPPE   C1A64493   8.500  15.130  21.870
 3553DPPE   C2A64494   8.600  14.990  22.360
 3553DPPE   C3A64495   8.450  14.970  22.720
 3553DPPE   C4A64496   8.250  15.100  22.980
 3553DPPE   C1B64497   7.990  14.840  21.710
 3553DPPE   C2B64498   7.920  14.550  22.150
 3553DPPE   C3B64499   7.850  14.400  22.480
 3553DPPE   C4B64500   8.040  14.470  22.770
 3554DPPE   NH364501  13.020  10.830  21.800
 3554DPPE   PO464502  13.050  10.510  22.100
 3554DPPE   GL164503  12.920  10.430  22.540
 3554DPPE   GL264504  13.190  10.370  22.610
 3554DPPE   C1A64505  12.580  10.210  22.810
 3554DPPE   C2A64506  12.380  10.130  23.260
 3554DPPE   C3A64507  12.600  10.290  23.630
 3554DPPE   C4A64508  12.690  10.020  23.990
 3554DPPE   C1B64509  13.390  10.070  22.840
 3554DPPE   C2B64510  13.240   9.790  23.140
 3554DPPE   C3B64511  13.070   9.420  23.260
 3554DPPE   C4B64512  13.370   9.130  23.400
 3555DPPE   NH364513   9.460  10.840  17.400
 3555DPPE   PO464514   9.170  11.220  17.360
 3555DPPE   GL164515   9.550  11.320  17.560
 3555DPPE   GL264516   9.820  11.100  17.650
 3555DPPE   C1A64517   9.920  11.620  17.680
 3555DPPE   C2A64518  10.170  11.970  17.700
 3555DPPE   C3A64519  10.270  12.380  17.580
 3555DPPE   C4A64520  10.550  12.460  17.340
 3555DPPE   C1B64521  10.240  11.070  17.450
 3555DPPE   C2B64522  10.530  11.310  17.290
 3555DPPE   C3B64523  10.870  11.610  17.040
 3555DPPE   C4B64524  11.290  11.690  17.070
 3556DPPE   NH364525   6.130  12.030  14.030
 3556DPPE   PO464526   6.110  11.600  13.840
 3556DPPE   GL164527   5.820  11.390  13.920
 3556DPPE   GL264528   5.650  11.390  13.660
 3556DPPE   C1A64529   5.560  11.040  14.180
 3556DPPE   C2A64530   5.260  11.040  14.450
 3556DPPE   C3A64531   5.070  11.020  14.860
 3556DPPE   C4A64532   4.720  10.890  15.130
 3556DPPE   C1B64533   5.280  11.500  13.590
 3556DPPE   C2B64534   4.820  11.530  13.640
 3556DPPE   C3B64535   4.550  11.810  13.770
 3556DPPE   C4B64536   4.400  12.260  13.760
 3557DPPE   NH364537  14.030  15.900  24.810
 3557DPPE   PO464538  13.960  15.760  24.320
 3557DPPE   GL164539  13.690  15.580  24.500
 3557DPPE   GL264540  13.750  15.250  24.560
 3557DPPE   C1A64541  13.300  15.530  24.860
 3557DPPE   C2A64542  13.120  15.220  25.140
 3557DPPE   C3A64543  12.850  15.170  25.440
 3557DPPE   C4A64544  12.730  15.320  25.910
 3557DPPE   C1B64545  13.850  15.150  25.030
 3557DPPE   C2B64546  13.550  14.960  25.410
 3557DPPE   C3B64547  13.170  14.920  25.790
 3557DPPE   C4B64548  12.640  14.850  25.910
 3558DPPE   NH364549   8.170  12.150  17.630
 3558DPPE   PO464550   8.370  11.910  17.220
 3558DPPE   GL164551   8.710  12.210  17.110
 3558DPPE   GL264552   8.640  12.370  17.380
 3558DPPE   C1A64553   9.050  12.490  16.800
 3558DPPE   C2A64554   9.100  12.900  16.830
 3558DPPE   C3A64555   9.310  13.300  16.650
 3558DPPE   C4A64556   9.550  13.630  16.570
 3558DPPE   C1B64557   8.890  12.690  17.200
 3558DPPE   C2B64558   9.080  13.000  17.400
 3558DPPE   C3B64559   9.410  13.270  17.230
 3558DPPE   C4B64560   9.760  13.580  17.160
 3559DPPE   NH364561   7.220  22.070  17.010
 3559DPPE   PO464562   7.200  21.620  17.190
 3559DPPE   GL164563   7.580  21.600  17.000
 3559DPPE   GL264564   7.480  21.480  16.700
 3559DPPE   C1A64565   8.010  21.450  16.940
 3559DPPE   C2A64566   8.430  21.200  16.780
 3559DPPE   C3A64567   8.840  21.400  16.550
 3559DPPE   C4A64568   9.300  21.430  16.310
 3559DPPE   C1B64569   7.690  21.610  16.330
 3559DPPE   C2B64570   7.780  22.020  16.210
 3559DPPE   C3B64571   8.200  22.180  16.390
 3559DPPE   C4B64572   8.330  22.620  16.220
 3560DPPE   NH364573  11.710  11.840  20.760
 3560DPPE   PO464574  11.510  12.020  20.390
 3560DPPE   GL164575  11.470  12.150  19.980
 3560DPPE   GL264576  11.150  12.210  19.890
 3560DPPE   C1A64577  11.620  12.360  19.730
 3560DPPE   C2A64578  11.950  12.470  19.450
 3560DPPE   C3A64579  12.300  12.590  19.280
 3560DPPE   C4A64580  12.330  12.760  18.890
 3560DPPE   C1B64581  11.150  12.400  19.550
 3560DPPE   C2B64582  11.360  12.670  19.280
 3560DPPE   C3B64583  11.510  12.940  18.990
 3560DPPE   C4B64584  11.920  13.070  18.770
 3561DPPE   NH364585  14.940  16.600  24.400
 3561DPPE   PO464586  15.190  17.040  24.430
 3561DPPE   GL164587  15.480  16.840  24.690
 3561DPPE   GL264588  15.600  16.620  24.390
 3561DPPE   C1A64589  15.940  16.920  24.620
 3561DPPE   C2A64590  16.320  16.890  24.410
 3561DPPE   C3A64591  16.610  16.900  24.160
 3561DPPE   C4A64592  17.080  16.710  24.050
 3561DPPE   C1B64593  15.940  16.590  24.160
 3561DPPE   C2B64594  16.260  16.630  23.910
 3561DPPE   C3B64595  16.410  16.960  23.680
 3561DPPE   C4B64596  16.660  17.310  23.840
 3562DPPE   NH364597  13.320   8.350  18.670
 3562DPPE   PO464598  13.370   8.800  18.530
 3562DPPE   GL164599  13.650   8.940  18.260
 3562DPPE   GL264600  13.360   9.250  18.190
 3562DPPE   C1A64601  13.940   9.030  17.950
 3562DPPE   C2A64602  14.070   9.120  17.570
 3562DPPE   C3A64603  14.020   9.120  17.150
 3562DPPE   C4A64604  14.000   9.020  16.760
 3562DPPE   C1B64605  13.610   9.470  17.990
 3562DPPE   C2B64606  13.930   9.640  17.810
 3562DPPE   C3B64607  14.300   9.550  17.750
 3562DPPE   C4B64608  14.540   9.570  17.960
 3563DPPE   NH364609   8.960  19.040  21.770
 3563DPPE   PO464610   9.130  19.120  22.160
 3563DPPE   GL164611   8.970  19.250  22.480
 3563DPPE   GL264612   8.910  19.510  22.550
 3563DPPE   C1A64613   8.840  19.110  22.870
 3563DPPE   C2A64614   8.660  19.320  23.200
 3563DPPE   C3A64615   8.300  19.530  23.350
 3563DPPE   C4A64616   7.850  19.700  23.310
 3563DPPE   C1B64617   8.630  19.680  22.770
 3563DPPE   C2B64618   8.240  19.710  22.890
 3563DPPE   C3B64619   7.880  19.470  22.770
 3563DPPE   C4B64620   7.510  19.420  22.970
 3564DPPE   NH364621   6.390  15.570  16.530
 3564DPPE   PO464622   6.800  15.590  16.520
 3564DPPE   GL164623   7.120  15.630  16.240
 3564DPPE   GL264624   7.070  15.860  15.990
 3564DPPE   C1A64625   7.590  15.520  16.260
 3564DPPE   C2A64626   8.020  15.470  16.030
 3564DPPE   C3A64627   8.340  15.540  15.930
 3564DPPE   C4A64628   8.590  15.780  15.760
 3564DPPE   C1B64629   7.490  15.900  15.840
 3564DPPE   C2B64630   7.760  16.170  15.780
 3564DPPE   C3B64631   8.120  16.460  15.670
 3564DPPE   C4B64632   8.240  16.790  15.360
 3565DPPE   NH364633  10.640  16.660  22.130
 3565DPPE   PO464634  10.780  16.190  22.170
 3565DPPE   GL164635  11.070  16.470  21.880
 3565DPPE   GL264636  11.420  16.350  21.790
 3565DPPE   C1A64637  11.240  16.720  21.470
 3565DPPE   C2A64638  11.640  16.800  21.080
 3565DPPE   C3A64639  11.900  16.850  20.780
 3565DPPE   C4A64640  12.200  16.960  20.410
 3565DPPE   C1B64641  11.720  16.480  21.460
 3565DPPE   C2B64642  11.870  16.410  21.030
 3565DPPE   C3B64643  12.310  16.500  20.670
 3565DPPE   C4B64644  12.660  16.380  20.400
 3566DPPE   NH364645  15.530  11.270  21.140
 3566DPPE   PO464646  15.170  11.210  20.930
 3566DPPE   GL164647  15.420  11.180  20.660
 3566DPPE   GL264648  15.650  11.000  20.670
 3566DPPE   C1A64649  15.520  11.100  20.220
 3566DPPE   C2A64650  15.810  11.300  19.910
 3566DPPE   C3A64651  16.050  11.210  19.530
 3566DPPE   C4A64652  16.470  10.980  19.420
 3566DPPE   C1B64653  16.010  11.320  20.760
 3566DPPE   C2B64654  16.490  11.370  20.680
 3566DPPE   C3B64655  16.910  11.290  20.540
 3566DPPE   C4B64656  16.970  10.930  20.440
 3567DPPE   NH364657  12.820  10.270  21.670
 3567DPPE   PO464658  12.550  10.620  21.810
 3567DPPE   GL164659  12.160  10.540  22.050
 3567DPPE   GL264660  12.120  10.880  22.080
 3567DPPE   C1A64661  11.750  10.450  22.330
 3567DPPE   C2A64662  11.640  10.210  22.580
 3567DPPE   C3A64663  11.840  10.100  23.060
 3567DPPE   C4A64664  11.920  10.110  23.480
 3567DPPE   C1B64665  11.970  10.900  22.490
 3567DPPE   C2B64666  11.690  10.740  22.840
 3567DPPE   C3B64667  11.650  10.600  23.250
 3567DPPE   C4B64668  11.620  10.620  23.630
 3568DPPE   NH364669   7.860  10.390  17.130
 3568DPPE   PO464670   8.030   9.980  17.110
 3568DPPE   GL164671   7.740   9.780  17.020
 3568DPPE   GL264672   7.680   9.540  16.810
 3568DPPE   C1A64673   7.370   9.650  17.350
 3568DPPE   C2A64674   7.200   9.520  17.720
 3568DPPE   C3A64675   7.150   9.370  18.050
 3568DPPE   C4A64676   7.060   9.360  18.460
 3568DPPE   C1B64677   7.490   9.230  16.730
 3568DPPE   C2B64678   7.290   8.810  16.690
 3568DPPE   C3B64679   7.160   8.650  17.070
 3568DPPE   C4B64680   7.330   8.660  17.450
 3569DPPE   NH364681  10.580  10.700  18.920
 3569DPPE   PO464682  10.530  10.260  18.940
 3569DPPE   GL164683  10.760  10.460  18.510
 3569DPPE   GL264684  11.000  10.550  18.640
 3569DPPE   C1A64685  10.880  10.760  18.180
 3569DPPE   C2A64686  11.170  10.820  17.800
 3569DPPE   C3A64687  11.540  10.950  17.510
 3569DPPE   C4A64688  11.760  11.340  17.190
 3569DPPE   C1B64689  11.330  10.780  18.420
 3569DPPE   C2B64690  11.760  11.020  18.390
 3569DPPE   C3B64691  12.010  11.220  18.100
 3569DPPE   C4B64692  12.350  11.480  17.850
 3570DPPE   NH364693  11.490  10.780  20.940
 3570DPPE   PO464694  11.830  10.610  21.170
 3570DPPE   GL164695  11.780  10.250  21.560
 3570DPPE   GL264696  11.640   9.960  21.510
 3570DPPE   C1A64697  11.670  10.030  22.000
 3570DPPE   C2A64698  11.770   9.810  22.300
 3570DPPE   C3A64699  11.710   9.650  22.690
 3570DPPE   C4A64700  11.600   9.190  22.740
 3570DPPE   C1B64701  11.350   9.640  21.770
 3570DPPE   C2B64702  11.310   9.640  22.120
 3570DPPE   C3B64703  11.330   9.850  22.450
 3570DPPE   C4B64704  11.310   9.850  22.960
 3571DPPE   NH364705  11.760  14.220  22.330
 3571DPPE   PO464706  12.240  14.220  22.340
 3571DPPE   GL164707  12.590  14.180  22.050
 3571DPPE   GL264708  12.510  14.090  21.740
 3571DPPE   C1A64709  12.810  14.450  21.730
 3571DPPE   C2A64710  13.090  14.600  21.330
 3571DPPE   C3A64711  13.350  14.690  20.910
 3571DPPE   C4A64712  13.520  14.520  20.600
 3571DPPE   C1B64713  12.760  14.150  21.340
 3571DPPE   C2B64714  12.780  14.230  20.980
 3571DPPE   C3B64715  13.040  14.200  20.770
 3571DPPE   C4B64716  13.030  14.100  20.430
 3572DPPE   NH364717   8.870  19.140  20.560
 3572DPPE   PO464718   8.720  18.890  20.170
 3572DPPE   GL164719   8.810  19.160  19.820
 3572DPPE   GL264720   8.990  18.900  19.460
 3572DPPE   C1A64721   9.170  19.320  19.620
 3572DPPE   C2A64722   9.500  19.270  19.330
 3572DPPE   C3A64723   9.830  19.310  19.140
 3572DPPE   C4A64724  10.120  19.210  18.940
 3572DPPE   C1B64725   9.410  18.790  19.270
 3572DPPE   C2B64726   9.800  18.790  19.170
 3572DPPE   C3B64727  10.270  18.780  19.160
 3572DPPE   C4B64728  10.760  18.820  19.130
 3573DPPE   NH364729   5.130  19.610  16.420
 3573DPPE   PO464730   5.050  19.250  16.630
 3573DPPE   GL164731   4.640  19.230  16.740
 3573DPPE   GL264732   4.660  19.500  16.910
 3573DPPE   C1A64733   4.210  19.270  16.880
 3573DPPE   C2A64734   3.850  19.440  17.100
 3573DPPE   C3A64735   3.590  19.820  16.920
 3573DPPE   C4A64736   3.450  20.140  17.130
 3573DPPE   C1B64737   4.430  19.700  17.110
 3573DPPE   C2B64738   3.970  19.910  17.190
 3573DPPE   C3B64739   3.830  20.200  17.450
 3573DPPE   C4B64740   3.620  20.530  17.800
 3574DPPE   NH364741  15.290  13.190  24.070
 3574DPPE   PO464742  15.260  12.810  23.920
 3574DPPE   GL164743  15.510  12.730  24.340
 3574DPPE   GL264744  15.520  13.010  24.490
 3574DPPE   C1A64745  15.570  12.470  24.680
 3574DPPE   C2A64746  15.780  12.360  25.030
 3574DPPE   C3A64747  15.930  11.930  25.160
 3574DPPE   C4A64748  15.910  11.610  25.530
 3574DPPE   C1B64749  15.700  13.210  24.840
 3574DPPE   C2B64750  15.910  13.620  25.040
 3574DPPE   C3B64751  15.850  13.810  25.540
 3574DPPE   C4B64752  15.800  13.810  26.000
 3575DPPE   NH364753  12.620  14.940  23.330
 3575DPPE   PO464754  12.690  15.370  23.510
 3575DPPE   GL164755  12.590  15.610  23.930
 3575DPPE   GL264756  12.820  15.370  23.960
 3575DPPE   C1A64757  12.350  15.720  24.350
 3575DPPE   C2A64758  12.430  15.870  24.720
 3575DPPE   C3A64759  12.300  16.160  25.130
 3575DPPE   C4A64760  12.220  16.160  25.500
 3575DPPE   C1B64761  12.630  15.190  24.370
 3575DPPE   C2B64762  12.340  15.250  24.640
 3575DPPE   C3B64763  12.010  15.420  24.820
 3575DPPE   C4B64764  11.610  15.360  24.950
 3576DPPE   NH364765  10.790  13.400  21.820
 3576DPPE   PO464766  10.360  13.250  21.650
 3576DPPE   GL164767  10.300  13.350  22.070
 3576DPPE   GL264768  10.040  13.220  22.270
 3576DPPE   C1A64769  10.330  13.440  22.560
 3576DPPE   C2A64770  10.420  13.380  23.020
 3576DPPE   C3A64771  10.290  13.190  23.330
 3576DPPE   C4A64772  10.060  13.220  23.680
 3576DPPE   C1B64773  10.020  13.050  22.650
 3576DPPE   C2B64774   9.890  13.100  23.110
 3576DPPE   C3B64775   9.710  12.910  23.410
 3576DPPE   C4B64776   9.840  12.570  23.740
 3577DPPE   NH364777   7.080  21.220  16.870
 3577DPPE   PO464778   7.130  21.200  16.470
 3577DPPE   GL164779   7.240  21.140  16.170
 3577DPPE   GL264780   7.350  21.470  15.940
 3577DPPE   C1A64781   7.650  21.110  15.740
 3577DPPE   C2A64782   8.070  20.990  15.640
 3577DPPE   C3A64783   8.570  20.970  15.600
 3577DPPE   C4A64784   8.930  20.920  15.590
 3577DPPE   C1B64785   7.410  21.540  15.480
 3577DPPE   C2B64786   7.630  21.760  15.130
 3577DPPE   C3B64787   7.520  22.280  15.060
 3577DPPE   C4B64788   7.320  22.600  14.860
 3578DPPE   NH364789   8.030  23.340  18.150
 3578DPPE   PO464790   7.830  23.440  17.770
 3578DPPE   GL164791   7.850  23.670  17.470
 3578DPPE   GL264792   8.170  23.520  17.380
 3578DPPE   C1A64793   7.770  23.960  17.060
 3578DPPE   C2A64794   7.830  24.210  16.590
 3578DPPE   C3A64795   7.490  24.100  16.300
 3578DPPE   C4A64796   7.180  24.040  16.040
 3578DPPE   C1B64797   8.250  23.770  17.110
 3578DPPE   C2B64798   8.290  23.910  16.700
 3578DPPE   C3B64799   8.250  23.690  16.330
 3578DPPE   C4B64800   8.090  23.540  15.870
 3579DPPE   NH364801  13.690  21.030  23.170
 3579DPPE   PO464802  13.530  20.560  23.240
 3579DPPE   GL164803  13.550  20.870  23.630
 3579DPPE   GL264804  13.890  20.960  23.650
 3579DPPE   C1A64805  13.490  20.920  24.050
 3579DPPE   C2A64806  13.670  20.750  24.460
 3579DPPE   C3A64807  13.870  20.400  24.580
 3579DPPE   C4A64808  14.290  20.410  24.640
 3579DPPE   C1B64809  13.920  21.190  24.020
 3579DPPE   C2B64810  13.940  21.180  24.510
 3579DPPE   C3B64811  14.330  21.270  24.760
 3579DPPE   C4B64812  14.740  21.520  24.900
 3580DPPE   NH364813   7.270  18.410  18.030
 3580DPPE   PO464814   7.320  17.890  17.810
 3580DPPE   GL164815   7.530  17.980  17.340
 3580DPPE   GL264816   7.490  18.210  17.140
 3580DPPE   C1A64817   7.860  17.900  16.970
 3580DPPE   C2A64818   8.240  17.880  16.730
 3580DPPE   C3A64819   8.440  17.790  16.400
 3580DPPE   C4A64820   8.440  17.540  15.980
 3580DPPE   C1B64821   7.650  18.240  16.700
 3580DPPE   C2B64822   7.930  18.100  16.330
 3580DPPE   C3B64823   7.980  17.800  16.000
 3580DPPE   C4B64824   7.680  17.580  15.870
 3581DPPE   NH364825   5.380  18.890  16.910
 3581DPPE   PO464826   5.540  19.280  16.970
 3581DPPE   GL164827   5.090  19.190  17.180
 3581DPPE   GL264828   4.920  18.960  17.080
 3581DPPE   C1A64829   4.750  19.370  17.460
 3581DPPE   C2A64830   4.260  19.590  17.540
 3581DPPE   C3A64831   3.920  19.780  17.710
 3581DPPE   C4A64832   3.560  20.000  17.860
 3581DPPE   C1B64833   4.540  19.030  17.170
 3581DPPE   C2B64834   4.180  19.130  17.360
 3581DPPE   C3B64835   3.970  19.250  17.620
 3581DPPE   C4B64836   3.670  19.420  17.880
 3582DPPE   NH364837   6.030  15.220  15.170
 3582DPPE   PO464838   6.070  15.660  14.940
 3582DPPE   GL164839   6.400  15.750  14.870
 3582DPPE   GL264840   6.530  15.830  14.490
 3582DPPE   C1A64841   6.860  15.830  15.030
 3582DPPE   C2A64842   7.250  15.990  14.900
 3582DPPE   C3A64843   7.560  15.720  14.780
 3582DPPE   C4A64844   7.770  15.350  14.930
 3582DPPE   C1B64845   6.700  15.580  14.200
 3582DPPE   C2B64846   7.000  15.250  14.250
 3582DPPE   C3B64847   7.280  15.140  13.970
 3582DPPE   C4B64848   7.600  14.760  13.950
 3583DPPE   NH364849   5.240  20.480  14.680
 3583DPPE   PO464850   5.100  20.290  14.350
 3583DPPE   GL164851   5.270  20.410  14.080
 3583DPPE   GL264852   5.190  20.180  13.870
 3583DPPE   C1A64853   5.380  20.620  13.680
 3583DPPE   C2A64854   5.450  21.050  13.560
 3583DPPE   C3A64855   5.250  21.390  13.370
 3583DPPE   C4A64856   4.960  21.580  13.570
 3583DPPE   C1B64857   5.280  20.160  13.430
 3583DPPE   C2B64858   5.360  20.210  13.010
 3583DPPE   C3B64859   5.350  20.230  12.560
 3583DPPE   C4B64860   5.150  20.330  12.140
 3584DPPE   NH364861   6.650  13.630  15.480
 3584DPPE   PO464862   6.510  14.050  15.480
 3584DPPE   GL164863   6.920  14.030  15.280
 3584DPPE   GL264864   7.110  13.760  15.240
 3584DPPE   C1A64865   7.160  13.990  14.820
 3584DPPE   C2A64866   7.510  14.030  14.640
 3584DPPE   C3A64867   7.960  14.140  14.710
 3584DPPE   C4A64868   8.300  14.310  14.920
 3584DPPE   C1B64869   7.510  13.610  15.330
 3584DPPE   C2B64870   7.750  13.590  14.950
 3584DPPE   C3B64871   8.190  13.610  14.780
 3584DPPE   C4B64872   8.630  13.540  14.780
 3585DPPE   NH364873   5.950  13.170  15.950
 3585DPPE   PO464874   5.630  13.430  16.120
 3585DPPE   GL164875   5.250  13.490  16.130
 3585DPPE   GL264876   5.260  13.620  16.440
 3585DPPE   C1A64877   5.040  13.150  16.330
 3585DPPE   C2A64878   4.660  12.990  16.480
 3585DPPE   C3A64879   4.400  13.000  16.770
 3585DPPE   C4A64880   4.200  12.710  17.060
 3585DPPE   C1B64881   4.900  13.570  16.640
 3585DPPE   C2B64882   4.520  13.610  16.680
 3585DPPE   C3B64883   4.070  13.730  16.510
 3585DPPE   C4B64884   3.710  13.680  16.710
 3586DPPE   NH364885   5.310  20.430  16.990
 3586DPPE   PO464886   5.440  20.760  16.700
 3586DPPE   GL164887   5.280  21.060  17.000
 3586DPPE   GL264888   5.350  21.160  17.270
 3586DPPE   C1A64889   4.840  21.050  17.220
 3586DPPE   C2A64890   4.330  21.050  17.200
 3586DPPE   C3A64891   3.820  21.140  17.420
 3586DPPE   C4A64892   3.580  21.350  17.550
 3586DPPE   C1B64893   5.090  21.070  17.650
 3586DPPE   C2B64894   4.750  21.410  17.700
 3586DPPE   C3B64895   4.440  21.810  17.640
 3586DPPE   C4B64896   4.170  22.170  17.590
 3587DPPE   NH364897   8.340  21.360  20.600
 3587DPPE   PO464898   7.980  21.230  20.420
 3587DPPE   GL164899   7.740  21.430  20.740
 3587DPPE   GL264900   8.030  21.390  21.000
 3587DPPE   C1A64901   7.290  21.500  20.860
 3587DPPE   C2A64902   6.900  21.470  20.950
 3587DPPE   C3A64903   6.440  21.500  21.050
 3587DPPE   C4A64904   6.100  21.790  21.120
 3587DPPE   C1B64905   7.820  21.490  21.410
 3587DPPE   C2B64906   7.880  21.590  21.870
 3587DPPE   C3B64907   7.680  21.640  22.210
 3587DPPE   C4B64908   7.450  21.730  22.420
 3588DPPE   NH364909   8.090  12.930  19.910
 3588DPPE   PO464910   8.290  12.820  19.500
 3588DPPE   GL164911   7.820  12.610  19.650
 3588DPPE   GL264912   7.530  12.570  19.420
 3588DPPE   C1A64913   7.420  12.570  19.960
 3588DPPE   C2A64914   7.120  12.200  20.000
 3588DPPE   C3A64915   6.770  12.110  20.410
 3588DPPE   C4A64916   6.550  12.430  20.660
 3588DPPE   C1B64917   7.180  12.270  19.490
 3588DPPE   C2B64918   6.870  11.940  19.420
 3588DPPE   C3B64919   6.550  11.650  19.560
 3588DPPE   C4B64920   6.110  11.630  19.690
 3589DPPE   NH364921   9.240   9.370  15.690
 3589DPPE   PO464922   9.140   8.900  15.580
 3589DPPE   GL164923   8.960   8.580  15.530
 3589DPPE   GL264924   9.020   8.310  15.720
 3589DPPE   C1A64925   8.820   8.180  15.250
 3589DPPE   C2A64926   8.540   7.930  15.000
 3589DPPE   C3A64927   8.540   7.780  14.520
 3589DPPE   C4A64928   8.640   7.440  14.390
 3589DPPE   C1B64929   9.310   8.160  15.380
 3589DPPE   C2B64930   9.700   8.020  15.170
 3589DPPE   C3B64931   9.870   7.760  14.800
 3589DPPE   C4B64932  10.060   7.420  14.630
 3590DPPE   NH364933  11.200  19.020  22.050
 3590DPPE   PO464934  11.040  18.840  21.770
 3590DPPE   GL164935  11.080  18.980  21.380
 3590DPPE   GL264936  11.070  19.300  21.210
 3590DPPE   C1A64937  11.430  18.980  21.040
 3590DPPE   C2A64938  11.420  18.920  20.680
 3590DPPE   C3A64939  11.780  18.740  20.360
 3590DPPE   C4A64940  12.170  18.410  20.280
 3590DPPE   C1B64941  11.020  19.350  20.770
 3590DPPE   C2B64942  11.170  19.190  20.370
 3590DPPE   C3B64943  11.230  18.770  20.290
 3590DPPE   C4B64944  11.460  18.560  20.030
 3591DPPE   NH364945   5.640  13.830  13.480
 3591DPPE   PO464946   5.990  13.720  13.510
 3591DPPE   GL164947   6.230  13.530  13.210
 3591DPPE   GL264948   6.140  13.440  12.970
 3591DPPE   C1A64949   6.650  13.460  13.000
 3591DPPE   C2A64950   6.790  13.570  12.600
 3591DPPE   C3A64951   7.010  13.410  12.190
 3591DPPE   C4A64952   7.350  13.370  11.910
 3591DPPE   C1B64953   6.270  13.560  12.550
 3591DPPE   C2B64954   6.490  13.410  12.180
 3591DPPE   C3B64955   6.550  13.340  11.740
 3591DPPE   C4B64956   6.950  13.420  11.560
 3592DPPE   NH364957   6.070  19.630  18.130
 3592DPPE   PO464958   5.770  19.710  17.880
 3592DPPE   GL164959   5.280  19.620  17.900
 3592DPPE   GL264960   5.230  19.310  17.750
 3592DPPE   C1A64961   4.890  19.440  18.050
 3592DPPE   C2A64962   4.500  19.230  18.330
 3592DPPE   C3A64963   4.120  19.000  18.550
 3592DPPE   C4A64964   3.980  18.520  18.660
 3592DPPE   C1B64965   4.920  18.950  17.980
 3592DPPE   C2B64966   4.500  18.770  18.090
 3592DPPE   C3B64967   4.100  18.780  18.140
 3592DPPE   C4B64968   3.690  18.830  18.350
 3593DPPE   NH364969   8.290  15.040  20.620
 3593DPPE   PO464970   8.270  15.460  20.600
 3593DPPE   GL164971   8.020  15.370  20.920
 3593DPPE   GL264972   7.810  15.580  20.750
 3593DPPE   C1A64973   7.790  15.460  21.300
 3593DPPE   C2A64974   7.420  15.460  21.350
 3593DPPE   C3A64975   7.010  15.510  21.480
 3593DPPE   C4A64976   6.780  15.440  21.910
 3593DPPE   C1B64977   7.520  15.330  20.880
 3593DPPE   C2B64978   7.070  15.170  21.030
 3593DPPE   C3B64979   6.860  14.780  21.090
 3593DPPE   C4B64980   6.500  14.490  21.210
 3594DPPE   NH364981  14.470  13.070  23.620
 3594DPPE   PO464982  14.390  12.580  23.610
 3594DPPE   GL164983  14.260  12.430  24.030
 3594DPPE   GL264984  14.140  12.120  24.210
 3594DPPE   C1A64985  14.550  12.370  24.400
 3594DPPE   C2A64986  14.820  12.140  24.750
 3594DPPE   C3A64987  14.810  11.720  25.030
 3594DPPE   C4A64988  14.860  11.360  25.290
 3594DPPE   C1B64989  14.250  12.060  24.640
 3594DPPE   C2B64990  14.350  12.030  25.090
 3594DPPE   C3B64991  14.470  11.810  25.420
 3594DPPE   C4B64992  14.630  11.860  25.900
 3595DPPE   NH364993  15.160  15.820  24.380
 3595DPPE   PO464994  15.240  16.210  24.230
 3595DPPE   GL164995  15.670  16.130  24.480
 3595DPPE   GL264996  15.560  15.970  24.670
 3595DPPE   C1A64997  16.000  16.350  24.600
 3595DPPE   C2A64998  16.480  16.400  24.420
 3595DPPE   C3A64999  16.670  16.360  24.010
 3595DPPE   C4A65000  16.930  16.410  23.670
 3595DPPE   C1B65001  15.850  15.970  25.030
 3595DPPE   C2B65002  16.270  15.760  25.120
 3595DPPE   C3B65003  16.400  15.670  25.560
 3595DPPE   C4B65004  16.770  15.590  25.840
 3596DPPE   NH365005  11.480  12.250  22.310
 3596DPPE   PO465006  11.850  12.570  22.340
 3596DPPE   GL165007  11.510  12.570  22.720
 3596DPPE   GL265008  11.200  12.530  22.620
 3596DPPE   C1A65009  11.380  12.400  23.140
 3596DPPE   C2A65010  11.040  12.310  23.460
 3596DPPE   C3A65011  10.520  12.300  23.680
 3596DPPE   C4A65012  10.190  12.380  24.020
 3596DPPE   C1B65013  10.960  12.240  22.970
 3596DPPE   C2B65014  10.880  11.860  23.220
 3596DPPE   C3B65015  10.610  11.700  23.580
 3596DPPE   C4B65016  10.510  11.420  23.830
 3597DPPE   NH365017   9.840  22.700  21.650
 3597DPPE   PO465018   9.830  22.820  21.100
 3597DPPE   GL165019   9.510  23.190  21.150
 3597DPPE   GL265020   9.500  23.130  21.540
 3597DPPE   C1A65021   9.130  23.310  21.330
 3597DPPE   C2A65022   8.710  23.590  21.390
 3597DPPE   C3A65023   8.670  23.680  21.810
 3597DPPE   C4A65024   8.920  23.680  22.180
 3597DPPE   C1B65025   9.480  23.630  21.360
 3597DPPE   C2B65026   9.550  24.040  21.100
 3597DPPE   C3B65027   9.410  24.130  20.720
 3597DPPE   C4B65028   9.480  24.430  20.430
 3598DPPE   NH365029  13.000  11.320  22.560
 3598DPPE   PO465030  13.040  10.920  22.680
 3598DPPE   GL165031  13.100  10.710  23.050
 3598DPPE   GL265032  13.360  10.580  23.100
 3598DPPE   C1A65033  13.070  10.610  23.530
 3598DPPE   C2A65034  13.130  10.410  23.940
 3598DPPE   C3A65035  13.150  10.360  24.310
 3598DPPE   C4A65036  13.140   9.970  24.550
 3598DPPE   C1B65037  13.520  10.310  23.370
 3598DPPE   C2B65038  13.620  10.020  23.700
 3598DPPE   C3B65039  13.890   9.700  23.650
 3598DPPE   C4B65040  14.340   9.620  23.850
 3599DPPE   NH365041   9.460  17.530  21.050
 3599DPPE   PO465042   9.540  17.250  21.390
 3599DPPE   GL165043   9.940  17.260  21.090
 3599DPPE   GL265044   9.790  17.150  20.850
 3599DPPE   C1A65045  10.330  17.360  20.990
 3599DPPE   C2A65046  10.760  17.460  20.710
 3599DPPE   C3A65047  11.130  17.430  20.430
 3599DPPE   C4A65048  11.630  17.440  20.240
 3599DPPE   C1B65049  10.010  17.250  20.530
 3599DPPE   C2B65050  10.210  17.400  20.220
 3599DPPE   C3B65051  10.300  17.570  19.780
 3599DPPE   C4B65052  10.460  17.590  19.360
 3600DPPE   NH365053  14.160  11.900  21.320
 3600DPPE   PO465054  14.280  11.490  21.440
 3600DPPE   GL165055  14.440  11.640  20.950
 3600DPPE   GL265056  14.480  12.040  20.910
 3600DPPE   C1A65057  14.470  11.700  20.480
 3600DPPE   C2A65058  14.900  11.800  20.180
 3600DPPE   C3A65059  14.870  11.890  19.820
 3600DPPE   C4A65060  15.150  11.970  19.490
 3600DPPE   C1B65061  14.780  12.150  20.530
 3600DPPE   C2B65062  15.030  12.520  20.590
 3600DPPE   C3B65063  14.970  12.930  20.870
 3600DPPE   C4B65064  14.840  13.450  20.980
 3601DPPE   NH365065   5.160  20.970  15.830
 3601DPPE   PO465066   5.050  20.600  16.070
 3601DPPE   GL165067   4.700  20.640  16.170
 3601DPPE   GL265068   4.590  20.900  16.070
 3601DPPE   C1A65069   4.360  20.430  16.380
 3601DPPE   C2A65070   3.940  20.640  16.420
 3601DPPE   C3A65071   3.510  20.750  16.270
 3601DPPE   C4A65072   3.010  20.890  16.210
 3601DPPE   C1B65073   4.400  21.290  16.330
 3601DPPE   C2B65074   4.560  21.700  16.200
 3601DPPE   C3B65075   4.520  21.960  16.500
 3601DPPE   C4B65076   4.660  22.010  16.930
 3602DPPE   NH365077  10.180  21.580  21.550
 3602DPPE   PO465078  10.140  21.780  21.950
 3602DPPE   GL165079   9.900  22.100  22.190
 3602DPPE   GL265080   9.840  22.360  22.160
 3602DPPE   C1A65081   9.730  22.100  22.560
 3602DPPE   C2A65082   9.490  22.500  22.770
 3602DPPE   C3A65083   9.360  22.730  23.060
 3602DPPE   C4A65084   9.510  23.130  23.110
 3602DPPE   C1B65085   9.640  22.610  22.270
 3602DPPE   C2B65086   9.360  22.920  22.460
 3602DPPE   C3B65087   9.170  23.190  22.770
 3602DPPE   C4B65088   8.820  23.430  22.750
 3603DPPE   NH365089  10.730  20.690  21.330
 3603DPPE   PO465090  10.480  20.810  20.990
 3603DPPE   GL165091  10.370  20.660  20.610
 3603DPPE   GL265092   9.990  20.560  20.470
 3603DPPE   C1A65093  10.610  20.570  20.160
 3603DPPE   C2A65094  11.010  20.520  19.930
 3603DPPE   C3A65095  11.400  20.640  19.610
 3603DPPE   C4A65096  11.690  20.960  19.620
 3603DPPE   C1B65097  10.260  20.210  20.430
 3603DPPE   C2B65098  10.430  20.010  20.110
 3603DPPE   C3B65099  10.790  19.960  19.900
 3603DPPE   C4B65100  11.160  19.840  19.580
 3604DPPE   NH365101  10.550   9.980  17.290
 3604DPPE   PO465102  10.190   9.940  17.010
 3604DPPE   GL165103  10.330  10.360  17.050
 3604DPPE   GL265104  10.370  10.520  17.320
 3604DPPE   C1A65105  10.310  10.840  16.950
 3604DPPE   C2A65106  10.280  11.340  16.810
 3604DPPE   C3A65107  10.490  11.520  16.460
 3604DPPE   C4A65108  10.910  11.800  16.220
 3604DPPE   C1B65109  10.750  10.780  17.230
 3604DPPE   C2B65110  11.100  11.010  17.160
 3604DPPE   C3B65111  11.350  11.180  16.860
 3604DPPE   C4B65112  11.510  11.120  16.430
 3605DPPE   NH365113  14.860   9.600  21.730
 3605DPPE   PO465114  14.530   9.760  21.570
 3605DPPE   GL165115  14.490   9.440  22.000
 3605DPPE   GL265116  14.650   9.220  22.200
 3605DPPE   C1A65117  14.120   9.090  22.230
 3605DPPE   C2A65118  13.840   8.780  22.130
 3605DPPE   C3A65119  13.500   8.500  22.170
 3605DPPE   C4A65120  13.310   8.140  22.090
 3605DPPE   C1B65121  14.970   9.180  22.360
 3605DPPE   C2B65122  15.340   9.140  22.440
 3605DPPE   C3B65123  15.780   9.170  22.290
 3605DPPE   C4B65124  16.210   9.140  22.130
 3606DPPE   NH365125  10.850  19.750  22.820
 3606DPPE   PO465126  10.670  19.320  22.920
 3606DPPE   GL165127  10.510  19.260  23.280
 3606DPPE   GL265128  10.220  19.350  23.160
 3606DPPE   C1A65129  10.340  19.060  23.620
 3606DPPE   C2A65130  10.300  19.140  24.060
 3606DPPE   C3A65131  10.290  19.230  24.360
 3606DPPE   C4A65132  10.070  18.900  24.580
 3606DPPE   C1B65133   9.880  19.330  23.550
 3606DPPE   C2B65134   9.470  19.310  23.640
 3606DPPE   C3B65135   9.330  19.490  23.990
 3606DPPE   C4B65136   9.090  19.620  24.350
 3607DPPE   NH365137   6.790  19.810  17.000
 3607DPPE   PO465138   7.030  19.530  17.220
 3607DPPE   GL165139   7.150  19.430  16.750
 3607DPPE   GL265140   6.870  19.200  16.600
 3607DPPE   C1A65141   7.320  19.700  16.460
 3607DPPE   C2A65142   7.650  19.800  16.230
 3607DPPE   C3A65143   7.930  19.990  16.060
 3607DPPE   C4A65144   8.090  20.370  16.250
 3607DPPE   C1B65145   7.130  19.280  16.280
 3607DPPE   C2B65146   7.570  19.230  16.220
 3607DPPE   C3B65147   7.800  18.920  16.070
 3607DPPE   C4B65148   7.850  18.760  15.630
 3608DPPE   NH365149   5.530  19.740  18.370
 3608DPPE   PO465150   5.860  19.550  18.550
 3608DPPE   GL165151   5.690  19.740  18.930
 3608DPPE   GL265152   5.640  19.460  19.210
 3608DPPE   C1A65153   5.380  19.890  19.180
 3608DPPE   C2A65154   4.940  19.970  19.170
 3608DPPE   C3A65155   4.560  19.830  19.030
 3608DPPE   C4A65156   4.300  19.650  19.230
 3608DPPE   C1B65157   5.180  19.440  19.270
 3608DPPE   C2B65158   4.730  19.360  19.250
 3608DPPE   C3B65159   4.350  19.120  19.340
 3608DPPE   C4B65160   3.980  18.990  19.500
 3609DPPE   NH365161   8.120  19.720  18.940
 3609DPPE   PO465162   8.090  20.030  18.640
 3609DPPE   GL165163   8.360  20.000  18.260
 3609DPPE   GL265164   8.390  20.350  18.200
 3609DPPE   C1A65165   8.840  19.910  18.220
 3609DPPE   C2A65166   9.300  19.900  18.070
 3609DPPE   C3A65167   9.650  19.870  17.760
 3609DPPE   C4A65168  10.060  19.780  17.660
 3609DPPE   C1B65169   8.730  20.410  17.910
 3609DPPE   C2B65170   9.180  20.230  17.710
 3609DPPE   C3B65171   9.580  20.520  17.520
 3609DPPE   C4B65172   9.920  20.720  17.780
 3610DPPE   NH365173   8.800  23.110  18.660
 3610DPPE   PO465174   9.110  23.190  18.990
 3610DPPE   GL165175   9.220  23.370  18.700
 3610DPPE   GL265176   9.240  23.650  18.480
 3610DPPE   C1A65177   9.600  23.380  18.610
 3610DPPE   C2A65178   9.730  23.690  18.400
 3610DPPE   C3A65179   9.810  24.010  18.040
 3610DPPE   C4A65180   9.690  23.950  17.690
 3610DPPE   C1B65181   9.320  24.040  18.120
 3610DPPE   C2B65182   9.380  24.370  17.780
 3610DPPE   C3B65183   9.800  24.470  17.670
 3610DPPE   C4B65184  10.210  24.650  17.620
 3611DPPE   NH365185   9.760   8.620  17.670
 3611DPPE   PO465186   9.470   8.850  17.370
 3611DPPE   GL165187   9.280   8.480  17.400
 3611DPPE   GL265188   9.160   8.370  17.160
 3611DPPE   C1A65189   9.150   8.120  17.580
 3611DPPE   C2A65190   8.940   7.870  17.780
 3611DPPE   C3A65191   8.500   7.710  17.870
 3611DPPE   C4A65192   8.130   7.450  17.790
 3611DPPE   C1B65193   8.690   8.310  17.190
 3611DPPE   C2B65194   8.420   7.910  17.400
 3611DPPE   C3B65195   8.360   7.550  17.370
 3611DPPE   C4B65196   8.480   7.170  17.430
 3612DPPE   NH365197  14.060   9.660  21.700
 3612DPPE   PO465198  14.120   9.840  22.090
 3612DPPE   GL165199  14.260   9.470  22.440
 3612DPPE   GL265200  14.230   9.680  22.740
 3612DPPE   C1A65201  14.220   9.090  22.730
 3612DPPE   C2A65202  14.020   8.660  22.670
 3612DPPE   C3A65203  13.760   8.280  22.490
 3612DPPE   C4A65204  13.400   8.020  22.550
 3612DPPE   C1B65205  13.960   9.440  22.950
 3612DPPE   C2B65206  13.710   9.570  23.220
 3612DPPE   C3B65207  13.380   9.600  23.650
 3612DPPE   C4B65208  13.530   9.490  24.010
 3613DPPE   NH365209   9.130  15.940  21.340
 3613DPPE   PO465210   8.730  15.690  21.370
 3613DPPE   GL165211   8.430  15.640  21.630
 3613DPPE   GL265212   8.590  15.600  21.970
 3613DPPE   C1A65213   8.070  15.350  21.680
 3613DPPE   C2A65214   7.670  15.410  21.810
 3613DPPE   C3A65215   7.290  15.350  21.980
 3613DPPE   C4A65216   6.960  14.990  22.050
 3613DPPE   C1B65217   8.190  15.500  22.090
 3613DPPE   C2B65218   8.090  15.080  22.230
 3613DPPE   C3B65219   7.850  14.920  22.640
 3613DPPE   C4B65220   7.590  14.760  22.890
 3614DPPE   NH365221  13.680   9.390  20.240
 3614DPPE   PO465222  13.320   9.300  20.470
 3614DPPE   GL165223  13.050   9.110  20.810
 3614DPPE   GL265224  12.840   8.760  20.680
 3614DPPE   C1A65225  12.900   8.830  21.210
 3614DPPE   C2A65226  12.780   8.480  21.480
 3614DPPE   C3A65227  12.750   8.200  21.840
 3614DPPE   C4A65228  12.670   7.870  22.170
 3614DPPE   C1B65229  12.760   8.440  20.950
 3614DPPE   C2B65230  12.390   8.350  21.230
 3614DPPE   C3B65231  12.260   8.250  21.530
 3614DPPE   C4B65232  12.270   7.870  21.800
 3615DPPE   NH365233  10.050   8.050  17.090
 3615DPPE   PO465234  10.200   8.330  17.470
 3615DPPE   GL165235  10.170   7.840  17.570
 3615DPPE   GL265236  10.340   7.650  17.330
 3615DPPE   C1A65237   9.870   7.650  17.710
 3615DPPE   C2A65238   9.680   7.230  17.570
 3615DPPE   C3A65239   9.740   6.990  17.290
 3615DPPE   C4A65240   9.940   6.960  16.870
 3615DPPE   C1B65241  10.080   7.470  17.280
 3615DPPE   C2B65242   9.730   7.470  17.120
 3615DPPE   C3B65243   9.390   7.660  16.910
 3615DPPE   C4B65244   8.910   7.450  16.780
 3616DPPE   NH365245  11.280  12.450  20.750
 3616DPPE   PO465246  11.020  12.780  20.630
 3616DPPE   GL165247  11.330  12.890  20.360
 3616DPPE   GL265248  11.480  12.650  20.320
 3616DPPE   C1A65249  11.580  13.220  20.180
 3616DPPE   C2A65250  11.860  13.240  19.850
 3616DPPE   C3A65251  12.160  13.530  19.550
 3616DPPE   C4A65252  12.100  14.000  19.490
 3616DPPE   C1B65253  11.800  12.680  20.070
 3616DPPE   C2B65254  12.220  12.810  19.790
 3616DPPE   C3B65255  12.470  13.130  19.540
 3616DPPE   C4B65256  12.590  13.540  19.310
 3617DPPE   NH365257   5.420  18.460  14.250
 3617DPPE   PO465258   5.390  18.740  13.830
 3617DPPE   GL165259   5.810  18.730  13.750
 3617DPPE   GL265260   5.930  18.500  13.510
 3617DPPE   C1A65261   6.200  19.070  13.740
 3617DPPE   C2A65262   6.670  19.090  13.480
 3617DPPE   C3A65263   7.060  19.060  13.260
 3617DPPE   C4A65264   7.480  18.910  13.230
 3617DPPE   C1B65265   5.870  18.820  13.170
 3617DPPE   C2B65266   5.810  18.900  12.700
 3617DPPE   C3B65267   5.840  18.610  12.400
 3617DPPE   C4B65268   5.620  18.240  12.270
 3618DPPE   NH365269   6.210  18.210  16.960
 3618DPPE   PO465270   5.930  18.360  17.120
 3618DPPE   GL165271   5.410  18.440  17.240
 3618DPPE   GL265272   5.060  18.440  16.970
 3618DPPE   C1A65273   4.970  18.620  17.480
 3618DPPE   C2A65274   4.600  18.850  17.600
 3618DPPE   C3A65275   4.470  19.190  17.800
 3618DPPE   C4A65276   4.120  19.380  18.080
 3618DPPE   C1B65277   4.630  18.530  17.120
 3618DPPE   C2B65278   4.270  18.640  17.240
 3618DPPE   C3B65279   3.840  18.440  17.310
 3618DPPE   C4B65280   3.480  18.490  17.380
 3619DPPE   NH365281   5.130  15.230  13.430
 3619DPPE   PO465282   4.770  15.550  13.730
 3619DPPE   GL165283   4.470  15.770  14.000
 3619DPPE   GL265284   4.270  15.560  14.280
 3619DPPE   C1A65285   4.090  15.940  13.840
 3619DPPE   C2A65286   3.700  15.880  13.810
 3619DPPE   C3A65287   3.500  15.770  13.500
 3619DPPE   C4A65288   3.370  15.360  13.370
 3619DPPE   C1B65289   3.930  15.410  14.380
 3619DPPE   C2B65290   3.540  15.150  14.440
 3619DPPE   C3B65291   3.530  14.740  14.280
 3619DPPE   C4B65292   3.720  14.520  14.000
 3620DPPE   NH365293  13.240  14.200  23.790
 3620DPPE   PO465294  13.240  13.830  23.500
 3620DPPE   GL165295  12.950  13.720  23.870
 3620DPPE   GL265296  13.190  13.670  24.130
 3620DPPE   C1A65297  12.680  13.650  24.220
 3620DPPE   C2A65298  12.410  13.580  24.560
 3620DPPE   C3A65299  12.220  13.700  24.960
 3620DPPE   C4A65300  11.870  13.620  25.230
 3620DPPE   C1B65301  13.070  13.480  24.550
 3620DPPE   C2B65302  13.010  13.360  24.960
 3620DPPE   C3B65303  12.930  13.120  25.340
 3620DPPE   C4B65304  12.790  12.900  25.650
 3621DPPE   NH365305   8.830  16.540  20.170
 3621DPPE   PO465306   8.950  16.070  20.220
 3621DPPE   GL165307   9.160  16.170  19.890
 3621DPPE   GL265308   9.070  16.270  19.660
 3621DPPE   C1A65309   9.560  16.100  19.770
 3621DPPE   C2A65310   9.860  15.850  20.050
 3621DPPE   C3A65311  10.190  15.590  19.980
 3621DPPE   C4A65312  10.620  15.630  19.920
 3621DPPE   C1B65313   9.350  16.480  19.380
 3621DPPE   C2B65314   9.670  16.610  19.040
 3621DPPE   C3B65315  10.040  16.870  18.910
 3621DPPE   C4B65316  10.220  17.250  19.070
 3622DPPE   NH365317  14.210  20.260  23.250
 3622DPPE   PO465318  14.060  20.690  23.290
 3622DPPE   GL165319  14.400  20.840  23.430
 3622DPPE   GL265320  14.590  20.880  23.810
 3622DPPE   C1A65321  14.860  20.770  23.400
 3622DPPE   C2A65322  15.260  20.580  23.460
 3622DPPE   C3A65323  15.570  20.180  23.550
 3622DPPE   C4A65324  15.970  19.970  23.510
 3622DPPE   C1B65325  14.970  20.550  23.920
 3622DPPE   C2B65326  15.380  20.380  23.990
 3622DPPE   C3B65327  15.740  20.190  24.020
 3622DPPE   C4B65328  16.230  20.060  23.940
 3623DPPE   NH365329   5.830  14.520  16.910
 3623DPPE   PO465330   5.660  14.360  16.420
 3623DPPE   GL165331   5.370  14.140  16.570
 3623DPPE   GL265332   5.150  14.410  16.480
 3623DPPE   C1A65333   4.890  14.030  16.850
 3623DPPE   C2A65334   4.450  13.980  17.100
 3623DPPE   C3A65335   4.040  14.020  16.980
 3623DPPE   C4A65336   3.510  14.060  16.940
 3623DPPE   C1B65337   4.720  14.550  16.600
 3623DPPE   C2B65338   4.290  14.460  16.790
 3623DPPE   C3B65339   4.070  14.700  17.190
 3623DPPE   C4B65340   3.970  15.070  17.280
 3624DPPE   NH365341  12.040  16.980  23.740
 3624DPPE   PO465342  11.720  17.160  23.540
 3624DPPE   GL165343  11.370  17.200  23.770
 3624DPPE   GL265344  11.150  16.960  23.920
 3624DPPE   C1A65345  11.310  17.270  24.240
 3624DPPE   C2A65346  11.410  17.210  24.610
 3624DPPE   C3A65347  11.390  17.310  24.980
 3624DPPE   C4A65348  11.230  17.070  25.400
 3624DPPE   C1B65349  10.940  17.000  24.310
 3624DPPE   C2B65350  10.600  16.860  24.580
 3624DPPE   C3B65351  10.300  17.040  24.910
 3624DPPE   C4B65352   9.930  17.310  24.960
 3625DPPE   NH365353   5.070  18.820  16.270
 3625DPPE   PO465354   5.020  18.810  15.920
 3625DPPE   GL165355   4.570  18.610  16.040
 3625DPPE   GL265356   4.450  18.780  15.860
 3625DPPE   C1A65357   4.330  18.320  16.230
 3625DPPE   C2A65358   3.960  18.140  16.460
 3625DPPE   C3A65359   3.820  17.720  16.360
 3625DPPE   C4A65360   3.460  17.520  16.470
 3625DPPE   C1B65361   4.110  18.700  15.890
 3625DPPE   C2B65362   3.910  18.670  16.160
 3625DPPE   C3B65363   3.610  18.530  16.400
 3625DPPE   C4B65364   3.190  18.480  16.660
 3626DPPE   NH365365   8.750  10.170  17.220
 3626DPPE   PO465366   8.510   9.800  17.050
 3626DPPE   GL165367   8.260   9.500  17.240
 3626DPPE   GL265368   8.530   9.450  17.430
 3626DPPE   C1A65369   7.800   9.460  17.360
 3626DPPE   C2A65370   7.400   9.140  17.290
 3626DPPE   C3A65371   6.940   8.990  17.400
 3626DPPE   C4A65372   6.460   9.130  17.330
 3626DPPE   C1B65373   8.220   9.320  17.720
 3626DPPE   C2B65374   8.090   9.440  18.050
 3626DPPE   C3B65375   7.800   9.400  18.520
 3626DPPE   C4B65376   7.510   9.150  18.730
 3627DPPE   NH365377   6.000  13.200  14.780
 3627DPPE   PO465378   6.370  13.020  14.720
 3627DPPE   GL165379   6.690  13.280  14.620
 3627DPPE   GL265380   6.810  13.530  14.890
 3627DPPE   C1A65381   7.110  13.320  14.360
 3627DPPE   C2A65382   7.260  13.430  14.020
 3627DPPE   C3A65383   7.540  13.630  13.590
 3627DPPE   C4A65384   7.930  13.740  13.650
 3627DPPE   C1B65385   7.180  13.510  14.820
 3627DPPE   C2B65386   7.520  13.540  14.500
 3627DPPE   C3B65387   7.910  13.490  14.320
 3627DPPE   C4B65388   8.330  13.630  14.310
 3628DPPE   NH365389   6.870  14.200  17.690
 3628DPPE   PO465390   6.590  13.880  17.560
 3628DPPE   GL165391   6.150  13.730  17.620
 3628DPPE   GL265392   5.960  13.750  17.300
 3628DPPE   C1A65393   5.740  13.780  17.900
 3628DPPE   C2A65394   5.520  14.010  18.190
 3628DPPE   C3A65395   5.060  14.080  18.240
 3628DPPE   C4A65396   4.600  14.160  18.270
 3628DPPE   C1B65397   5.610  13.640  17.370
 3628DPPE   C2B65398   5.250  13.670  17.530
 3628DPPE   C3B65399   5.000  13.730  17.840
 3628DPPE   C4B65400   4.720  13.670  18.050
 3629DPPE   NH365401  13.830  14.540  24.070
 3629DPPE   PO465402  13.740  14.060  24.180
 3629DPPE   GL165403  13.520  13.850  24.500
 3629DPPE   GL265404  13.730  13.820  24.770
 3629DPPE   C1A65405  13.320  13.780  24.960
 3629DPPE   C2A65406  13.250  13.550  25.340
 3629DPPE   C3A65407  13.240  13.380  25.770
 3629DPPE   C4A65408  12.920  13.190  26.020
 3629DPPE   C1B65409  13.870  14.090  25.080
 3629DPPE   C2B65410  14.020  14.190  25.460
 3629DPPE   C3B65411  14.060  14.240  25.890
 3629DPPE   C4B65412  14.340  14.260  26.180
 3630DPPE   NH365413  12.540  16.880  23.100
 3630DPPE   PO465414  12.530  17.360  23.000
 3630DPPE   GL165415  12.930  17.390  22.770
 3630DPPE   GL265416  13.030  17.100  22.940
 3630DPPE   C1A65417  13.180  17.240  22.270
 3630DPPE   C2A65418  13.110  17.070  21.800
 3630DPPE   C3A65419  13.390  17.040  21.440
 3630DPPE   C4A65420  13.500  16.830  21.040
 3630DPPE   C1B65421  12.890  16.920  22.530
 3630DPPE   C2B65422  12.960  16.740  22.170
 3630DPPE   C3B65423  13.290  16.600  21.880
 3630DPPE   C4B65424  13.250  16.280  21.710
 3631DPPE   NH365425  10.080  10.170  17.610
 3631DPPE   PO465426   9.780  10.540  17.630
 3631DPPE   GL165427  10.160  10.730  17.830
 3631DPPE   GL265428  10.250  11.070  18.000
 3631DPPE   C1A65429  10.600  10.860  17.740
 3631DPPE   C2A65430  10.900  11.200  17.610
 3631DPPE   C3A65431  11.160  11.490  17.590
 3631DPPE   C4A65432  11.580  11.800  17.660
 3631DPPE   C1B65433  10.430  11.480  17.750
 3631DPPE   C2B65434  10.680  11.790  17.640
 3631DPPE   C3B65435  11.050  12.010  17.330
 3631DPPE   C4B65436  11.140  12.380  17.230
 3632DPPE   NH365437   5.080  19.730  15.810
 3632DPPE   PO465438   5.260  19.550  15.530
 3632DPPE   GL165439   4.780  19.710  15.330
 3632DPPE   GL265440   4.650  19.850  15.590
 3632DPPE   C1A65441   4.440  19.810  15.150
 3632DPPE   C2A65442   3.940  19.920  15.030
 3632DPPE   C3A65443   3.550  19.900  14.800
 3632DPPE   C4A65444   3.420  19.820  14.320
 3632DPPE   C1B65445   4.040  19.780  15.580
 3632DPPE   C2B65446   3.630  19.680  15.400
 3632DPPE   C3B65447   3.230  19.670  15.120
 3632DPPE   C4B65448   3.010  19.370  14.950
 3633DPPE   NH365449  15.340  15.860  23.820
 3633DPPE   PO465450  15.200  16.200  23.680
 3633DPPE   GL165451  15.600  16.320  23.670
 3633DPPE   GL265452  15.740  16.150  23.940
 3633DPPE   C1A65453  15.880  16.650  23.590
 3633DPPE   C2A65454  16.010  16.920  23.280
 3633DPPE   C3A65455  15.980  17.310  23.030
 3633DPPE   C4A65456  15.720  17.570  22.690
 3633DPPE   C1B65457  16.130  16.130  23.760
 3633DPPE   C2B65458  16.480  16.000  23.570
 3633DPPE   C3B65459  16.730  16.160  23.290
 3633DPPE   C4B65460  16.920  16.560  23.090
 3634DPPE   NH365461   6.390  13.360  13.640
 3634DPPE   PO465462   6.240  13.020  13.340
 3634DPPE   GL165463   6.550  13.010  13.220
 3634DPPE   GL265464   6.590  12.960  12.900
 3634DPPE   C1A65465   6.980  12.970  13.110
 3634DPPE   C2A65466   7.100  13.240  12.890
 3634DPPE   C3A65467   7.370  13.570  12.610
 3634DPPE   C4A65468   7.550  13.800  12.320
 3634DPPE   C1B65469   6.770  13.000  12.530
 3634DPPE   C2B65470   6.690  12.980  12.100
 3634DPPE   C3B65471   6.830  12.820  11.720
 3634DPPE   C4B65472   7.120  12.820  11.410
 3635DPPE   NH365473   6.500  16.190  16.810
 3635DPPE   PO465474   6.470  16.070  16.310
 3635DPPE   GL165475   6.870  16.220  16.390
 3635DPPE   GL265476   6.970  16.040  16.650
 3635DPPE   C1A65477   7.330  16.010  16.370
 3635DPPE   C2A65478   7.790  15.960  16.290
 3635DPPE   C3A65479   8.160  16.050  16.020
 3635DPPE   C4A65480   8.550  16.270  15.980
 3635DPPE   C1B65481   7.330  16.030  16.930
 3635DPPE   C2B65482   7.720  16.150  17.100
 3635DPPE   C3B65483   7.980  16.470  17.140
 3635DPPE   C4B65484   8.410  16.580  17.030
 3636DPPE   NH365485   4.830  18.900  14.320
 3636DPPE   PO465486   4.930  18.540  14.110
 3636DPPE   GL165487   4.590  18.710  13.900
 3636DPPE   GL265488   4.610  19.170  13.950
 3636DPPE   C1A65489   4.130  18.680  13.760
 3636DPPE   C2A65490   3.820  18.920  14.070
 3636DPPE   C3A65491   3.570  18.630  14.310
 3636DPPE   C4A65492   3.230  18.340  14.500
 3636DPPE   C1B65493   4.380  19.070  13.510
 3636DPPE   C2B65494   4.570  18.800  13.210
 3636DPPE   C3B65495   4.840  18.530  13.000
 3636DPPE   C4B65496   4.960  18.130  12.870
 3637DPPE   NH365497  11.700   9.870  18.820
 3637DPPE   PO465498  11.940   9.510  18.720
 3637DPPE   GL165499  12.080   9.770  18.460
 3637DPPE   GL265500  12.130   9.980  18.520
 3637DPPE   C1A65501  12.310   9.820  18.050
 3637DPPE   C2A65502  12.570   9.750  17.780
 3637DPPE   C3A65503  12.700  10.120  17.440
 3637DPPE   C4A65504  12.630  10.520  17.270
 3637DPPE   C1B65505  12.460  10.260  18.300
 3637DPPE   C2B65506  12.900  10.200  18.040
 3637DPPE   C3B65507  13.120  10.270  17.720
 3637DPPE   C4B65508  13.160  10.040  17.240
 3638DPPE   NH365509  13.190  20.880  23.310
 3638DPPE   PO465510  13.250  21.240  23.270
 3638DPPE   GL165511  13.510  21.330  23.650
 3638DPPE   GL265512  13.790  21.460  23.550
 3638DPPE   C1A65513  13.450  21.490  24.010
 3638DPPE   C2A65514  13.440  21.300  24.370
 3638DPPE   C3A65515  13.410  21.190  24.720
 3638DPPE   C4A65516  13.380  21.210  25.170
 3638DPPE   C1B65517  14.190  21.440  23.480
 3638DPPE   C2B65518  14.570  21.500  23.320
 3638DPPE   C3B65519  14.900  21.300  23.080
 3638DPPE   C4B65520  15.200  21.250  22.820
 3639DPPE   NH365521  12.340  19.590  22.620
 3639DPPE   PO465522  12.370  19.140  22.690
 3639DPPE   GL165523  12.400  18.960  22.220
 3639DPPE   GL265524  12.660  18.740  22.300
 3639DPPE   C1A65525  12.440  18.850  21.830
 3639DPPE   C2A65526  12.320  18.370  21.600
 3639DPPE   C3A65527  12.420  18.070  21.380
 3639DPPE   C4A65528  12.700  17.840  21.210
 3639DPPE   C1B65529  12.730  18.470  21.960
 3639DPPE   C2B65530  12.820  18.300  21.550
 3639DPPE   C3B65531  13.130  18.150  21.320
 3639DPPE   C4B65532  13.210  17.820  21.160
 3640DPPE   NH365533   8.190  20.900  19.150
 3640DPPE   PO465534   8.420  21.230  19.150
 3640DPPE   GL165535   8.790  21.100  18.990
 3640DPPE   GL265536   9.080  21.110  19.220
 3640DPPE   C1A65537   8.960  21.150  18.530
 3640DPPE   C2A65538   8.920  21.070  18.030
 3640DPPE   C3A65539   9.100  21.150  17.590
 3640DPPE   C4A65540   9.150  21.400  17.370
 3640DPPE   C1B65541   9.290  20.800  18.990
 3640DPPE   C2B65542   9.630  20.610  18.670
 3640DPPE   C3B65543   9.930  20.540  18.350
 3640DPPE   C4B65544  10.330  20.640  18.130
 3641DPPE   NH365545   6.450  19.610  19.710
 3641DPPE   PO465546   6.370  19.500  19.260
 3641DPPE   GL165547   6.040  19.390  19.590
 3641DPPE   GL265548   6.010  19.590  19.900
 3641DPPE   C1A65549   5.620  19.260  19.750
 3641DPPE   C2A65550   5.180  19.230  19.920
 3641DPPE   C3A65551   5.220  19.040  20.320
 3641DPPE   C4A65552   4.960  18.760  20.570
 3641DPPE   C1B65553   5.670  19.500  20.180
 3641DPPE   C2B65554   5.230  19.510  20.330
 3641DPPE   C3B65555   4.930  19.530  20.700
 3641DPPE   C4B65556   4.900  19.480  21.170
 3642DPPE   NH365557   9.680  23.510  19.920
 3642DPPE   PO465558   9.560  23.250  20.260
 3642DPPE   GL165559   9.460  23.610  20.370
 3642DPPE   GL265560   9.200  23.710  20.270
 3642DPPE   C1A65561   9.660  23.980  20.310
 3642DPPE   C2A65562  10.020  24.330  20.310
 3642DPPE   C3A65563  10.330  24.470  20.540
 3642DPPE   C4A65564  10.510  24.290  20.860
 3642DPPE   C1B65565   9.190  24.100  20.140
 3642DPPE   C2B65566   9.200  24.360  19.660
 3642DPPE   C3B65567   9.060  24.640  19.450
 3642DPPE   C4B65568   8.970  24.660  18.930
 3643DPPE   NH365569  11.760  22.620  22.040
 3643DPPE   PO465570  11.970  22.970  21.810
 3643DPPE   GL165571  12.400  23.080  21.720
 3643DPPE   GL265572  12.620  23.270  22.000
 3643DPPE   C1A65573  12.770  23.250  21.560
 3643DPPE   C2A65574  12.790  23.680  21.330
 3643DPPE   C3A65575  12.960  23.990  20.960
 3643DPPE   C4A65576  13.170  23.930  20.530
 3643DPPE   C1B65577  13.040  23.540  22.120
 3643DPPE   C2B65578  13.390  23.850  21.990
 3643DPPE   C3B65579  13.610  23.960  21.660
 3643DPPE   C4B65580  13.970  23.980  21.490
 3644DPPE   NH365581  11.210  12.950  21.450
 3644DPPE   PO465582  11.500  12.800  21.280
 3644DPPE   GL165583  11.420  13.000  20.920
 3644DPPE   GL265584  11.240  13.200  20.950
 3644DPPE   C1A65585  11.650  13.140  20.670
 3644DPPE   C2A65586  11.970  13.330  20.490
 3644DPPE   C3A65587  12.450  13.290  20.540
 3644DPPE   C4A65588  12.900  13.290  20.430
 3644DPPE   C1B65589  11.230  13.460  20.560
 3644DPPE   C2B65590  11.210  13.700  20.220
 3644DPPE   C3B65591  11.470  14.030  19.940
 3644DPPE   C4B65592  11.930  14.300  19.870
 3645DPPE   NH365593   5.620  18.430  16.770
 3645DPPE   PO465594   5.340  18.530  16.540
 3645DPPE   GL165595   4.830  18.390  16.550
 3645DPPE   GL265596   4.700  18.600  16.560
 3645DPPE   C1A65597   4.420  18.250  16.710
 3645DPPE   C2A65598   4.190  18.180  17.070
 3645DPPE   C3A65599   3.980  17.990  17.310
 3645DPPE   C4A65600   3.470  17.880  17.450
 3645DPPE   C1B65601   4.360  18.730  16.750
 3645DPPE   C2B65602   3.990  18.550  16.710
 3645DPPE   C3B65603   3.700  18.330  16.860
 3645DPPE   C4B65604   3.480  18.030  16.690
 3646DPPE   NH365605   6.400  16.580  16.400
 3646DPPE   PO465606   6.470  16.720  16.820
 3646DPPE   GL165607   6.870  16.840  16.670
 3646DPPE   GL265608   7.130  17.050  16.640
 3646DPPE   C1A65609   7.070  16.740  16.240
 3646DPPE   C2A65610   7.410  16.930  16.000
 3646DPPE   C3A65611   7.630  16.690  15.720
 3646DPPE   C4A65612   7.430  16.370  15.450
 3646DPPE   C1B65613   7.300  17.390  16.510
 3646DPPE   C2B65614   7.170  17.580  16.130
 3646DPPE   C3B65615   7.290  17.930  15.880
 3646DPPE   C4B65616   7.160  18.200  15.740
 3647DPPE   NH365617   5.090  13.990  13.410
 3647DPPE   PO465618   5.420  14.250  13.150
 3647DPPE   GL165619   5.130  14.250  12.940
 3647DPPE   GL265620   4.800  14.160  13.020
 3647DPPE   C1A65621   4.930  14.370  12.600
 3647DPPE   C2A65622   4.930  14.220  12.190
 3647DPPE   C3A65623   5.360  14.130  11.930
 3647DPPE   C4A65624   5.670  13.990  11.930
 3647DPPE   C1B65625   4.560  14.120  12.650
 3647DPPE   C2B65626   4.250  13.820  12.450
 3647DPPE   C3B65627   4.320  13.650  12.020
 3647DPPE   C4B65628   4.240  13.250  11.800
 3648DPPE   NH365629  10.230  21.720  20.470
 3648DPPE   PO465630   9.790  21.780  20.230
 3648DPPE   GL165631  10.080  21.910  19.930
 3648DPPE   GL265632  10.350  22.180  19.950
 3648DPPE   C1A65633  10.270  21.750  19.510
 3648DPPE   C2A65634  10.450  21.650  19.310
 3648DPPE   C3A65635  10.430  21.710  18.870
 3648DPPE   C4A65636  10.200  21.600  18.640
 3648DPPE   C1B65637  10.660  22.180  19.600
 3648DPPE   C2B65638  11.060  22.080  19.280
 3648DPPE   C3B65639  11.510  22.210  19.200
 3648DPPE   C4B65640  11.940  22.270  19.090
 3649DPPE   NH365641   7.400  21.480  17.670
 3649DPPE   PO465642   7.620  21.820  17.480
 3649DPPE   GL165643   7.960  21.970  17.190
 3649DPPE   GL265644   8.080  22.200  17.300
 3649DPPE   C1A65645   8.280  21.930  16.850
 3649DPPE   C2A65646   8.640  21.930  16.520
 3649DPPE   C3A65647   8.910  21.840  16.220
 3649DPPE   C4A65648   9.340  21.870  15.820
 3649DPPE   C1B65649   8.100  22.390  16.850
 3649DPPE   C2B65650   8.510  22.450  16.710
 3649DPPE   C3B65651   8.750  22.360  16.290
 3649DPPE   C4B65652   9.130  22.300  16.200
 3650DPPE   NH365653   8.560  10.610  15.420
 3650DPPE   PO465654   8.880  10.750  15.660
 3650DPPE   GL165655   9.140  10.970  15.550
 3650DPPE   GL265656   9.340  10.840  15.460
 3650DPPE   C1A65657   9.380  11.310  15.440
 3650DPPE   C2A65658   9.780  11.340  15.320
 3650DPPE   C3A65659  10.270  11.470  15.390
 3650DPPE   C4A65660  10.320  11.850  15.420
 3650DPPE   C1B65661   9.630  10.860  15.140
 3650DPPE   C2B65662   9.930  10.800  14.890
 3650DPPE   C3B65663  10.180  10.540  15.020
 3650DPPE   C4B65664  10.480  10.510  15.400
 3651DPPE   NH365665   6.800  12.220  15.110
 3651DPPE   PO465666   6.630  11.910  15.400
 3651DPPE   GL165667   6.330  11.530  15.350
 3651DPPE   GL265668   6.140  11.820  15.470
 3651DPPE   C1A65669   6.030  11.080  15.360
 3651DPPE   C2A65670   5.680  10.940  15.510
 3651DPPE   C3A65671   5.420  10.760  15.700
 3651DPPE   C4A65672   5.110  10.430  15.950
 3651DPPE   C1B65673   5.960  11.530  15.860
 3651DPPE   C2B65674   5.700  11.200  15.990
 3651DPPE   C3B65675   5.300  11.160  16.000
 3651DPPE   C4B65676   4.960  10.960  15.930
 3652DPPE   NH365677   5.830  13.810  13.030
 3652DPPE   PO465678   5.470  13.820  12.890
 3652DPPE   GL165679   5.070  13.700  12.810
 3652DPPE   GL265680   5.120  13.860  12.480
 3652DPPE   C1A65681   4.570  13.610  12.800
 3652DPPE   C2A65682   4.170  13.460  12.990
 3652DPPE   C3A65683   3.940  13.430  13.390
 3652DPPE   C4A65684   3.660  13.650  13.700
 3652DPPE   C1B65685   4.740  13.720  12.290
 3652DPPE   C2B65686   4.670  13.290  12.170
 3652DPPE   C3B65687   4.650  12.860  12.330
 3652DPPE   C4B65688   4.860  12.540  12.270
 3653DPPE   NH365689  12.480  15.700  23.210
 3653DPPE   PO465690  12.560  15.990  23.640
 3653DPPE   GL165691  12.420  16.110  23.990
 3653DPPE   GL265692  12.650  16.150  24.250
 3653DPPE   C1A65693  12.030  16.080  24.250
 3653DPPE   C2A65694  11.970  16.000  24.710
 3653DPPE   C3A65695  11.850  15.850  25.110
 3653DPPE   C4A65696  11.440  15.850  25.270
 3653DPPE   C1B65697  12.520  16.410  24.690
 3653DPPE   C2B65698  12.610  16.550  25.050
 3653DPPE   C3B65699  12.560  16.570  25.560
 3653DPPE   C4B65700  12.530  16.780  25.890
 3654DPPE   NH365701  10.040  11.180  19.260
 3654DPPE   PO465702   9.700  11.400  19.550
 3654DPPE   GL165703   9.440  11.260  19.840
 3654DPPE   GL265704   9.290  11.440  20.030
 3654DPPE   C1A65705   9.350  10.900  19.960
 3654DPPE   C2A65706   9.150  10.720  20.230
 3654DPPE   C3A65707   9.000  10.460  20.500
 3654DPPE   C4A65708   8.680  10.180  20.520
 3654DPPE   C1B65709   9.370  11.140  20.390
 3654DPPE   C2B65710   9.330  11.110  20.840
 3654DPPE   C3B65711   9.030  11.250  21.110
 3654DPPE   C4B65712   9.020  10.980  21.470
 3655DPPE   NH365713  14.960  10.580  20.270
 3655DPPE   PO465714  15.150  10.230  20.580
 3655DPPE   GL165715  15.580  10.080  20.440
 3655DPPE   GL265716  15.500  10.040  20.210
 3655DPPE   C1A65717  15.990   9.830  20.270
 3655DPPE   C2A65718  16.400   9.980  20.430
 3655DPPE   C3A65719  16.710   9.960  20.610
 3655DPPE   C4A65720  17.090   9.670  20.500
 3655DPPE   C1B65721  15.840  10.190  19.960
 3655DPPE   C2B65722  16.310  10.420  20.110
 3655DPPE   C3B65723  16.650  10.400  20.330
 3655DPPE   C4B65724  17.060  10.470  20.300
 3656DPPE   NH365725   9.630  17.540  22.440
 3656DPPE   PO465726   9.380  17.560  22.130
 3656DPPE   GL165727   8.920  17.340  22.260
 3656DPPE   GL265728   8.820  17.010  22.140
 3656DPPE   C1A65729   8.680  17.560  22.580
 3656DPPE   C2A65730   8.330  17.530  22.830
 3656DPPE   C3A65731   8.000  17.390  23.140
 3656DPPE   C4A65732   7.790  17.470  23.490
 3656DPPE   C1B65733   8.510  17.010  22.410
 3656DPPE   C2B65734   8.210  16.940  22.780
 3656DPPE   C3B65735   7.710  16.960  22.890
 3656DPPE   C4B65736   7.330  16.990  23.020
 3657DPPE   NH365737   6.130  12.930  15.270
 3657DPPE   PO465738   5.830  13.030  15.500
 3657DPPE   GL165739   5.460  13.080  15.770
 3657DPPE   GL265740   5.430  12.940  16.080
 3657DPPE   C1A65741   5.040  12.990  15.800
 3657DPPE   C2A65742   4.630  12.870  16.000
 3657DPPE   C3A65743   4.180  12.850  16.000
 3657DPPE   C4A65744   3.780  12.920  16.080
 3657DPPE   C1B65745   5.130  12.600  16.270
 3657DPPE   C2B65746   4.760  12.430  16.330
 3657DPPE   C3B65747   4.370  12.550  16.400
 3657DPPE   C4B65748   4.160  12.330  16.620
 3658DPPE   NH365749  13.230  18.210  24.310
 3658DPPE   PO465750  12.940  18.470  23.930
 3658DPPE   GL165751  13.070  18.720  24.330
 3658DPPE   GL265752  13.200  19.050  24.270
 3658DPPE   C1A65753  12.950  18.770  24.720
 3658DPPE   C2A65754  12.820  18.800  25.120
 3658DPPE   C3A65755  12.910  18.590  25.360
 3658DPPE   C4A65756  12.930  18.520  25.800
 3658DPPE   C1B65757  13.400  19.230  24.610
 3658DPPE   C2B65758  13.450  19.580  24.770
 3658DPPE   C3B65759  13.600  19.780  25.240
 3658DPPE   C4B65760  13.650  19.860  25.570
 3659DPPE   NH365761   6.660  21.420  18.540
 3659DPPE   PO465762   6.440  21.130  18.780
 3659DPPE   GL165763   6.010  20.940  18.990
 3659DPPE   GL265764   6.170  21.080  19.210
 3659DPPE   C1A65765   5.640  20.790  19.250
 3659DPPE   C2A65766   5.640  20.570  19.620
 3659DPPE   C3A65767   5.430  20.210  19.600
 3659DPPE   C4A65768   4.980  20.180  19.650
 3659DPPE   C1B65769   5.720  21.260  19.370
 3659DPPE   C2B65770   5.390  21.050  19.540
 3659DPPE   C3B65771   4.890  21.210  19.600
 3659DPPE   C4B65772   4.530  21.450  19.410
 3660DPPE   NH365773   8.530   9.960  17.570
 3660DPPE   PO465774   8.950   9.810  17.530
 3660DPPE   GL165775   8.860   9.620  17.930
 3660DPPE   GL265776   8.820   9.370  17.840
 3660DPPE   C1A65777   8.540   9.680  18.210
 3660DPPE   C2A65778   8.320   9.340  18.460
 3660DPPE   C3A65779   8.050   8.950  18.660
 3660DPPE   C4A65780   7.780   8.560  18.620
 3660DPPE   C1B65781   8.520   9.110  18.050
 3660DPPE   C2B65782   8.050   8.900  18.170
 3660DPPE   C3B65783   7.540   9.000  18.250
 3660DPPE   C4B65784   7.280   8.960  17.870
 3661DPPE   NH365785  10.610  17.800  23.240
 3661DPPE   PO465786  10.580  17.350  23.070
 3661DPPE   GL165787  10.540  16.990  23.430
 3661DPPE   GL265788  10.370  16.800  23.440
 3661DPPE   C1A65789  10.630  17.070  23.880
 3661DPPE   C2A65790  10.520  17.290  24.310
 3661DPPE   C3A65791  10.290  17.510  24.670
 3661DPPE   C4A65792  10.350  17.580  25.080
 3661DPPE   C1B65793  10.250  16.770  23.810
 3661DPPE   C2B65794   9.910  16.770  24.070
 3661DPPE   C3B65795   9.590  16.560  24.430
 3661DPPE   C4B65796   9.360  16.630  24.870
 3662DPPE   NH365797   8.530  23.200  19.500
 3662DPPE   PO465798   8.700  23.060  19.830
 3662DPPE   GL165799   8.450  23.360  20.060
 3662DPPE   GL265800   8.340  23.610  19.790
 3662DPPE   C1A65801   8.320  23.660  20.330
 3662DPPE   C2A65802   8.430  23.780  20.870
 3662DPPE   C3A65803   8.540  24.150  21.010
 3662DPPE   C4A65804   8.470  24.560  21.210
 3662DPPE   C1B65805   8.300  24.050  19.830
 3662DPPE   C2B65806   8.260  24.360  19.990
 3662DPPE   C3B65807   8.600  24.600  20.170
 3662DPPE   C4B65808   8.520  24.900  20.580
 3663DPPE   NH365809   5.970  19.650  16.260
 3663DPPE   PO465810   6.040  19.290  15.950
 3663DPPE   GL165811   6.480  19.020  15.840
 3663DPPE   GL265812   6.570  18.800  15.670
 3663DPPE   C1A65813   6.890  18.910  16.140
 3663DPPE   C2A65814   7.320  18.790  15.870
 3663DPPE   C3A65815   7.430  18.560  15.550
 3663DPPE   C4A65816   7.690  18.350  15.250
 3663DPPE   C1B65817   6.880  19.140  15.470
 3663DPPE   C2B65818   7.000  19.420  15.180
 3663DPPE   C3B65819   7.410  19.640  15.160
 3663DPPE   C4B65820   7.740  19.910  15.050
 3664DPPE   NH365821   9.750  15.250  22.200
 3664DPPE   PO465822   9.380  15.500  22.090
 3664DPPE   GL165823   9.020  15.400  22.310
 3664DPPE   GL265824   8.890  15.760  22.340
 3664DPPE   C1A65825   8.950  15.180  22.720
 3664DPPE   C2A65826   8.700  15.210  23.050
 3664DPPE   C3A65827   8.560  15.270  23.450
 3664DPPE   C4A65828   8.550  15.640  23.790
 3664DPPE   C1B65829   8.520  15.410  22.480
 3664DPPE   C2B65830   8.120  15.430  22.650
 3664DPPE   C3B65831   7.820  15.250  23.020
 3664DPPE   C4B65832   7.370  15.310  22.980
 3665DPPE   NH365833  12.720   7.990  19.090
 3665DPPE   PO465834  12.620   7.800  18.750
 3665DPPE   GL165835  12.840   7.520  19.050
 3665DPPE   GL265836  13.190   7.510  19.150
 3665DPPE   C1A65837  12.790   7.190  19.250
 3665DPPE   C2A65838  12.780   6.750  19.210
 3665DPPE   C3A65839  12.680   6.430  19.260
 3665DPPE   C4A65840  12.570   6.160  19.030
 3665DPPE   C1B65841  13.570   7.290  19.060
 3665DPPE   C2B65842  13.720   6.870  18.900
 3665DPPE   C3B65843  13.580   6.480  19.090
 3665DPPE   C4B65844  13.320   6.100  19.280
 3666DPPE   NH365845  11.810   8.130  18.380
 3666DPPE   PO465846  12.170   7.860  18.560
 3666DPPE   GL165847  12.170   7.660  18.930
 3666DPPE   GL265848  11.880   7.770  18.990
 3666DPPE   C1A65849  12.230   7.300  19.150
 3666DPPE   C2A65850  12.170   6.950  19.290
 3666DPPE   C3A65851  12.150   6.440  19.340
 3666DPPE   C4A65852  12.000   6.110  19.130
 3666DPPE   C1B65853  11.670   7.550  19.200
 3666DPPE   C2B65854  11.770   7.310  19.640
 3666DPPE   C3B65855  12.050   7.170  19.930
 3666DPPE   C4B65856  12.210   7.380  20.300
 3667DPPE   NH365857   7.070  22.000  18.880
 3667DPPE   PO465858   7.070  22.200  19.370
 3667DPPE   GL165859   6.880  22.710  19.520
 3667DPPE   GL265860   7.000  22.980  19.370
 3667DPPE   C1A65861   6.550  22.960  19.820
 3667DPPE   C2A65862   6.220  23.160  20.020
 3667DPPE   C3A65863   6.010  23.440  19.990
 3667DPPE   C4A65864   5.840  23.520  19.610
 3667DPPE   C1B65865   6.770  23.310  19.320
 3667DPPE   C2B65866   6.720  23.790  19.430
 3667DPPE   C3B65867   6.710  23.920  19.870
 3667DPPE   C4B65868   6.990  23.910  20.110
 3668DPPE   NH365869   6.510  13.930  15.010
 3668DPPE   PO465870   6.300  14.310  14.920
 3668DPPE   GL165871   6.710  14.400  14.810
 3668DPPE   GL265872   6.840  14.300  14.500
 3668DPPE   C1A65873   7.190  14.500  14.880
 3668DPPE   C2A65874   7.530  14.610  14.740
 3668DPPE   C3A65875   7.910  14.790  14.720
 3668DPPE   C4A65876   8.360  14.770  14.720
 3668DPPE   C1B65877   6.960  14.280  14.150
 3668DPPE   C2B65878   7.280  14.350  13.910
 3668DPPE   C3B65879   7.620  14.160  13.740
 3668DPPE   C4B65880   7.780  14.030  13.280
 3669DPPE   NH365881   7.640  17.230  19.190
 3669DPPE   PO465882   7.900  17.160  19.460
 3669DPPE   GL165883   8.060  16.930  19.160
 3669DPPE   GL265884   7.900  16.530  19.070
 3669DPPE   C1A65885   8.380  16.750  18.850
 3669DPPE   C2A65886   8.650  16.600  18.620
 3669DPPE   C3A65887   9.070  16.540  18.330
 3669DPPE   C4A65888   9.430  16.420  18.110
 3669DPPE   C1B65889   8.210  16.220  19.070
 3669DPPE   C2B65890   8.630  15.990  18.880
 3669DPPE   C3B65891   8.560  15.700  18.670
 3669DPPE   C4B65892   8.380  15.320  18.560
 3670DPPE   NH365893  14.720  16.020  23.520
 3670DPPE   PO465894  14.900  15.560  23.570
 3670DPPE   GL165895  15.140  15.900  23.320
 3670DPPE   GL265896  15.080  15.960  22.980
 3670DPPE   C1A65897  15.530  16.030  23.110
 3670DPPE   C2A65898  15.720  16.490  23.080
 3670DPPE   C3A65899  16.170  16.570  22.930
 3670DPPE   C4A65900  16.510  16.500  22.640
 3670DPPE   C1B65901  15.250  16.080  22.630
 3670DPPE   C2B65902  15.440  15.990  22.260
 3670DPPE   C3B65903  15.750  16.270  22.090
 3670DPPE   C4B65904  16.120  16.480  21.900
 3671DPPE   NH365905  14.010  11.160  22.240
 3671DPPE   PO465906  13.950  11.150  22.640
 3671DPPE   GL165907  13.870  11.080  23.090
 3671DPPE   GL265908  13.890  11.120  23.280
 3671DPPE   C1A65909  13.950  10.620  23.170
 3671DPPE   C2A65910  13.970  10.370  23.600
 3671DPPE   C3A65911  14.110  10.130  24.010
 3671DPPE   C4A65912  13.930  10.100  24.360
 3671DPPE   C1B65913  13.880  10.910  23.640
 3671DPPE   C2B65914  13.960  10.760  24.030
 3671DPPE   C3B65915  13.680  10.450  24.090
 3671DPPE   C4B65916  13.440   9.990  24.140
 3672DPPE   NH365917   5.590  16.910  17.080
 3672DPPE   PO465918   5.510  16.680  17.480
 3672DPPE   GL165919   5.150  16.510  17.650
 3672DPPE   GL265920   5.270  16.480  18.000
 3672DPPE   C1A65921   4.850  16.300  17.690
 3672DPPE   C2A65922   4.610  15.940  17.750
 3672DPPE   C3A65923   4.230  15.740  17.990
 3672DPPE   C4A65924   3.910  15.470  18.070
 3672DPPE   C1B65925   4.920  16.470  18.210
 3672DPPE   C2B65926   4.480  16.270  18.120
 3672DPPE   C3B65927   4.020  16.220  18.170
 3672DPPE   C4B65928   3.760  15.940  17.940
 3673DPPE   NH365929   9.930  12.440  20.990
 3673DPPE   PO465930   9.620  12.370  20.740
 3673DPPE   GL165931   9.340  12.490  21.000
 3673DPPE   GL265932   9.200  12.240  21.290
 3673DPPE   C1A65933   8.860  12.650  21.250
 3673DPPE   C2A65934   8.440  12.400  21.340
 3673DPPE   C3A65935   8.050  12.250  21.470
 3673DPPE   C4A65936   7.800  12.250  21.770
 3673DPPE   C1B65937   8.820  12.070  21.370
 3673DPPE   C2B65938   8.540  12.020  21.660
 3673DPPE   C3B65939   8.170  11.810  21.680
 3673DPPE   C4B65940   7.750  11.750  21.930
 3674DPPE   NH365941  11.870  20.920  22.080
 3674DPPE   PO465942  12.160  20.580  21.950
 3674DPPE   GL165943  12.380  20.570  21.570
 3674DPPE   GL265944  12.480  20.200  21.690
 3674DPPE   C1A65945  12.600  20.540  21.240
 3674DPPE   C2A65946  12.820  20.350  20.920
 3674DPPE   C3A65947  12.980  19.950  20.670
 3674DPPE   C4A65948  12.870  19.430  20.610
 3674DPPE   C1B65949  12.750  20.070  21.390
 3674DPPE   C2B65950  13.230  20.020  21.080
 3674DPPE   C3B65951  13.490  19.950  20.820
 3674DPPE   C4B65952  13.750  20.190  20.530
 3675DPPE   NH365953  15.540  10.390  20.880
 3675DPPE   PO465954  15.100  10.660  20.780
 3675DPPE   GL165955  15.480  10.590  20.430
 3675DPPE   GL265956  15.450  10.570  20.040
 3675DPPE   C1A65957  16.020  10.780  20.380
 3675DPPE   C2A65958  16.130  11.240  20.310
 3675DPPE   C3A65959  16.160  11.640  20.290
 3675DPPE   C4A65960  16.210  12.050  20.220
 3675DPPE   C1B65961  15.810  10.810  19.930
 3675DPPE   C2B65962  16.220  10.930  19.870
 3675DPPE   C3B65963  16.630  10.720  19.890
 3675DPPE   C4B65964  17.030  10.840  19.900
 3676DPPE   NH365965  13.670  13.690  23.870
 3676DPPE   PO465966  14.050  13.340  23.810
 3676DPPE   GL165967  14.000  13.000  24.020
 3676DPPE   GL265968  14.300  12.930  24.070
 3676DPPE   C1A65969  13.860  12.640  24.210
 3676DPPE   C2A65970  14.010  12.460  24.530
 3676DPPE   C3A65971  14.190  12.550  24.950
 3676DPPE   C4A65972  14.270  12.610  25.400
 3676DPPE   C1B65973  14.420  12.820  24.450
 3676DPPE   C2B65974  14.660  12.670  24.760
 3676DPPE   C3B65975  14.630  12.430  25.130
 3676DPPE   C4B65976  14.730  12.230  25.530
 3677DPPE   NH365977   9.360  22.710  20.930
 3677DPPE   PO465978   9.430  22.650  21.380
 3677DPPE   GL165979   9.190  22.790  21.660
 3677DPPE   GL265980   9.260  22.710  22.030
 3677DPPE   C1A65981   9.090  23.140  21.790
 3677DPPE   C2A65982   9.300  23.360  22.180
 3677DPPE   C3A65983   9.790  23.190  22.230
 3677DPPE   C4A65984  10.210  23.230  22.320
 3677DPPE   C1B65985   8.890  22.900  22.180
 3677DPPE   C2B65986   8.630  23.250  22.240
 3677DPPE   C3B65987   8.460  23.540  22.230
 3677DPPE   C4B65988   8.480  23.790  22.530
 3678DPPE   NH365989  12.940   9.090  18.340
 3678DPPE   PO465990  12.950   8.670  18.330
 3678DPPE   GL165991  13.110   8.680  17.970
 3678DPPE   GL265992  13.090   8.430  17.730
 3678DPPE   C1A65993  13.360   8.900  17.570
 3678DPPE   C2A65994  13.740   8.830  17.440
 3678DPPE   C3A65995  14.030   8.440  17.410
 3678DPPE   C4A65996  14.330   8.180  17.180
 3678DPPE   C1B65997  13.440   8.160  17.510
 3678DPPE   C2B65998  13.690   8.150  17.180
 3678DPPE   C3B65999  13.910   7.960  16.890
 3678DPPE   C4B66000  14.320   8.070  16.730
 3679DPPE   NH366001   7.310  10.190  15.010
 3679DPPE   PO466002   7.160   9.960  15.090
 3679DPPE   GL166003   6.750   9.700  15.070
 3679DPPE   GL266004   6.710   9.580  14.830
 3679DPPE   C1A66005   6.310   9.560  15.170
 3679DPPE   C2A66006   6.090   9.540  15.390
 3679DPPE   C3A66007   5.780   9.360  15.150
 3679DPPE   C4A66008   5.710   9.300  14.680
 3679DPPE   C1B66009   6.590   9.160  15.010
 3679DPPE   C2B66010   6.110   8.970  14.980
 3679DPPE   C3B66011   5.580   8.910  15.040
 3679DPPE   C4B66012   5.380   8.610  15.230
 3680DPPE   NH366013   8.730  21.600  20.840
 3680DPPE   PO466014   9.040  21.380  21.100
 3680DPPE   GL166015   8.870  21.160  21.430
 3680DPPE   GL266016   8.960  21.220  21.750
 3680DPPE   C1A66017   8.480  21.050  21.660
 3680DPPE   C2A66018   8.290  21.040  22.010
 3680DPPE   C3A66019   7.980  21.130  22.420
 3680DPPE   C4A66020   7.800  21.350  22.620
 3680DPPE   C1B66021   8.890  21.330  22.090
 3680DPPE   C2B66022   9.030  21.430  22.360
 3680DPPE   C3B66023   8.830  21.650  22.700
 3680DPPE   C4B66024   8.550  21.890  22.900
 3681DPPE   NH366025   6.930  12.530  17.350
 3681DPPE   PO466026   7.070  12.710  17.760
 3681DPPE   GL166027   6.700  12.680  18.040
 3681DPPE   GL266028   6.650  12.830  18.410
 3681DPPE   C1A66029   6.250  12.520  18.110
 3681DPPE   C2A66030   5.980  12.380  18.440
 3681DPPE   C3A66031   5.590  12.480  18.600
 3681DPPE   C4A66032   5.180  12.480  18.620
 3681DPPE   C1B66033   6.380  12.540  18.660
 3681DPPE   C2B66034   6.070  12.210  18.930
 3681DPPE   C3B66035   5.660  12.080  18.840
 3681DPPE   C4B66036   5.220  11.970  18.740
 3682DPPE   NH366037   6.390  18.650  19.290
 3682DPPE   PO466038   6.170  18.960  19.320
 3682DPPE   GL166039   5.950  18.890  19.620
 3682DPPE   GL266040   5.980  19.090  19.940
 3682DPPE   C1A66041   5.540  18.730  19.830
 3682DPPE   C2A66042   5.130  18.710  19.930
 3682DPPE   C3A66043   4.710  18.880  20.130
 3682DPPE   C4A66044   4.290  18.960  19.980
 3682DPPE   C1B66045   5.680  19.030  20.260
 3682DPPE   C2B66046   5.580  18.690  20.530
 3682DPPE   C3B66047   5.300  18.360  20.530
 3682DPPE   C4B66048   5.150  18.080  20.770
 3683DPPE   NH366049   9.340  21.100  21.400
 3683DPPE   PO466050   9.080  20.660  21.240
 3683DPPE   GL166051   8.740  20.710  21.450
 3683DPPE   GL266052   8.810  20.490  21.710
 3683DPPE   C1A66053   8.350  20.610  21.480
 3683DPPE   C2A66054   8.020  20.650  21.840
 3683DPPE   C3A66055   7.720  20.680  22.100
 3683DPPE   C4A66056   7.470  20.730  22.450
 3683DPPE   C1B66057   8.460  20.550  22.020
 3683DPPE   C2B66058   8.210  20.670  22.370
 3683DPPE   C3B66059   7.930  20.500  22.610
 3683DPPE   C4B66060   7.930  20.500  23.030
 3684DPPE   NH366061   8.530  15.420  19.350
 3684DPPE   PO466062   8.180  15.170  19.140
 3684DPPE   GL166063   8.480  15.030  18.970
 3684DPPE   GL266064   8.640  14.720  19.180
 3684DPPE   C1A66065   8.600  14.880  18.570
 3684DPPE   C2A66066   8.730  14.980  18.200
 3684DPPE   C3A66067   9.030  15.100  18.020
 3684DPPE   C4A66068   9.550  15.120  17.940
 3684DPPE   C1B66069   9.030  15.080  19.020
 3684DPPE   C2B66070   9.420  15.150  18.780
 3684DPPE   C3B66071   9.390  15.390  18.390
 3684DPPE   C4B66072   9.150  15.660  18.180
 3685DPPE   NH366073  14.120  18.710  24.230
 3685DPPE   PO466074  14.470  18.420  24.350
 3685DPPE   GL166075  14.250  18.560  24.700
 3685DPPE   GL266076  14.490  18.460  24.880
 3685DPPE   C1A66077  13.980  18.770  24.940
 3685DPPE   C2A66078  13.750  18.780  25.390
 3685DPPE   C3A66079  13.560  18.780  25.850
 3685DPPE   C4A66080  13.330  18.830  26.200
 3685DPPE   C1B66081  14.320  18.460  25.230
 3685DPPE   C2B66082  14.360  18.650  25.600
 3685DPPE   C3B66083  14.040  18.930  25.760
 3685DPPE   C4B66084  13.700  19.300  25.800
 3686DPPE   NH366085  11.150   8.160  17.070
 3686DPPE   PO466086  11.250   7.850  16.950
 3686DPPE   GL166087  11.510   7.510  17.100
 3686DPPE   GL266088  11.170   7.440  17.270
 3686DPPE   C1A66089  11.510   7.060  17.210
 3686DPPE   C2A66090  11.870   6.640  17.100
 3686DPPE   C3A66091  12.350   6.430  17.120
 3686DPPE   C4A66092  12.840   6.490  17.240
 3686DPPE   C1B66093  10.870   7.090  17.300
 3686DPPE   C2B66094  11.060   6.630  17.400
 3686DPPE   C3B66095  11.060   6.320  17.280
 3686DPPE   C4B66096  11.220   5.850  17.250
 3687DPPE   NH366097   8.330  18.520  20.340
 3687DPPE   PO466098   8.760  18.320  20.270
 3687DPPE   GL166099   8.880  18.210  19.790
 3687DPPE   GL266100   8.990  18.470  19.650
 3687DPPE   C1A66101   9.330  18.000  19.590
 3687DPPE   C2A66102   9.640  17.910  19.340
 3687DPPE   C3A66103   9.900  17.810  19.090
 3687DPPE   C4A66104  10.290  17.890  19.010
 3687DPPE   C1B66105   8.910  18.380  19.220
 3687DPPE   C2B66106   8.800  18.210  18.800
 3687DPPE   C3B66107   9.070  17.960  18.500
 3687DPPE   C4B66108   9.390  18.050  18.360
 3688DPPE   NH366109   6.620  17.360  16.670
 3688DPPE   PO466110   6.440  17.060  16.430
 3688DPPE   GL166111   6.700  17.020  16.170
 3688DPPE   GL266112   6.630  16.810  15.950
 3688DPPE   C1A66113   6.980  17.170  15.960
 3688DPPE   C2A66114   7.230  17.280  15.650
 3688DPPE   C3A66115   7.550  17.380  15.390
 3688DPPE   C4A66116   7.820  17.550  14.990
 3688DPPE   C1B66117   7.020  16.770  15.660
 3688DPPE   C2B66118   7.350  16.890  15.310
 3688DPPE   C3B66119   7.770  17.050  15.010
 3688DPPE   C4B66120   8.150  16.820  14.820
 3689DPPE   NH366121  12.080  10.120  19.560
 3689DPPE   PO466122  12.340   9.940  19.280
 3689DPPE   GL166123  12.670  10.150  19.030
 3689DPPE   GL266124  12.750  10.020  18.620
 3689DPPE   C1A66125  13.110   9.980  18.920
 3689DPPE   C2A66126  13.530  10.030  18.760
 3689DPPE   C3A66127  13.830  10.370  18.450
 3689DPPE   C4A66128  14.210  10.510  18.240
 3689DPPE   C1B66129  13.110  10.150  18.440
 3689DPPE   C2B66130  13.430  10.350  18.120
 3689DPPE   C3B66131  13.390  10.730  17.790
 3689DPPE   C4B66132  13.290  11.140  17.590
 3690DPPE   NH366133  11.000  10.600  20.130
 3690DPPE   PO466134  11.270  10.170  20.120
 3690DPPE   GL166135  11.160   9.860  20.320
 3690DPPE   GL266136  10.950   9.760  20.130
 3690DPPE   C1A66137  11.030   9.760  20.740
 3690DPPE   C2A66138  10.630   9.580  21.000
 3690DPPE   C3A66139  10.370   9.190  21.060
 3690DPPE   C4A66140  10.210   8.890  20.760
 3690DPPE   C1B66141  10.580   9.740  20.320
 3690DPPE   C2B66142  10.290   9.460  20.620
 3690DPPE   C3B66143   9.910   9.290  20.750
 3690DPPE   C4B66144   9.590   9.250  21.080
 3691DPPE   NH366145   6.500  19.130  19.650
 3691DPPE   PO466146   6.890  19.330  19.840
 3691DPPE   GL166147   6.680  19.450  20.190
 3691DPPE   GL266148   6.320  19.350  20.270
 3691DPPE   C1A66149   6.590  19.820  20.510
 3691DPPE   C2A66150   6.330  19.970  20.830
 3691DPPE   C3A66151   6.240  20.220  21.010
 3691DPPE   C4A66152   6.240  20.630  21.170
 3691DPPE   C1B66153   6.230  19.510  20.650
 3691DPPE   C2B66154   6.040  19.580  21.050
 3691DPPE   C3B66155   6.090  19.940  21.460
 3691DPPE   C4B66156   5.920  20.340  21.420
 3692DPPE   NH366157   4.780  16.880  15.250
 3692DPPE   PO466158   4.900  16.810  15.650
 3692DPPE   GL166159   4.480  16.690  15.670
 3692DPPE   GL266160   4.430  16.900  15.980
 3692DPPE   C1A66161   4.050  16.800  15.580
 3692DPPE   C2A66162   3.620  16.940  15.730
 3692DPPE   C3A66163   3.190  17.000  15.780
 3692DPPE   C4A66164   2.710  16.830  15.930
 3692DPPE   C1B66165   4.040  16.570  16.010
 3692DPPE   C2B66166   3.690  16.420  16.090
 3692DPPE   C3B66167   3.360  16.520  15.980
 3692DPPE   C4B66168   3.060  16.530  16.180
 3693DPPE   NH366169   9.160  20.390  22.070
 3693DPPE   PO466170   9.230  20.000  21.930
 3693DPPE   GL166171   8.900  20.020  22.230
 3693DPPE   GL266172   8.730  20.140  22.020
 3693DPPE   C1A66173   8.690  20.430  22.510
 3693DPPE   C2A66174   8.470  20.730  22.760
 3693DPPE   C3A66175   8.270  20.970  22.990
 3693DPPE   C4A66176   8.040  21.350  23.280
 3693DPPE   C1B66177   8.440  20.060  22.260
 3693DPPE   C2B66178   8.320  20.210  22.800
 3693DPPE   C3B66179   8.160  20.090  23.200
 3693DPPE   C4B66180   7.990  20.240  23.580
 3694DPPE   NH366181   6.650  22.450  18.590
 3694DPPE   PO466182   6.860  22.420  18.960
 3694DPPE   GL166183   6.550  22.550  19.130
 3694DPPE   GL266184   6.330  22.540  18.970
 3694DPPE   C1A66185   6.300  22.660  19.450
 3694DPPE   C2A66186   5.920  23.030  19.390
 3694DPPE   C3A66187   5.830  23.270  19.150
 3694DPPE   C4A66188   5.780  23.440  18.780
 3694DPPE   C1B66189   5.960  22.470  19.180
 3694DPPE   C2B66190   5.820  22.520  19.600
 3694DPPE   C3B66191   5.670  22.410  19.960
 3694DPPE   C4B66192   5.360  22.260  20.310
 3695DPPE   NH366193   9.190  14.350  19.720
 3695DPPE   PO466194   8.900  14.360  19.440
 3695DPPE   GL166195   9.170  14.680  19.350
 3695DPPE   GL266196   9.100  14.950  19.560
 3695DPPE   C1A66197   9.530  14.740  18.990
 3695DPPE   C2A66198   9.970  14.770  18.860
 3695DPPE   C3A66199  10.290  14.910  18.950
 3695DPPE   C4A66200  10.660  14.940  19.210
 3695DPPE   C1B66201   9.420  15.110  19.340
 3695DPPE   C2B66202   9.760  15.260  19.120
 3695DPPE   C3B66203   9.980  15.260  18.770
 3695DPPE   C4B66204  10.340  15.350  18.740
 3696DPPE   NH366205   4.610  17.360  15.030
 3696DPPE   PO466206   4.540  17.830  14.920
 3696DPPE   GL166207   4.080  18.000  14.830
 3696DPPE   GL266208   4.200  18.210  14.790
 3696DPPE   C1A66209   3.710  18.100  14.940
 3696DPPE   C2A66210   3.360  17.920  14.740
 3696DPPE   C3A66211   3.190  17.800  14.360
 3696DPPE   C4A66212   3.280  18.080  14.070
 3696DPPE   C1B66213   3.980  18.620  14.760
 3696DPPE   C2B66214   3.520  18.710  14.900
 3696DPPE   C3B66215   3.110  18.850  15.170
 3696DPPE   C4B66216   2.720  18.800  15.480
 3697DPPE   NH366217  10.220  23.000  21.320
 3697DPPE   PO466218  10.670  23.180  21.420
 3697DPPE   GL166219  10.950  23.610  21.330
 3697DPPE   GL266220  11.240  23.700  21.460
 3697DPPE   C1A66221  10.960  24.070  21.260
 3697DPPE   C2A66222  11.220  24.100  20.980
 3697DPPE   C3A66223  11.490  24.170  20.580
 3697DPPE   C4A66224  11.910  24.190  20.280
 3697DPPE   C1B66225  11.290  24.000  21.690
 3697DPPE   C2B66226  11.720  24.040  21.920
 3697DPPE   C3B66227  12.230  24.050  22.100
 3697DPPE   C4B66228  12.610  23.940  22.200
 3698DPPE   NH366229   5.660  14.690  13.230
 3698DPPE   PO466230   5.250  14.820  13.080
 3698DPPE   GL166231   5.430  14.640  12.780
 3698DPPE   GL266232   5.810  14.750  12.750
 3698DPPE   C1A66233   5.380  14.310  12.440
 3698DPPE   C2A66234   5.270  14.610  12.100
 3698DPPE   C3A66235   5.180  15.130  12.100
 3698DPPE   C4A66236   5.190  15.550  12.240
 3698DPPE   C1B66237   5.940  14.630  12.360
 3698DPPE   C2B66238   5.810  14.440  12.020
 3698DPPE   C3B66239   5.550  14.470  11.630
 3698DPPE   C4B66240   5.410  14.310  11.280
 3699DPPE   NH366241  12.260  15.320  23.750
 3699DPPE   PO466242  12.120  15.250  23.340
 3699DPPE   GL166243  12.000  14.940  23.650
 3699DPPE   GL266244  11.650  15.150  23.720
 3699DPPE   C1A66245  11.640  14.700  24.010
 3699DPPE   C2A66246  11.350  14.730  24.320
 3699DPPE   C3A66247  10.970  14.610  24.570
 3699DPPE   C4A66248  10.800  14.590  24.930
 3699DPPE   C1B66249  11.390  15.330  24.070
 3699DPPE   C2B66250  11.340  15.360  24.530
 3699DPPE   C3B66251  11.150  15.440  24.950
 3699DPPE   C4B66252  11.370  15.420  25.430
 3700DPPE   NH366253  10.690  15.950  22.630
 3700DPPE   PO466254  10.650  16.240  23.030
 3700DPPE   GL166255  10.340  16.260  23.260
 3700DPPE   GL266256  10.110  16.200  23.230
 3700DPPE   C1A66257  10.280  16.170  23.690
 3700DPPE   C2A66258  10.010  15.830  23.890
 3700DPPE   C3A66259   9.720  15.650  24.110
 3700DPPE   C4A66260   9.370  15.300  24.240
 3700DPPE   C1B66261   9.870  16.030  23.420
 3700DPPE   C2B66262   9.520  16.070  23.790
 3700DPPE   C3B66263   9.260  15.910  24.140
 3700DPPE   C4B66264   9.040  15.700  24.530
 3701DPPE   NH366265   7.480  15.490  18.100
 3701DPPE   PO466266   7.230  15.830  17.870
 3701DPPE   GL166267   7.690  15.960  17.900
 3701DPPE   GL266268   7.990  15.750  17.980
 3701DPPE   C1A66269   7.940  16.140  17.540
 3701DPPE   C2A66270   8.300  16.390  17.550
 3701DPPE   C3A66271   8.710  16.550  17.490
 3701DPPE   C4A66272   9.130  16.510  17.300
 3701DPPE   C1B66273   8.400  15.800  17.690
 3701DPPE   C2B66274   8.680  15.880  17.320
 3701DPPE   C3B66275   9.090  16.050  17.370
 3701DPPE   C4B66276   9.530  16.130  17.360
 3702DPPE   NH366277  11.760  13.430  23.340
 3702DPPE   PO466278  11.850  13.810  23.430
 3702DPPE   GL166279  11.750  13.820  23.780
 3702DPPE   GL266280  11.790  13.480  23.840
 3702DPPE   C1A66281  11.470  13.780  24.180
 3702DPPE   C2A66282  11.130  13.900  24.270
 3702DPPE   C3A66283  10.830  14.110  24.500
 3702DPPE   C4A66284  10.580  14.130  24.810
 3702DPPE   C1B66285  11.660  13.280  24.090
 3702DPPE   C2B66286  11.550  13.020  24.520
 3702DPPE   C3B66287  11.730  12.850  24.960
 3702DPPE   C4B66288  12.130  12.830  25.020
 3703DPPE   NH366289  10.520  14.280  21.860
 3703DPPE   PO466290  10.190  14.070  22.090
 3703DPPE   GL166291  10.030  13.750  22.380
 3703DPPE   GL266292   9.950  13.940  22.620
 3703DPPE   C1A66293   9.730  13.510  22.600
 3703DPPE   C2A66294   9.530  13.490  23.020
 3703DPPE   C3A66295   9.400  13.470  23.510
 3703DPPE   C4A66296   9.320  13.400  23.910
 3703DPPE   C1B66297  10.020  13.660  23.010
 3703DPPE   C2B66298   9.890  13.620  23.410
 3703DPPE   C3B66299   9.750  13.690  23.870
 3703DPPE   C4B66300   9.710  13.480  24.290
 3704DPPE   NH366301  15.860  11.350  21.940
 3704DPPE   PO466302  15.640  11.460  22.310
 3704DPPE   GL166303  16.070  11.340  22.460
 3704DPPE   GL266304  16.100  11.190  22.690
 3704DPPE   C1A66305  16.530  11.480  22.500
 3704DPPE   C2A66306  16.910  11.630  22.610
 3704DPPE   C3A66307  17.170  11.950  22.580
 3704DPPE   C4A66308  17.520  11.930  22.850
 3704DPPE   C1B66309  16.430  11.070  23.000
 3704DPPE   C2B66310  16.590  10.740  23.170
 3704DPPE   C3B66311  16.470  10.430  23.420
 3704DPPE   C4B66312  16.290  10.340  23.720
 3705DPPE   NH366313   7.540   9.280  13.940
 3705DPPE   PO466314   7.840   8.920  13.870
 3705DPPE   GL166315   7.860   9.000  13.470
 3705DPPE   GL266316   8.080   9.190  13.350
 3705DPPE   C1A66317   8.130   8.730  13.200
 3705DPPE   C2A66318   8.020   8.570  12.890
 3705DPPE   C3A66319   7.930   8.440  12.570
 3705DPPE   C4A66320   7.450   8.480  12.410
 3705DPPE   C1B66321   8.020   9.220  12.990
 3705DPPE   C2B66322   8.010   9.400  12.590
 3705DPPE   C3B66323   7.770   9.340  12.250
 3705DPPE   C4B66324   7.670   9.390  11.900
 3706DPPE   NH366325  11.910  12.860  22.800
 3706DPPE   PO466326  12.010  13.110  23.070
 3706DPPE   GL166327  12.020  12.740  23.260
 3706DPPE   GL266328  11.680  12.750  23.240
 3706DPPE   C1A66329  11.970  12.480  23.580
 3706DPPE   C2A66330  12.060  12.280  23.940
 3706DPPE   C3A66331  11.800  11.930  23.950
 3706DPPE   C4A66332  11.390  11.960  24.120
 3706DPPE   C1B66333  11.520  12.490  23.650
 3706DPPE   C2B66334  11.600  12.480  24.080
 3706DPPE   C3B66335  11.330  12.580  24.400
 3706DPPE   C4B66336  11.090  12.210  24.400
 3707DPPE   NH366337  12.230  13.410  23.440
 3707DPPE   PO466338  12.450  13.130  23.410
 3707DPPE   GL166339  12.230  12.930  23.700
 3707DPPE   GL266340  11.840  12.890  23.810
 3707DPPE   C1A66341  12.340  12.680  24.080
 3707DPPE   C2A66342  12.510  12.560  24.520
 3707DPPE   C3A66343  12.670  12.510  24.850
 3707DPPE   C4A66344  12.810  12.540  25.290
 3707DPPE   C1B66345  11.940  12.870  24.200
 3707DPPE   C2B66346  11.960  12.640  24.570
 3707DPPE   C3B66347  12.230  12.310  24.840
 3707DPPE   C4B66348  12.480  12.000  24.980
 3708DPPE   NH366349   7.130  18.870  19.630
 3708DPPE   PO466350   6.760  18.560  19.600
 3708DPPE   GL166351   6.350  18.610  19.820
 3708DPPE   GL266352   6.400  18.450  20.060
 3708DPPE   C1A66353   5.980  18.660  20.140
 3708DPPE   C2A66354   5.770  18.340  20.290
 3708DPPE   C3A66355   5.430  17.910  20.360
 3708DPPE   C4A66356   5.640  17.560  20.420
 3708DPPE   C1B66357   6.150  18.150  19.910
 3708DPPE   C2B66358   5.660  18.180  19.840
 3708DPPE   C3B66359   5.230  18.280  20.000
 3708DPPE   C4B66360   4.890  18.290  20.280
 3709DPPE   NH366361  15.060  10.310  21.100
 3709DPPE   PO466362  15.330  10.380  21.380
 3709DPPE   GL166363  15.700  10.260  21.770
 3709DPPE   GL266364  15.730  10.460  22.090
 3709DPPE   C1A66365  16.110  10.180  21.890
 3709DPPE   C2A66366  16.580  10.210  21.980
 3709DPPE   C3A66367  16.970  10.030  22.000
 3709DPPE   C4A66368  17.300   9.990  21.870
 3709DPPE   C1B66369  15.800  10.300  22.500
 3709DPPE   C2B66370  15.710  10.410  22.890
 3709DPPE   C3B66371  15.830  10.520  23.430
 3709DPPE   C4B66372  15.710  10.610  23.870
 3710DPPE   NH366373   9.380  10.660  18.890
 3710DPPE   PO466374   9.580  10.270  18.920
 3710DPPE   GL166375   9.300  10.010  19.030
 3710DPPE   GL266376   9.210  10.250  19.290
 3710DPPE   C1A66377   9.050   9.640  19.110
 3710DPPE   C2A66378   8.680   9.450  19.310
 3710DPPE   C3A66379   8.390   9.200  19.370
 3710DPPE   C4A66380   8.060   8.960  19.530
 3710DPPE   C1B66381   9.060  10.080  19.660
 3710DPPE   C2B66382   8.890   9.830  20.000
 3710DPPE   C3B66383   8.700   9.550  20.160
 3710DPPE   C4B66384   8.520   9.320  20.530
 3711DPPE   NH366385   9.460  16.010  22.200
 3711DPPE   PO466386   9.710  15.700  22.410
 3711DPPE   GL166387   9.410  15.550  22.720
 3711DPPE   GL266388   9.630  15.350  22.860
 3711DPPE   C1A66389   9.090  15.710  22.930
 3711DPPE   C2A66390   8.720  15.690  22.870
 3711DPPE   C3A66391   8.340  15.600  23.120
 3711DPPE   C4A66392   8.050  15.330  23.420
 3711DPPE   C1B66393   9.540  15.730  23.190
 3711DPPE   C2B66394   9.200  15.970  23.410
 3711DPPE   C3B66395   8.910  16.010  23.760
 3711DPPE   C4B66396   8.790  15.990  24.170
 3712DPPE   NH366397   7.760  12.730  17.060
 3712DPPE   PO466398   7.660  13.090  17.100
 3712DPPE   GL166399   8.000  13.290  17.130
 3712DPPE   GL266400   8.040  13.360  17.410
 3712DPPE   C1A66401   8.410  13.640  17.030
 3712DPPE   C2A66402   8.660  13.830  16.800
 3712DPPE   C3A66403   8.950  14.160  16.860
 3712DPPE   C4A66404   9.310  14.240  17.140
 3712DPPE   C1B66405   8.010  13.760  17.310
 3712DPPE   C2B66406   8.030  14.250  17.390
 3712DPPE   C3B66407   8.130  14.710  17.310
 3712DPPE   C4B66408   8.210  15.010  17.090
 3713DPPE   NH366409  13.440  19.780  23.820
 3713DPPE   PO466410  13.260  19.380  23.870
 3713DPPE   GL166411  12.960  19.560  24.170
 3713DPPE   GL266412  13.030  19.790  24.250
 3713DPPE   C1A66413  12.540  19.570  24.340
 3713DPPE   C2A66414  12.420  19.390  24.680
 3713DPPE   C3A66415  12.320  18.980  24.810
 3713DPPE   C4A66416  12.230  18.650  25.170
 3713DPPE   C1B66417  12.770  19.990  24.630
 3713DPPE   C2B66418  12.560  19.860  25.040
 3713DPPE   C3B66419  12.670  19.730  25.400
 3713DPPE   C4B66420  12.540  19.470  25.670
 3714DPPE   NH366421  14.210  12.150  22.650
 3714DPPE   PO466422  14.080  11.930  23.060
 3714DPPE   GL166423  13.990  11.640  23.390
 3714DPPE   GL266424  13.600  11.600  23.370
 3714DPPE   C1A66425  14.120  11.340  23.690
 3714DPPE   C2A66426  14.250  11.260  24.080
 3714DPPE   C3A66427  14.470  10.940  24.340
 3714DPPE   C4A66428  14.330  10.500  24.320
 3714DPPE   C1B66429  13.640  11.370  23.720
 3714DPPE   C2B66430  13.750  11.230  24.120
 3714DPPE   C3B66431  13.940  10.960  24.510
 3714DPPE   C4B66432  14.030  10.560  24.710
 3715DPPE   NH366433  12.230  10.970  19.880
 3715DPPE   PO466434  11.830  11.070  19.940
 3715DPPE   GL166435  11.990  11.200  19.540
 3715DPPE   GL266436  11.740  11.270  19.250
 3715DPPE   C1A66437  12.360  11.500  19.370
 3715DPPE   C2A66438  12.720  11.600  19.140
 3715DPPE   C3A66439  13.160  11.890  19.000
 3715DPPE   C4A66440  13.350  12.270  18.730
 3715DPPE   C1B66441  11.960  11.580  19.090
 3715DPPE   C2B66442  12.350  11.720  18.870
 3715DPPE   C3B66443  12.700  12.010  18.750
 3715DPPE   C4B66444  12.880  12.280  18.430
 3716DPPE   NH366445  15.610  14.210  23.250
 3716DPPE   PO466446  15.610  14.180  23.730
 3716DPPE   GL166447  16.070  14.070  23.880
 3716DPPE   GL266448  15.980  13.880  24.110
 3716DPPE   C1A66449  16.410  14.430  23.920
 3716DPPE   C2A66450  16.640  14.560  23.430
 3716DPPE   C3A66451  16.820  14.820  23.070
 3716DPPE   C4A66452  17.080  14.760  22.740
 3716DPPE   C1B66453  15.750  13.940  24.450
 3716DPPE   C2B66454  15.520  14.010  24.870
 3716DPPE   C3B66455  15.430  13.970  25.300
 3716DPPE   C4B66456  15.250  13.700  25.550
 3717DPPE   NH366457  11.350  13.730  21.730
 3717DPPE   PO466458  10.970  13.770  21.410
 3717DPPE   GL166459  11.140  13.900  21.000
 3717DPPE   GL266460  11.060  14.220  21.100
 3717DPPE   C1A66461  11.170  14.050  20.570
 3717DPPE   C2A66462  11.370  14.370  20.340
 3717DPPE   C3A66463  11.760  14.700  20.180
 3717DPPE   C4A66464  12.060  14.870  19.870
 3717DPPE   C1B66465  11.540  14.440  20.870
 3717DPPE   C2B66466  11.910  14.440  20.670
 3717DPPE   C3B66467  12.110  14.180  20.320
 3717DPPE   C4B66468  12.430  14.100  20.090
 3718DPPE   NH366469   5.880  19.790  17.360
 3718DPPE   PO466470   5.560  20.110  17.580
 3718DPPE   GL166471   5.170  20.180  17.830
 3718DPPE   GL266472   5.080  20.050  18.190
 3718DPPE   C1A66473   4.780  20.390  17.750
 3718DPPE   C2A66474   4.490  20.510  18.010
 3718DPPE   C3A66475   4.190  20.660  18.300
 3718DPPE   C4A66476   3.880  20.720  18.650
 3718DPPE   C1B66477   4.780  19.760  18.430
 3718DPPE   C2B66478   4.350  19.710  18.590
 3718DPPE   C3B66479   4.050  19.510  18.550
 3718DPPE   C4B66480   3.720  19.340  18.370
 3719DPPE   NH366481   9.740  16.310  21.910
 3719DPPE   PO466482  10.160  16.450  22.070
 3719DPPE   GL166483  10.460  16.460  21.700
 3719DPPE   GL266484  10.670  16.620  21.640
 3719DPPE   C1A66485  10.640  16.140  21.320
 3719DPPE   C2A66486  10.870  16.240  20.860
 3719DPPE   C3A66487  11.110  16.430  20.400
 3719DPPE   C4A66488  11.550  16.320  20.100
 3719DPPE   C1B66489  10.680  16.640  21.270
 3719DPPE   C2B66490  10.870  16.720  20.820
 3719DPPE   C3B66491  11.110  16.940  20.480
 3719DPPE   C4B66492  11.310  16.990  20.220
 3720DPPE   NH366493  12.140  22.540  22.530
 3720DPPE   PO466494  11.740  22.330  22.430
 3720DPPE   GL166495  11.640  22.750  22.640
 3720DPPE   GL266496  11.450  22.920  22.440
 3720DPPE   C1A66497  11.530  22.850  23.080
 3720DPPE   C2A66498  11.740  22.840  23.440
 3720DPPE   C3A66499  12.130  23.110  23.500
 3720DPPE   C4A66500  12.300  23.510  23.510
 3720DPPE   C1B66501  11.370  23.250  22.780
 3720DPPE   C2B66502  11.500  23.640  22.910
 3720DPPE   C3B66503  11.780  23.910  22.720
 3720DPPE   C4B66504  11.920  24.400  22.930
 3721DPPE   NH366505   8.850  20.220  19.880
 3721DPPE   PO466506   8.600  19.970  19.640
 3721DPPE   GL166507   8.690  19.790  19.240
 3721DPPE   GL266508   8.780  19.460  19.340
 3721DPPE   C1A66509   8.760  19.600  18.820
 3721DPPE   C2A66510   9.110  19.510  18.670
 3721DPPE   C3A66511   9.420  19.550  18.370
 3721DPPE   C4A66512   9.710  19.460  18.220
 3721DPPE   C1B66513   9.060  19.300  19.110
 3721DPPE   C2B66514   9.370  19.100  18.820
 3721DPPE   C3B66515   9.720  19.200  18.610
 3721DPPE   C4B66516  10.160  19.090  18.370
 3722DPPE   NH366517   8.810  13.160  18.670
 3722DPPE   PO466518   8.800  12.750  18.590
 3722DPPE   GL166519   9.000  13.020  18.240
 3722DPPE   GL266520   9.210  12.790  18.250
 3722DPPE   C1A66521   9.000  13.210  17.880
 3722DPPE   C2A66522   9.330  13.480  17.720
 3722DPPE   C3A66523   9.640  13.830  17.580
 3722DPPE   C4A66524  10.040  14.010  17.610
 3722DPPE   C1B66525   9.490  13.120  18.020
 3722DPPE   C2B66526   9.730  13.230  17.610
 3722DPPE   C3B66527  10.130  13.470  17.590
 3722DPPE   C4B66528  10.550  13.500  17.480
 3723DPPE   NH366529  13.960  13.800  22.490
 3723DPPE   PO466530  14.270  13.500  22.430
 3723DPPE   GL166531  14.330  13.710  22.030
 3723DPPE   GL266532  14.590  13.590  21.860
 3723DPPE   C1A66533  14.040  13.970  21.790
 3723DPPE   C2A66534  14.220  14.300  21.490
 3723DPPE   C3A66535  14.290  14.560  21.130
 3723DPPE   C4A66536  14.220  14.810  20.780
 3723DPPE   C1B66537  14.550  13.820  21.500
 3723DPPE   C2B66538  14.790  13.930  21.150
 3723DPPE   C3B66539  15.090  14.180  21.160
 3723DPPE   C4B66540  15.090  14.570  21.100
 3724DPPE   NH366541  15.550   9.890  21.360
 3724DPPE   PO466542  15.790  10.240  21.240
 3724DPPE   GL166543  16.230  10.300  21.300
 3724DPPE   GL266544  16.450  10.580  21.200
 3724DPPE   C1A66545  16.700  10.320  21.500
 3724DPPE   C2A66546  17.090  10.400  21.620
 3724DPPE   C3A66547  17.430  10.510  21.900
 3724DPPE   C4A66548  17.640  10.410  22.300
 3724DPPE   C1B66549  16.610  10.780  20.830
 3724DPPE   C2B66550  16.490  10.840  20.410
 3724DPPE   C3B66551  16.590  11.170  20.160
 3724DPPE   C4B66552  16.650  11.620  20.290
 3725DPPE   NH366553  11.550  20.320  22.910
 3725DPPE   PO466554  11.330  19.970  22.870
 3725DPPE   GL166555  10.990  20.120  23.190
 3725DPPE   GL266556  11.140  20.180  23.500
 3725DPPE   C1A66557  10.550  20.190  23.430
 3725DPPE   C2A66558  10.260  20.050  23.770
 3725DPPE   C3A66559  10.110  20.270  24.000
 3725DPPE   C4A66560   9.760  20.360  24.190
 3725DPPE   C1B66561  11.140  20.190  23.930
 3725DPPE   C2B66562  10.900  20.500  24.240
 3725DPPE   C3B66563  11.080  20.900  24.350
 3725DPPE   C4B66564  11.210  21.360  24.300
 3726DPPE   NH366565  10.170  17.040  23.000
 3726DPPE   PO466566   9.860  17.150  22.610
 3726DPPE   GL166567   9.730  17.330  22.930
 3726DPPE   GL266568   9.620  17.010  23.020
 3726DPPE   C1A66569   9.570  17.410  23.430
 3726DPPE   C2A66570   9.370  17.430  23.780
 3726DPPE   C3A66571   9.400  17.550  24.240
 3726DPPE   C4A66572   9.190  17.780  24.570
 3726DPPE   C1B66573   9.380  16.940  23.350
 3726DPPE   C2B66574   9.140  17.040  23.700
 3726DPPE   C3B66575   8.980  17.190  24.100
 3726DPPE   C4B66576   8.820  17.420  24.380
 3727DPPE   NH366577  12.520   9.570  20.910
 3727DPPE   PO466578  12.590   9.240  20.630
 3727DPPE   GL166579  12.300   9.080  20.900
 3727DPPE   GL266580  12.540   9.100  21.160
 3727DPPE   C1A66581  12.100   8.720  21.160
 3727DPPE   C2A66582  11.840   8.390  21.300
 3727DPPE   C3A66583  11.600   8.010  21.400
 3727DPPE   C4A66584  11.780   7.680  21.580
 3727DPPE   C1B66585  12.460   8.870  21.450
 3727DPPE   C2B66586  12.400   8.630  21.840
 3727DPPE   C3B66587  12.250   8.260  22.010
 3727DPPE   C4B66588  12.160   7.980  22.330
 3728DPPE   NH366589  10.060  22.990  20.470
 3728DPPE   PO466590  10.210  22.710  20.230
 3728DPPE   GL166591  10.390  22.710  19.780
 3728DPPE   GL266592  10.430  22.950  19.570
 3728DPPE   C1A66593  10.780  22.630  19.420
 3728DPPE   C2A66594  11.040  22.530  19.120
 3728DPPE   C3A66595  11.210  22.300  18.740
 3728DPPE   C4A66596  11.330  22.330  18.250
 3728DPPE   C1B66597  10.690  23.120  19.300
 3728DPPE   C2B66598  10.830  23.460  19.060
 3728DPPE   C3B66599  11.100  23.840  18.720
 3728DPPE   C4B66600  11.250  24.090  18.480
 3729DPPE   NH366601   6.270  20.180  15.710
 3729DPPE   PO466602   6.560  20.520  15.890
 3729DPPE   GL166603   6.490  20.740  15.450
 3729DPPE   GL266604   6.670  21.090  15.390
 3729DPPE   C1A66605   6.270  20.930  15.050
 3729DPPE   C2A66606   5.980  21.120  14.680
 3729DPPE   C3A66607   5.570  21.260  14.580
 3729DPPE   C4A66608   5.250  21.600  14.710
 3729DPPE   C1B66609   6.690  21.230  15.070
 3729DPPE   C2B66610   6.510  21.230  14.630
 3729DPPE   C3B66611   6.590  21.450  14.200
 3729DPPE   C4B66612   6.540  21.830  14.080
 3730DPPE   NH366613   5.670  15.830  16.420
 3730DPPE   PO466614   5.840  15.420  16.470
 3730DPPE   GL166615   5.470  15.410  16.700
 3730DPPE   GL266616   5.360  15.480  16.390
 3730DPPE   C1A66617   5.260  15.330  17.030
 3730DPPE   C2A66618   4.910  15.550  17.280
 3730DPPE   C3A66619   4.520  15.480  17.500
 3730DPPE   C4A66620   4.030  15.500  17.590
 3730DPPE   C1B66621   4.910  15.310  16.350
 3730DPPE   C2B66622   4.510  15.360  16.430
 3730DPPE   C3B66623   4.150  15.350  16.580
 3730DPPE   C4B66624   3.800  15.260  16.770
 3731DPPE   NH366625   7.000  20.220  19.050
 3731DPPE   PO466626   6.690  19.900  19.230
 3731DPPE   GL166627   6.410  20.070  19.520
 3731DPPE   GL266628   6.140  19.880  19.400
 3731DPPE   C1A66629   6.040  20.240  19.770
 3731DPPE   C2A66630   5.690  20.110  20.020
 3731DPPE   C3A66631   5.470  19.980  20.350
 3731DPPE   C4A66632   5.200  20.020  20.730
 3731DPPE   C1B66633   5.800  19.860  19.450
 3731DPPE   C2B66634   5.400  19.780  19.760
 3731DPPE   C3B66635   5.000  19.620  19.720
 3731DPPE   C4B66636   4.610  19.720  19.660
 3732DPPE   NH366637   8.370  16.950  11.760
 3732DPPE   PO466638   8.430  16.620  11.960
 3732DPPE   GL166639   8.040  16.700  12.220
 3732DPPE   GL266640   7.910  16.380  12.420
 3732DPPE   C1A66641   7.590  16.850  12.290
 3732DPPE   C2A66642   7.200  16.770  12.290
 3732DPPE   C3A66643   6.770  16.980  12.320
 3732DPPE   C4A66644   6.380  16.800  12.460
 3732DPPE   C1B66645   7.530  16.400  12.340
 3732DPPE   C2B66646   7.140  16.320  12.450
 3732DPPE   C3B66647   6.700  16.450  12.260
 3732DPPE   C4B66648   6.340  16.280  12.080
 3733DPPE   NH366649  10.210  19.120   8.090
 3733DPPE   PO466650  10.300  19.500   8.320
 3733DPPE   GL166651  10.070  19.560   7.940
 3733DPPE   GL266652   9.830  19.290   7.820
 3733DPPE   C1A66653   9.930  19.640   7.520
 3733DPPE   C2A66654   9.610  19.750   7.160
 3733DPPE   C3A66655   9.490  20.000   6.880
 3733DPPE   C4A66656   9.380  20.130   6.490
 3733DPPE   C1B66657   9.460  19.580   7.660
 3733DPPE   C2B66658   9.180  19.940   7.400
 3733DPPE   C3B66659   8.870  19.960   7.070
 3733DPPE   C4B66660   8.600  20.280   7.040
 3734DPPE   NH366661  16.110  14.680  19.220
 3734DPPE   PO466662  16.430  14.900  19.490
 3734DPPE   GL166663  16.160  14.920  19.770
 3734DPPE   GL266664  15.940  15.090  19.750
 3734DPPE   C1A66665  15.850  14.670  20.090
 3734DPPE   C2A66666  15.800  14.440  20.470
 3734DPPE   C3A66667  15.970  14.050  20.670
 3734DPPE   C4A66668  15.710  13.610  20.810
 3734DPPE   C1B66669  15.640  15.060  20.030
 3734DPPE   C2B66670  15.310  14.830  20.320
 3734DPPE   C3B66671  15.450  14.710  20.690
 3734DPPE   C4B66672  15.510  14.340  20.870
 3735DPPE   NH366673   9.700  21.020   9.520
 3735DPPE   PO466674  10.140  21.020   9.340
 3735DPPE   GL166675   9.900  21.430   9.260
 3735DPPE   GL266676   9.530  21.410   9.290
 3735DPPE   C1A66677   9.660  21.830   9.100
 3735DPPE   C2A66678   9.350  21.990   8.900
 3735DPPE   C3A66679   9.420  22.210   8.500
 3735DPPE   C4A66680   9.050  22.460   8.370
 3735DPPE   C1B66681   9.090  21.670   9.230
 3735DPPE   C2B66682   8.690  21.520   9.160
 3735DPPE   C3B66683   8.420  21.250   8.840
 3735DPPE   C4B66684   8.460  20.900   8.530
 3736DPPE   NH366685   2.620  13.020  18.690
 3736DPPE   PO466686   2.580  12.590  18.760
 3736DPPE   GL166687   2.800  12.730  18.310
 3736DPPE   GL266688   2.990  12.440  18.190
 3736DPPE   C1A66689   3.110  12.980  18.240
 3736DPPE   C2A66690   3.570  13.310  18.220
 3736DPPE   C3A66691   3.960  13.350  18.190
 3736DPPE   C4A66692   4.310  13.610  18.250
 3736DPPE   C1B66693   3.210  12.610  17.840
 3736DPPE   C2B66694   3.450  12.960  17.850
 3736DPPE   C3B66695   3.690  13.150  17.610
 3736DPPE   C4B66696   3.990  13.340  17.520
 3737DPPE   NH366697  23.990  27.550  12.660
 3737DPPE   PO466698  23.690  27.280  12.500
 3737DPPE   GL166699  23.400  26.890  12.500
 3737DPPE   GL266700  23.210  26.830  12.230
 3737DPPE   C1A66701  23.170  26.620  12.870
 3737DPPE   C2A66702  22.720  26.480  12.910
 3737DPPE   C3A66703  22.370  26.250  12.850
 3737DPPE   C4A66704  22.040  25.980  12.880
 3737DPPE   C1B66705  23.200  26.400  12.380
 3737DPPE   C2B66706  23.000  26.170  12.680
 3737DPPE   C3B66707  22.660  25.900  12.550
 3737DPPE   C4B66708  22.350  25.680  12.450
 3738DPPE   NH366709  13.720   9.880  15.350
 3738DPPE   PO466710  13.780  10.270  15.320
 3738DPPE   GL166711  13.760  10.210  15.730
 3738DPPE   GL266712  13.390  10.050  15.640
 3738DPPE   C1A66713  13.600   9.800  15.950
 3738DPPE   C2A66714  13.260   9.530  16.120
 3738DPPE   C3A66715  12.920   9.430  16.000
 3738DPPE   C4A66716  12.450   9.160  16.140
 3738DPPE   C1B66717  13.250  10.300  15.750
 3738DPPE   C2B66718  12.980  10.210  16.050
 3738DPPE   C3B66719  12.690   9.960  15.900
 3738DPPE   C4B66720  12.460   9.700  15.980
 3739DPPE   NH366721  10.230  15.630  14.890
 3739DPPE   PO466722  10.240  15.290  14.540
 3739DPPE   GL166723   9.810  15.530  14.660
 3739DPPE   GL266724   9.750  15.800  14.760
 3739DPPE   C1A66725   9.340  15.460  14.610
 3739DPPE   C2A66726   8.970  15.330  14.600
 3739DPPE   C3A66727   8.540  15.190  14.480
 3739DPPE   C4A66728   8.200  15.290  14.520
 3739DPPE   C1B66729   9.310  15.830  14.980
 3739DPPE   C2B66730   8.910  15.640  15.000
 3739DPPE   C3B66731   8.630  15.230  14.950
 3739DPPE   C4B66732   8.160  15.150  14.980
 3740DPPE   NH366733  14.660  13.080  28.310
 3740DPPE   PO466734  14.480  13.320  27.930
 3740DPPE   GL166735  14.400  13.490  27.550
 3740DPPE   GL266736  14.600  13.600  27.230
 3740DPPE   C1A66737  14.130  13.250  27.160
 3740DPPE   C2A66738  13.880  12.990  26.910
 3740DPPE   C3A66739  13.470  12.880  26.730
 3740DPPE   C4A66740  13.430  12.390  26.590
 3740DPPE   C1B66741  14.470  13.620  26.890
 3740DPPE   C2B66742  14.240  13.780  26.630
 3740DPPE   C3B66743  13.970  13.990  26.420
 3740DPPE   C4B66744  13.660  14.300  26.370
 3741DPPE   NH366745  10.630  18.260  15.860
 3741DPPE   PO466746  10.530  18.230  15.420
 3741DPPE   GL166747  10.120  18.130  15.640
 3741DPPE   GL266748  10.070  18.250  15.920
 3741DPPE   C1A66749   9.640  18.100  15.710
 3741DPPE   C2A66750   9.280  18.310  15.670
 3741DPPE   C3A66751   8.930  18.430  15.860
 3741DPPE   C4A66752   8.690  18.490  16.180
 3741DPPE   C1B66753   9.730  18.270  16.240
 3741DPPE   C2B66754   9.290  18.160  16.310
 3741DPPE   C3B66755   8.930  18.170  16.460
 3741DPPE   C4B66756   8.500  18.310  16.580
 3742DPPE   NH366757  12.790  11.090  14.540
 3742DPPE   PO466758  12.990  11.400  14.760
 3742DPPE   GL166759  12.510  11.300  14.900
 3742DPPE   GL266760  12.230  11.370  14.750
 3742DPPE   C1A66761  12.540  11.300  15.350
 3742DPPE   C2A66762  12.430  11.400  15.730
 3742DPPE   C3A66763  12.120  11.180  15.920
 3742DPPE   C4A66764  11.890  10.920  16.170
 3742DPPE   C1B66765  11.770  11.250  14.820
 3742DPPE   C2B66766  11.460  11.240  15.000
 3742DPPE   C3B66767  10.980  11.320  15.030
 3742DPPE   C4B66768  10.660  11.220  15.250
 3743DPPE   NH366769  16.110  11.780  17.660
 3743DPPE   PO466770  16.270  12.120  17.840
 3743DPPE   GL166771  16.210  11.810  18.180
 3743DPPE   GL266772  16.290  11.750  18.470
 3743DPPE   C1A66773  15.780  11.720  18.390
 3743DPPE   C2A66774  15.510  11.930  18.630
 3743DPPE   C3A66775  15.460  11.940  19.060
 3743DPPE   C4A66776  15.580  12.210  19.340
 3743DPPE   C1B66777  16.050  11.340  18.620
 3743DPPE   C2B66778  15.720  11.070  18.930
 3743DPPE   C3B66779  15.570  11.080  19.430
 3743DPPE   C4B66780  15.330  10.990  19.730
 3744DPPE   NH366781  14.590  23.590  18.970
 3744DPPE   PO466782  14.170  23.520  18.810
 3744DPPE   GL166783  14.010  23.730  19.100
 3744DPPE   GL266784  14.330  23.930  19.220
 3744DPPE   C1A66785  13.710  24.080  19.220
 3744DPPE   C2A66786  13.330  24.210  19.100
 3744DPPE   C3A66787  13.020  24.580  19.090
 3744DPPE   C4A66788  12.560  24.540  19.170
 3744DPPE   C1B66789  14.100  24.390  19.460
 3744DPPE   C2B66790  13.730  24.530  19.720
 3744DPPE   C3B66791  13.550  24.960  19.820
 3744DPPE   C4B66792  13.460  25.200  20.190
 3745DPPE   NH366793  25.780  25.450  10.090
 3745DPPE   PO466794  25.640  25.050  10.120
 3745DPPE   GL166795  25.290  24.850   9.940
 3745DPPE   GL266796  25.110  24.810   9.600
 3745DPPE   C1A66797  25.190  24.420   9.910
 3745DPPE   C2A66798  24.830  24.340   9.810
 3745DPPE   C3A66799  24.380  24.480   9.800
 3745DPPE   C4A66800  23.990  24.610   9.820
 3745DPPE   C1B66801  24.620  24.940   9.650
 3745DPPE   C2B66802  24.310  25.000   9.860
 3745DPPE   C3B66803  24.140  24.730  10.270
 3745DPPE   C4B66804  24.150  24.280  10.300
 3746DPPE   NH366805  13.040  19.700  18.050
 3746DPPE   PO466806  13.270  19.340  18.130
 3746DPPE   GL166807  12.870  19.250  18.240
 3746DPPE   GL266808  12.750  19.490  18.410
 3746DPPE   C1A66809  12.430  19.140  18.410
 3746DPPE   C2A66810  12.000  19.240  18.670
 3746DPPE   C3A66811  11.640  19.320  18.990
 3746DPPE   C4A66812  11.330  19.480  19.280
 3746DPPE   C1B66813  12.430  19.690  18.580
 3746DPPE   C2B66814  12.070  19.780  18.910
 3746DPPE   C3B66815  11.880  19.770  19.300
 3746DPPE   C4B66816  12.040  19.870  19.660
 3747DPPE   NH366817  14.500  17.560  18.970
 3747DPPE   PO466818  14.590  17.310  19.430
 3747DPPE   GL166819  14.280  17.250  19.820
 3747DPPE   GL266820  14.090  17.470  19.900
 3747DPPE   C1A66821  13.930  16.920  20.060
 3747DPPE   C2A66822  13.690  16.820  20.300
 3747DPPE   C3A66823  13.540  16.510  20.540
 3747DPPE   C4A66824  13.370  16.240  20.910
 3747DPPE   C1B66825  14.020  17.660  20.320
 3747DPPE   C2B66826  14.080  17.760  20.670
 3747DPPE   C3B66827  13.730  17.620  20.900
 3747DPPE   C4B66828  13.680  17.590  21.350
 3748DPPE   NH366829   2.560   9.880  16.220
 3748DPPE   PO466830   2.530   9.950  16.670
 3748DPPE   GL166831   2.890  10.230  16.380
 3748DPPE   GL266832   3.040  10.100  16.090
 3748DPPE   C1A66833   3.200  10.520  16.310
 3748DPPE   C2A66834   3.330  10.930  16.010
 3748DPPE   C3A66835   3.450  11.140  15.670
 3748DPPE   C4A66836   3.780  11.440  15.410
 3748DPPE   C1B66837   3.380  10.040  16.040
 3748DPPE   C2B66838   3.830   9.890  15.960
 3748DPPE   C3B66839   4.300   9.790  15.890
 3748DPPE   C4B66840   4.380   9.430  15.780
 3749DPPE   NH366841  13.810  20.540  22.340
 3749DPPE   PO466842  13.650  20.830  22.650
 3749DPPE   GL166843  13.890  21.030  22.280
 3749DPPE   GL266844  13.690  20.980  22.030
 3749DPPE   C1A66845  14.260  21.170  21.920
 3749DPPE   C2A66846  14.690  21.320  22.090
 3749DPPE   C3A66847  15.150  21.540  21.950
 3749DPPE   C4A66848  15.500  21.640  21.690
 3749DPPE   C1B66849  13.800  21.200  21.650
 3749DPPE   C2B66850  13.830  21.360  21.260
 3749DPPE   C3B66851  13.920  21.830  21.260
 3749DPPE   C4B66852  14.140  22.120  21.480
 3750DPPE   NH366853  11.980  12.120  22.170
 3750DPPE   PO466854  12.260  11.840  22.090
 3750DPPE   GL166855  12.230  11.730  22.470
 3750DPPE   GL266856  12.290  11.880  22.820
 3750DPPE   C1A66857  12.090  11.370  22.720
 3750DPPE   C2A66858  11.970  11.090  22.970
 3750DPPE   C3A66859  11.820  11.100  23.220
 3750DPPE   C4A66860  11.890  11.100  23.660
 3750DPPE   C1B66861  12.030  11.760  23.000
 3750DPPE   C2B66862  11.910  11.530  23.410
 3750DPPE   C3B66863  11.660  11.500  23.730
 3750DPPE   C4B66864  11.430  11.480  24.030
 3751DPPE   NH366865   5.770  18.490  18.130
 3751DPPE   PO466866   5.580  18.830  17.990
 3751DPPE   GL166867   5.270  18.760  18.360
 3751DPPE   GL266868   5.140  18.490  18.560
 3751DPPE   C1A66869   4.830  18.870  18.490
 3751DPPE   C2A66870   4.460  18.600  18.570
 3751DPPE   C3A66871   4.560  18.190  18.680
 3751DPPE   C4A66872   4.420  17.820  18.890
 3751DPPE   C1B66873   4.870  18.450  18.910
 3751DPPE   C2B66874   4.610  18.440  19.180
 3751DPPE   C3B66875   4.170  18.200  19.130
 3751DPPE   C4B66876   3.970  18.040  18.810
 3752DPPE   NH366877   9.780  20.140  20.730
 3752DPPE   PO466878  10.070  20.470  21.020
 3752DPPE   GL166879  10.440  20.240  20.890
 3752DPPE   GL266880  10.590  19.950  20.970
 3752DPPE   C1A66881  10.780  20.290  20.610
 3752DPPE   C2A66882  11.050  20.200  20.350
 3752DPPE   C3A66883  11.320  20.140  19.960
 3752DPPE   C4A66884  11.600  20.100  19.610
 3752DPPE   C1B66885  10.690  19.800  20.560
 3752DPPE   C2B66886  10.980  19.640  20.240
 3752DPPE   C3B66887  11.330  19.570  20.040
 3752DPPE   C4B66888  11.610  19.560  19.730
 3753DPPE   NH366889  16.000  13.910  23.420
 3753DPPE   PO466890  16.060  13.640  23.040
 3753DPPE   GL166891  16.640  13.560  23.030
 3753DPPE   GL266892  16.730  13.310  23.250
 3753DPPE   C1A66893  17.000  13.740  22.870
 3753DPPE   C2A66894  17.500  13.700  22.800
 3753DPPE   C3A66895  17.840  13.500  22.490
 3753DPPE   C4A66896  18.240  13.290  22.580
 3753DPPE   C1B66897  17.170  13.450  23.230
 3753DPPE   C2B66898  17.460  13.450  23.480
 3753DPPE   C3B66899  17.540  13.210  23.810
 3753DPPE   C4B66900  17.670  13.080  24.210
 3754DPPE   NH366901  10.080  20.720  22.010
 3754DPPE   PO466902   9.600  20.650  22.070
 3754DPPE   GL166903   9.460  20.630  22.460
 3754DPPE   GL266904   9.190  20.470  22.580
 3754DPPE   C1A66905   9.450  20.900  22.850
 3754DPPE   C2A66906   9.350  21.190  23.170
 3754DPPE   C3A66907   9.050  21.320  23.310
 3754DPPE   C4A66908   8.920  21.610  23.590
 3754DPPE   C1B66909   9.070  20.570  22.980
 3754DPPE   C2B66910   9.090  20.810  23.360
 3754DPPE   C3B66911   8.980  20.970  23.750
 3754DPPE   C4B66912   9.170  21.000  24.080
 3755DPPE   NH366913  14.730  13.700  22.330
 3755DPPE   PO466914  15.040  13.370  22.420
 3755DPPE   GL166915  15.220  13.530  21.970
 3755DPPE   GL266916  15.100  13.860  21.900
 3755DPPE   C1A66917  15.620  13.530  21.720
 3755DPPE   C2A66918  16.100  13.680  21.640
 3755DPPE   C3A66919  16.410  13.900  21.480
 3755DPPE   C4A66920  16.860  13.870  21.400
 3755DPPE   C1B66921  15.040  14.110  21.650
 3755DPPE   C2B66922  15.080  14.520  21.700
 3755DPPE   C3B66923  14.950  14.940  21.620
 3755DPPE   C4B66924  14.750  15.250  21.810
 3756DPPE   NH366925   5.410  13.500  13.230
 3756DPPE   PO466926   5.670  13.320  12.910
 3756DPPE   GL166927   5.560  13.380  12.590
 3756DPPE   GL266928   5.680  13.670  12.440
 3756DPPE   C1A66929   5.590  13.220  12.210
 3756DPPE   C2A66930   5.480  13.160  11.820
 3756DPPE   C3A66931   5.170  13.190  11.510
 3756DPPE   C4A66932   5.010  13.620  11.290
 3756DPPE   C1B66933   6.000  13.640  12.090
 3756DPPE   C2B66934   6.040  13.830  11.660
 3756DPPE   C3B66935   6.010  14.170  11.390
 3756DPPE   C4B66936   5.770  14.520  11.100
 3757DPPE   NH366937  13.480  20.340  22.750
 3757DPPE   PO466938  13.740  20.100  22.520
 3757DPPE   GL166939  14.140  20.050  22.300
 3757DPPE   GL266940  14.460  19.880  22.380
 3757DPPE   C1A66941  14.540  20.360  22.210
 3757DPPE   C2A66942  14.860  20.690  21.960
 3757DPPE   C3A66943  14.930  21.000  21.620
 3757DPPE   C4A66944  14.740  21.020  21.170
 3757DPPE   C1B66945  14.850  19.660  22.250
 3757DPPE   C2B66946  15.350  19.650  22.100
 3757DPPE   C3B66947  15.740  19.490  21.970
 3757DPPE   C4B66948  16.010  19.190  21.830
 3758DPPE   NH366949  11.490   8.580  18.680
 3758DPPE   PO466950  11.620   8.640  19.070
 3758DPPE   GL166951  11.370   8.440  19.350
 3758DPPE   GL266952  11.400   8.600  19.550
 3758DPPE   C1A66953  11.080   8.130  19.480
 3758DPPE   C2A66954  11.040   7.820  19.690
 3758DPPE   C3A66955  10.960   7.430  19.890
 3758DPPE   C4A66956  10.840   7.070  20.020
 3758DPPE   C1B66957  11.390   8.250  19.880
 3758DPPE   C2B66958  11.670   8.010  20.130
 3758DPPE   C3B66959  11.510   7.850  20.650
 3758DPPE   C4B66960  11.610   7.610  21.090
 3759DPPE   NH366961  12.440  12.860  22.980
 3759DPPE   PO466962  12.320  12.700  22.500
 3759DPPE   GL166963  12.180  12.390  22.780
 3759DPPE   GL266964  11.920  12.240  22.670
 3759DPPE   C1A66965  11.930  12.280  23.130
 3759DPPE   C2A66966  11.740  12.100  23.400
 3759DPPE   C3A66967  11.410  11.970  23.550
 3759DPPE   C4A66968  11.070  11.940  23.760
 3759DPPE   C1B66969  11.530  11.960  22.910
 3759DPPE   C2B66970  11.440  11.510  23.170
 3759DPPE   C3B66971  11.180  11.470  23.410
 3759DPPE   C4B66972  10.920  11.160  23.440
 3760DPPE   NH366973  11.270  17.270  22.640
 3760DPPE   PO466974  11.030  17.130  23.070
 3760DPPE   GL166975  10.950  17.310  23.540
 3760DPPE   GL266976  10.610  17.450  23.610
 3760DPPE   C1A66977  11.020  17.480  23.920
 3760DPPE   C2A66978  10.920  17.480  24.440
 3760DPPE   C3A66979  10.900  17.150  24.860
 3760DPPE   C4A66980  10.660  17.180  25.190
 3760DPPE   C1B66981  10.450  17.600  23.930
 3760DPPE   C2B66982  10.310  17.870  24.320
 3760DPPE   C3B66983  10.050  17.950  24.700
 3760DPPE   C4B66984   9.870  17.890  25.050
 3761DPPE   NH366985  12.830  11.920  22.840
 3761DPPE   PO466986  12.750  11.760  22.520
 3761DPPE   GL166987  12.600  11.430  22.830
 3761DPPE   GL266988  12.770  11.200  22.990
 3761DPPE   C1A66989  12.430  11.290  23.330
 3761DPPE   C2A66990  12.550  11.350  23.850
 3761DPPE   C3A66991  12.470  11.150  24.200
 3761DPPE   C4A66992  12.230  10.950  24.550
 3761DPPE   C1B66993  12.850  11.050  23.410
 3761DPPE   C2B66994  12.900  10.940  23.830
 3761DPPE   C3B66995  12.850  10.780  24.220
 3761DPPE   C4B66996  12.760  10.870  24.570
 3762DPPE   NH366997   6.750  12.620  16.490
 3762DPPE   PO466998   6.650  12.560  16.870
 3762DPPE   GL166999   6.360  12.530  17.190
 3762DPPE   GL267000   6.030  12.530  17.030
 3762DPPE   C1A67001   6.340  12.240  17.440
 3762DPPE   C2A67002   6.220  12.050  17.860
 3762DPPE   C3A67003   5.860  12.010  18.080
 3762DPPE   C4A67004   5.560  12.090  18.330
 3762DPPE   C1B67005   5.820  12.410  17.370
 3762DPPE   C2B67006   5.870  12.450  17.790
 3762DPPE   C3B67007   5.650  12.510  18.060
 3762DPPE   C4B67008   5.240  12.610  18.080
 3763DPPE   NH367009   8.890  17.650  21.870
 3763DPPE   PO467010   9.220  18.010  21.910
 3763DPPE   GL167011   9.110  18.030  22.340
 3763DPPE   GL267012   9.220  17.770  22.580
 3763DPPE   C1A67013   8.720  18.190  22.540
 3763DPPE   C2A67014   8.380  18.250  22.860
 3763DPPE   C3A67015   8.220  17.980  23.120
 3763DPPE   C4A67016   7.910  18.060  23.520
 3763DPPE   C1B67017   8.980  17.830  22.930
 3763DPPE   C2B67018   8.610  17.680  23.230
 3763DPPE   C3B67019   8.220  17.620  23.590
 3763DPPE   C4B67020   7.900  17.770  23.900
 3764DPPE   NH367021  12.770  14.190  23.590
 3764DPPE   PO467022  12.890  14.550  23.800
 3764DPPE   GL167023  12.630  14.450  24.080
 3764DPPE   GL267024  12.640  14.120  24.080
 3764DPPE   C1A67025  12.390  14.570  24.490
 3764DPPE   C2A67026  12.130  14.770  24.820
 3764DPPE   C3A67027  12.050  14.860  25.160
 3764DPPE   C4A67028  11.820  15.030  25.430
 3764DPPE   C1B67029  12.480  14.100  24.480
 3764DPPE   C2B67030  12.150  14.190  24.780
 3764DPPE   C3B67031  12.100  14.260  25.120
 3764DPPE   C4B67032  12.030  14.140  25.530
 3765DPPE   NH367033   5.640  17.220  13.980
 3765DPPE   PO467034   5.690  17.370  14.360
 3765DPPE   GL167035   6.040  17.550  14.100
 3765DPPE   GL267036   6.120  17.560  13.740
 3765DPPE   C1A67037   6.520  17.680  14.130
 3765DPPE   C2A67038   6.960  17.720  14.140
 3765DPPE   C3A67039   7.400  17.670  14.110
 3765DPPE   C4A67040   7.700  17.500  13.950
 3765DPPE   C1B67041   6.340  17.500  13.380
 3765DPPE   C2B67042   6.170  17.280  13.100
 3765DPPE   C3B67043   6.060  17.530  12.620
 3765DPPE   C4B67044   6.230  17.680  12.250
 3766DPPE   NH367045   5.850  12.850  13.080
 3766DPPE   PO467046   6.150  12.770  12.870
 3766DPPE   GL167047   6.110  12.690  12.510
 3766DPPE   GL267048   6.110  13.140  12.460
 3766DPPE   C1A67049   5.850  12.850  12.180
 3766DPPE   C2A67050   5.840  12.850  11.700
 3766DPPE   C3A67051   6.250  12.920  11.380
 3766DPPE   C4A67052   6.690  13.040  11.320
 3766DPPE   C1B67053   6.140  13.110  11.950
 3766DPPE   C2B67054   5.950  13.300  11.580
 3766DPPE   C3B67055   5.910  13.670  11.200
 3766DPPE   C4B67056   6.160  13.700  10.880
  35.21280  35.21280  31.39903
